# vtk DataFile Version 4.2
Generated by LIGGGHTS
ASCII
DATASET POLYDATA
POINTS 1000 float
0.752422 0.682476 1.92727 1.1516 2.77935 0.914464 1.63202 0.277402 0.303738 
2.32535 0.909633 1.0634 3.74785 2.83745 1.83385 0.853821 0.0538564 1.05045 
0.00354055 0.0235142 1.34488 0.282381 1.62113 1.43353 1.93352 2.05268 1.387 
1.42849 0.933051 0.879791 4.82899 2.65681 1.12682 4.11138 3.06474 0.832076 
0.710425 1.22833 0.560884 0.867147 2.48723 1.80283 1.44467 3.9282 1.90182 
0.508277 3.05554 0.427685 4.74819 4.15452 1.34603 1.73882 2.59845 1.96314 
1.71789 1.1392 1.70446 2.60092 2.1121 0.629925 2.11425 3.45125 1.90981 
4.24946 1.42145 0.178258 3.26405 4.19528 0.507421 4.35819 0.854279 1.38154 
0.545997 3.60738 1.25798 1.36275 3.86817 0.766112 1.97115 4.63438 1.19236 
0.486557 4.4489 1.83801 3.74075 4.85942 1.25351 3.83016 1.56311 1.12981 
4.77015 2.38108 0.140722 3.17262 1.73999 0.876771 0.0738882 2.64144 1.37858 
2.54728 0.257618 1.72562 2.80694 2.60917 1.94375 3.36229 1.34831 0.215553 
4.10078 3.88458 0.480211 0.990246 4.65719 0.442012 3.39754 4.99605 0.18798 
4.07447 0.509401 0.0274695 3.69697 3.77798 1.68779 3.17725 2.99704 0.370652 
2.79021 0.272421 0.664197 0.186565 4.34647 0.839541 3.01757 1.09803 1.60839 
3.85137 2.32926 0.326256 4.94297 3.32811 0.327245 2.90278 2.4831 3.38966 
2.07293 0.837203 3.89777 2.40668 0.389003 2.48687 1.24224 2.57537 2.72271 
2.18739 4.66323 2.10185 1.89392 2.77242 3.58661 1.63166 1.87025 3.23716 
2.14302 1.06634 2.96539 0.81266 1.73662 3.11876 4.28276 2.40974 2.51782 
0.444579 0.196761 3.37216 1.54613 0.250599 2.11805 1.1865 0.0353168 3.75627 
1.85196 3.38588 3.05653 0.287994 2.5225 2.75908 2.0176 4.34845 3.81003 
1.93846 1.79441 2.37291 1.45686 3.96816 2.75352 1.0431 1.65427 2.07467 
0.118474 1.40809 3.71487 2.67498 0.557662 3.37106 0.17012 4.28772 2.76157 
4.26395 4.87999 2.06082 3.70477 2.42805 3.91081 3.10978 1.27062 2.81601 
0.12231 1.566 2.55325 3.96065 1.96727 3.47638 0.583834 0.808557 2.81986 
0.942275 4.33771 3.12819 0.443855 3.06589 3.55139 0.702759 3.52787 2.24473 
3.79586 0.106643 2.35451 4.05359 4.08528 3.47002 2.93023 3.37332 3.68082 
2.52505 4.39437 2.79168 3.68142 1.68368 2.01453 2.69919 1.68778 2.04513 
3.36272 0.18312 3.13924 3.44789 2.31139 2.73341 3.13041 3.68225 2.8179 
3.79542 0.905628 2.49666 4.28448 0.891008 3.34506 2.62873 4.07236 3.51573 
4.73268 2.80838 3.56001 1.21825 3.83362 3.72119 4.13455 4.7592 3.70648 
4.02627 3.2183 3.41487 4.03482 1.61876 2.91699 4.75703 1.68255 3.8929 
4.95759 3.17866 2.629 4.63809 0.44477 4.06091 1.68714 3.61164 4.39769 
4.05229 1.95689 5.90755 1.56921 2.20493 4.29119 2.22979 4.4025 5.65152 
2.03325 2.05911 4.94264 0.794684 0.304856 4.52654 0.897571 1.04419 4.90703 
0.263725 3.91698 4.1305 1.17318 0.338186 5.44166 0.942929 1.7267 5.0939 
2.26419 0.946672 5.75229 0.341849 0.776554 4.0911 1.38059 3.05428 5.06127 
2.1217 2.8445 5.28668 1.60178 1.72325 5.69682 0.765853 2.44475 5.59865 
1.47393 3.37523 5.94239 4.02043 4.61439 5.44397 2.02847 1.65465 4.09714 
0.843975 4.82885 4.2692 4.11187 2.68196 5.22364 0.627408 3.45716 5.6911 
1.74346 4.43641 4.82679 4.02753 1.83113 4.42877 3.54613 3.09331 4.21674 
0.162284 4.58059 5.63151 3.41084 0.827374 5.04258 4.16348 4.56722 4.5649 
2.64243 4.82311 4.73432 4.72573 1.80129 4.97616 4.06943 3.67716 4.88911 
3.80378 3.41602 5.63387 3.20599 1.52537 5.3149 1.00883 2.69079 4.02114 
0.764283 3.61994 4.78783 3.69971 1.11007 4.05104 3.27918 4.22762 4.55343 
1.04566 4.43483 5.59851 3.02939 0.785018 5.98471 2.74122 0.00926201 4.77902 
4.87071 0.767082 5.0756 2.99058 1.98883 4.57616 3.54621 0.349715 4.33229 
3.0951 4.08413 5.4626 3.05356 3.32082 4.7009 3.35438 0.0652508 5.86133 
4.94837 4.37688 4.98881 1.50977 1.84933 7.85057 2.42438 0.0394704 6.52012 
0.143875 0.615255 7.85186 1.04011 2.79965 7.03773 2.43502 3.79454 6.50466 
1.45128 0.511981 7.50878 4.34842 3.8267 6.62941 2.17897 2.63814 7.6758 
2.12683 2.29249 6.24602 1.04891 1.15622 7.47395 0.0674106 1.34241 6.51581 
3.54734 4.9462 6.96668 2.3251 4.32645 7.24814 4.65125 2.15281 7.64286 
1.67703 1.5187 6.87682 1.09627 2.48877 7.93996 1.82825 2.90232 6.6702 
3.19921 3.51351 6.15541 0.29565 1.70545 7.37733 2.12795 3.48219 7.36246 
1.18023 2.03762 7.03803 4.24217 4.56867 7.11285 2.31708 0.999991 6.80681 
1.56698 3.73016 6.77249 0.564683 0.772914 6.70657 0.229634 2.75826 6.27629 
3.93238 1.07869 6.09396 4.71165 3.73343 7.56722 4.76997 1.77868 6.71981 
0.825137 3.97864 6.52321 3.31301 4.72229 6.08354 0.868764 4.37447 7.52257 
4.00954 0.904192 7.14562 3.68365 4.63329 7.88486 3.46473 3.52883 7.09927 
1.98564 4.89138 6.45072 0.94662 3.52059 7.50051 4.77794 0.814147 7.47417 
3.35357 1.32607 7.85095 2.4574 1.53708 7.52364 0.134706 3.54215 6.97048 
4.07219 2.8762 6.27795 2.93511 4.71681 7.88983 3.12495 2.47301 6.30801 
3.29936 4.18629 7.16382 2.90306 2.74827 7.14214 0.134949 0.00926685 7.19397 
2.23977 4.97296 7.73615 1.34863 0.807971 6.06035 3.95221 4.43626 6.29204 
4.15889 1.32108 9.07238 2.16278 3.63747 9.10341 4.21489 4.79873 8.95711 
0.200829 0.642685 9.17471 1.14762 0.424309 9.41992 1.54482 2.34905 8.70035 
0.232872 1.51512 9.18114 1.87846 4.04985 8.16164 2.46321 3.31516 9.89198 
1.53038 3.52765 9.95938 0.957373 0.728439 8.33301 3.44194 3.86317 8.42327 
1.53103 1.24117 8.95538 0.74072 1.36788 8.66858 1.38007 1.04658 9.95542 
0.821273 2.73779 8.86941 1.60819 2.56667 9.49985 2.29856 1.86541 9.17741 
2.30102 1.3677 9.95651 2.54098 1.08237 8.56608 2.15405 1.9137 8.32038 
3.03226 4.00136 9.35313 4.56432 0.73538 8.7826 0.594658 1.6375 8.08708 
1.77413 3.18114 8.23169 0.910279 1.58529 9.59294 3.7081 1.7372 9.45944 
3.18904 3.16073 9.09044 0.699359 3.43336 9.60582 1.54578 4.75561 9.70658 
3.06717 4.58093 8.84093 1.39583 4.31333 8.71705 3.27386 0.720181 9.12474 
2.52268 0.58029 9.91087 3.54733 2.9958 8.17991 4.04444 3.8453 8.77828 
0.550088 4.31162 9.68867 4.55506 3.57496 9.47194 3.13694 1.99593 9.04429 
4.38113 2.62167 9.38076 3.75508 0.53484 8.28051 2.72625 3.84465 8.14454 
0.104489 4.53895 8.09589 2.91076 2.44378 9.7024 4.12079 4.29146 9.66189 
4.27642 4.29369 8.00236 4.94659 1.92482 8.50323 3.73176 9.36884 1.91517 
4.60476 9.66503 1.41545 3.85517 8.18901 0.358393 3.8491 7.72616 1.42165 
2.43686 5.59993 1.55848 1.83165 9.95755 1.04533 1.00672 9.48763 1.56117 
0.583932 6.63986 1.75156 2.06458 7.8434 1.51555 2.32939 6.94726 0.341128 
4.84471 8.4381 1.59981 3.64894 9.57065 0.950418 2.88606 5.09514 1.33592 
0.85659 5.9601 0.667374 0.0337366 5.83812 1.48945 0.0634834 6.18363 0.649793 
3.17612 6.7533 0.593282 2.91457 7.38218 1.1931 4.50137 6.0734 0.897787 
4.65407 9.23422 0.171885 2.86676 5.61431 0.621728 2.95704 9.79867 1.36827 
0.0599446 8.49486 1.3085 3.53029 6.799 1.51294 3.77373 6.4413 0.58437 
1.65409 8.78813 1.0251 0.505216 5.14183 1.24203 2.42443 9.22849 0.239461 
1.35953 6.88069 0.37625 1.98241 5.28309 0.618364 4.36367 6.42396 0.0777742 
1.89254 9.39844 1.78836 2.4498 6.2962 1.52253 1.32698 5.36271 1.67929 
1.77236 6.14889 0.564134 0.11329 7.31036 0.280961 4.04117 8.83741 1.05713 
4.06453 6.16108 1.73892 4.07255 8.45375 1.90782 4.21358 7.43328 0.591389 
4.30946 6.81946 1.12965 4.50607 5.41136 0.456265 4.58809 7.50945 1.4981 
4.78905 8.19823 0.28031 4.50223 6.15366 3.73964 3.84479 8.09702 2.70053 
0.735539 8.85803 2.14165 4.56348 6.98171 3.4832 2.91788 6.96689 2.10974 
0.91103 5.035 3.09515 4.22823 6.92428 2.3747 3.05665 5.17137 2.27583 
0.162393 9.34346 2.93425 4.82212 5.51727 3.10911 3.73286 7.23741 2.42372 
0.511983 8.47689 2.95935 0.854579 9.03976 3.60003 0.106056 7.75238 2.54846 
3.64581 9.50121 3.29266 2.94201 5.91747 2.52337 1.94865 8.37809 3.97977 
2.59196 7.12153 3.94343 1.02766 9.6452 2.7877 4.20435 9.34135 3.08845 
0.283604 5.5544 2.3703 1.08767 8.1724 3.48995 1.89375 9.52249 2.74397 
1.94059 6.12862 2.29859 1.09651 7.39896 3.55775 1.39248 5.90266 3.02205 
1.37259 6.72585 3.56041 0.650667 7.13931 2.5505 4.20135 7.56779 3.6869 
1.57847 8.50427 2.26505 1.64119 5.18175 2.37547 0.218552 5.33467 3.29953 
2.71656 5.23511 3.17537 1.81674 6.86178 2.86249 3.50873 7.34855 3.28965 
1.57751 5.94937 3.95751 1.8117 5.23662 3.21388 1.92049 8.31985 3.07979 
4.48054 8.78752 3.61418 3.75658 5.47417 3.96381 1.73529 9.32319 3.65352 
2.72109 9.95591 3.87154 3.04487 6.59848 3.17772 3.01773 7.98297 3.48882 
3.58204 6.04447 3.23964 4.43655 5.73019 2.27374 4.4887 9.15198 2.3093 
4.70595 8.38653 2.87434 4.70691 6.4037 2.85138 1.77697 5.02114 4.05844 
3.6283 5.54532 5.82842 3.59617 8.59176 5.34932 2.99529 9.30369 4.08529 
3.93342 6.65899 4.90437 2.86851 5.2647 5.60169 0.105478 6.17196 5.00483 
3.88574 6.57747 4.10181 0.534913 8.58898 5.00764 4.5286 6.52803 5.46446 
0.217087 7.46711 4.44836 0.0227704 7.88818 5.46082 0.93566 9.67714 4.8557 
2.37749 5.78418 5.78385 4.04795 7.87825 5.30747 0.575505 9.27788 5.60602 
1.36491 9.45813 5.52736 3.76088 9.52338 5.56529 1.55676 9.4866 4.53709 
3.47709 9.79052 4.87072 -0.0813067 9.60096 5.72882 3.47057 5.54964 4.88308 
0.412054 9.1568 4.27421 2.32174 9.90815 5.58768 3.83282 6.89222 5.9275 
2.10004 8.81087 4.79943 2.72848 5.85562 4.13268 4.34933 5.57059 5.23628 
4.59789 7.46943 4.61352 1.1474 6.87668 5.38933 0.593949 8.45304 5.9608 
3.76573 7.61997 4.40101 0.63257 7.60464 5.31249 1.60903 6.09785 5.47787 
1.985 7.13197 4.64251 1.74946 5.34831 4.99992 1.1919 7.43993 4.55421 
0.523921 5.59156 4.38207 3.13915 6.99144 4.74968 0.298863 5.67771 5.37835 
3.01406 6.93266 5.67842 2.15619 6.27122 4.63116 1.37471 8.70278 5.23159 
2.16737 7.0406 5.39931 1.60789 7.93263 5.38649 2.9518 6.15447 5.07618 
1.05712 8.43317 4.35383 0.0763295 6.66789 4.08401 2.74558 8.6319 5.43956 
2.68404 8.3372 4.55811 3.34468 8.21164 4.31899 4.60173 5.47155 4.3335 
4.5178 9.35707 5.07244 4.88573 8.29415 5.07157 4.88841 8.25826 4.15378 
4.88467 9.31925 4.29941 3.69297 9.69874 7.56798 1.27018 9.40021 7.0652 
3.05897 6.13888 6.3409 0.659924 9.09983 6.47376 3.54894 8.6889 7.5319 
4.62366 5.82358 6.15199 0.114453 7.84505 6.53446 3.64122 5.69658 6.72749 
2.70957 6.51942 7.12887 3.11543 5.88648 7.39861 0.627832 9.20183 7.46024 
[...]
POINT_DATA 1000
FIELD FieldData 7
id 1 1000 int
133 21 722 207 542 690 655 354 952 
984 778 266 689 568 993 56 699 526 
440 582 593 966 9 708 80 741 3 
742 268 357 254 329 842 918 288 395 
850 858 922 713 843 533 217 386 263 
654 465 347 300 490 700 478 327 848 
333 139 794 895 134 612 481 833 454 
665 153 808 647 823 760 731 575 548 
247 130 51 251 482 816 197 228 957 
126 913 416 185 806 62 309 658 312 
161 445 104 65 844 780 540 273 835 
667 661 371 253 890 983 845 290 989 
224 666 608 609 93 812 190 351 203 
497 95 484 5 61 927 586 763 406 
306 674 399 101 363 400 532 619 222 
949 572 923 211 24 551 58 86 536 
516 241 43 257 277 748 74 50 926 
314 662 205 720 970 959 596 737 977 
592 278 485 804 331 55 320 225 721 
747 84 932 375 862 452 960 422 42 
486 910 168 17 470 348 510 305 336 
743 346 237 878 154 766 287 468 550 
683 235 353 868 245 924 795 595 992 
140 483 503 590 383 687 648 573 298 
520 108 31 360 157 733 249 321 162 
423 891 717 809 987 971 281 165 606 
98 310 607 204 23 880 978 311 368 
425 420 704 129 588 857 758 567 807 
259 431 285 837 768 151 274 739 171 
4 41 20 118 279 554 597 213 362 
752 218 144 19 135 216 392 886 664 
846 942 801 471 100 265 103 75 396 
164 442 313 472 370 11 920 994 825 
574 698 538 81 317 398 83 695 267 
409 141 514 261 727 522 449 873 14 
637 177 394 38 176 385 902 88 324 
120 563 916 829 728 948 174 149 269 
543 212 380 113 985 227 519 366 974 
255 512 215 799 59 258 866 473 813 
604 262 729 788 963 591 982 308 973 
110 342 641 907 838 68 451 122 230 
633 800 286 160 507 836 377 344 714 
602 99 900 663 143 818 238 387 477 
523 32 499 131 345 969 365 659 559 
903 256 531 730 188 937 57 784 239 
718 322 754 496 462 444 725 112 34 
525 653 107 233 585 990 524 123 933 
872 555 432 943 564 69 859 476 649 
87 271 369 158 676 223 968 94 751 
776 192 119 30 491 965 13 170 47 
793 849 382 884 27 296 150 856 888 
805 73 755 906 429 976 335 630 824 
304 427 388 202 753 52 349 946 453 
605 934 44 463 438 326 18 696 819 
276 291 710 301 643 678 303 411 615 
457 764 443 418 557 598 921 413 78 
904 701 480 802 877 214 361 644 414 
350 109 284 189 887 941 91 138 439 
652 307 372 196 106 186 193 623 894 
905 947 447 810 172 389 865 735 986 
853 547 786 210 958 911 339 981 940 
252 956 792 556 40 939 777 208 855 
656 506 803 97 341 450 860 712 702 
961 620 828 231 909 566 614 769 232 
364 178 744 631 90 243 870 579 912 
896 549 562 79 821 624 459 975 293 
889 893 626 851 782 358 629 530 919 
421 295 938 495 182 908 428 337 798 
200 995 697 770 35 771 822 142 6 
206 616 156 492 10 875 426 169 783 
376 917 115 826 415 270 76 931 180 
33 356 935 352 988 944 282 951 195 
338 67 827 785 673 640 610 756 815 
7 954 671 132 8 705 272 487 159 
599 869 410 184 373 613 650 552 460 
121 504 929 544 601 102 464 441 82 
479 863 446 2 740 199 221 436 319 
64 646 675 672 791 264 759 897 611 
501 861 1 955 435 260 155 796 645 
736 761 498 930 502 318 711 163 772 
521 509 39 408 746 201 430 738 148 
147 283 767 980 660 577 316 581 511 
881 999 882 198 621 16 433 391 1000 
22 136 541 173 840 899 25 797 684 
580 726 787 694 125 393 455 405 841 
534 343 997 493 677 28 634 325 226 
437 424 60 209 397 682 789 627 635 
152 569 925 680 539 774 401 962 461 
670 750 515 275 545 587 46 489 950 
571 651 419 528 194 883 340 679 181 
817 412 128 603 811 458 248 518 240 
179 831 820 762 407 513 864 885 560 
12 583 187 191 63 723 638 707 244 
29 691 434 996 839 642 488 779 765 
832 85 26 114 991 636 847 111 553 
874 367 693 117 657 294 830 757 600 
145 745 724 466 456 715 246 565 45 
892 625 96 685 732 53 576 535 914 
686 299 570 250 558 901 688 334 500 
234 71 622 915 469 289 709 92 945 
594 475 116 781 814 936 589 175 639 
297 359 617 871 716 66 402 703 979 
48 854 967 390 378 280 867 70 332 
584 105 668 403 628 898 998 734 379 
220 834 137 292 54 546 15 669 72 
964 124 417 852 167 404 692 384 632 
749 876 89 374 578 773 537 467 775 
561 790 618 242 448 879 474 527 315 
127 719 183 330 928 355 494 36 146 
37 166 236 529 328 381 49 302 517 
219 508 323 972 953 706 505 77 681 
229 
type 1 1000 int
1 1 2 1 2 2 2 1 2 
2 2 1 2 2 2 1 2 2 
1 2 2 2 1 2 1 2 1 
2 1 1 1 1 2 2 1 1 
2 2 2 2 2 2 1 1 1 
2 1 1 1 1 2 1 1 2 
1 1 2 2 1 2 1 2 1 
2 1 2 2 2 2 2 2 2 
1 1 1 1 1 2 1 1 2 
1 2 1 1 2 1 1 2 1 
1 1 1 1 2 2 2 1 2 
2 2 1 1 2 2 2 1 2 
1 2 2 2 1 2 1 1 1 
1 1 1 1 1 2 2 2 1 
1 2 1 1 1 1 2 2 1 
2 2 2 1 1 2 1 1 2 
2 1 1 1 1 2 1 1 2 
1 2 1 2 2 2 2 2 2 
2 1 1 2 1 1 1 1 2 
2 1 2 1 2 1 2 1 1 
1 2 1 1 1 1 2 1 1 
2 1 1 2 1 2 1 1 2 
2 1 1 2 1 2 2 2 2 
1 1 2 2 1 2 2 2 1 
2 1 1 1 1 2 1 1 1 
1 2 2 2 2 2 1 1 2 
1 1 2 1 1 2 2 1 1 
1 1 2 1 2 2 2 2 2 
1 1 1 2 2 1 1 2 1 
1 1 1 1 1 2 2 1 1 
2 1 1 1 1 1 1 2 2 
2 2 2 1 1 1 1 1 1 
1 1 1 1 1 1 2 2 2 
2 2 2 1 1 1 1 2 1 
1 1 2 1 2 2 1 2 1 
2 1 1 1 1 1 2 1 1 
1 2 2 2 2 2 1 1 1 
2 1 1 1 2 1 2 1 2 
1 2 1 2 1 1 2 1 2 
2 1 2 2 2 2 2 1 2 
1 1 2 2 2 1 1 1 1 
2 2 1 1 2 2 1 1 2 
2 1 2 2 1 2 1 1 1 
2 1 1 1 1 2 1 2 2 
2 1 2 2 1 2 1 2 1 
2 1 2 1 1 1 2 1 1 
2 2 1 1 2 2 2 1 2 
2 2 1 2 2 1 2 1 2 
1 1 1 1 2 1 2 1 2 
2 1 1 1 1 2 1 1 1 
2 2 1 2 1 1 1 2 2 
2 1 2 2 1 2 1 2 2 
1 1 1 1 2 1 1 2 1 
2 2 1 1 1 1 1 2 2 
1 1 2 1 2 2 1 1 2 
1 2 1 1 2 2 2 1 1 
2 2 1 2 2 1 1 2 1 
1 1 1 1 2 2 1 1 1 
2 1 1 1 1 1 1 2 2 
2 2 1 2 1 1 2 2 2 
2 2 2 1 2 2 1 2 2 
1 2 2 2 1 2 2 1 2 
2 2 2 1 1 1 2 2 2 
2 2 2 1 2 2 2 2 1 
1 1 2 2 1 1 2 2 2 
2 2 2 1 2 2 1 2 1 
2 2 2 2 2 1 2 2 2 
1 1 2 1 1 2 1 1 2 
1 2 2 2 1 2 2 1 1 
1 2 1 1 1 2 1 1 2 
1 2 1 2 1 1 1 2 1 
1 1 2 1 2 2 1 2 1 
1 1 2 2 2 2 2 2 2 
1 2 2 1 1 2 1 1 1 
2 2 1 1 1 2 2 2 1 
1 2 2 2 2 1 1 1 1 
1 2 1 1 2 1 1 1 1 
1 2 2 2 2 1 2 2 2 
2 2 1 2 1 1 1 2 2 
2 2 1 2 2 1 2 1 2 
2 2 1 1 2 1 1 2 1 
1 1 2 2 2 2 1 2 2 
2 2 2 1 2 1 1 1 2 
1 1 2 1 2 2 1 2 2 
2 2 2 2 1 1 1 1 2 
2 1 2 1 2 1 2 1 1 
1 1 1 1 1 2 2 2 2 
1 2 2 2 2 2 1 2 1 
2 2 2 1 2 2 1 1 2 
2 2 1 2 1 2 1 2 1 
2 1 1 2 2 1 1 2 1 
1 2 2 2 1 2 2 2 2 
1 2 1 1 1 2 2 2 1 
1 2 1 2 2 2 1 2 2 
2 1 1 1 2 2 2 1 2 
2 1 2 1 2 1 2 2 2 
1 2 2 1 1 2 1 2 1 
2 2 1 2 2 1 2 2 2 
2 1 2 1 2 2 2 1 1 
1 1 2 2 1 1 2 1 2 
2 1 1 2 2 2 2 1 2 
1 1 2 2 2 1 1 2 2 
1 2 2 1 1 1 2 1 1 
2 1 2 1 2 2 2 2 1 
1 2 1 1 1 2 1 2 1 
2 1 1 2 1 1 2 1 2 
2 2 1 1 2 2 2 1 2 
2 2 2 1 1 2 1 2 1 
1 2 1 1 2 1 1 1 1 
1 1 1 2 1 1 1 1 2 
1 2 1 2 2 2 2 1 2 
1 
i 3 1000 int
169 1 1 -102 0 1 -137 0 0 
220 1 1 -236 0 1 161 1 0 
-260 0 1 -72 0 1 -17 0 0 
227 1 1 -162 0 1 -288 -1 0 
-154 0 1 -85 0 0 35 0 1 
-60 0 0 24 0 -1 -146 0 1 
-30 0 0 -15 0 0 3 0 1 
-90 0 1 324 1 0 -170 0 1 
-63 0 1 -121 0 0 56 0 0 
2 0 -1 37 0 0 -273 0 1 
-18 0 0 -147 0 1 -145 0 1 
-129 0 0 -55 0 -1 148 1 0 
89 0 1 0 0 0 22 0 1 
-225 0 1 -38 0 1 325 1 0 
-88 0 0 114 0 0 -113 0 1 
-88 0 1 -35 0 1 -24 0 -1 
145 1 -1 -241 0 0 154 1 1 
-31 0 1 -64 0 0 -236 0 1 
-45 0 0 -56 0 0 -15 0 0 
-103 0 0 -171 0 0 -49 0 1 
58 0 -1 -34 0 0 254 1 0 
171 1 1 17 0 0 77 0 0 
-112 0 0 255 1 -1 -58 0 1 
347 1 0 194 1 -1 -155 0 1 
-183 0 0 -71 0 0 -23 0 1 
-89 0 0 109 1 0 -19 0 0 
144 1 0 -131 0 1 28 0 0 
238 1 -1 -37 0 0 -113 0 0 
-12 0 0 -107 0 0 -52 0 0 
113 1 0 -79 0 0 1 0 1 
-5 0 1 -48 0 0 -6 0 0 
-87 0 0 207 1 0 -178 0 0 
-306 -1 0 -217 0 2 -59 0 1 
-53 0 0 -87 0 -1 -23 0 0 
-221 0 0 -66 0 -1 -16 0 -1 
-37 0 0 219 1 0 52 0 0 
-180 0 0 -4 0 0 -52 0 0 
-49 0 0 179 1 -1 9 0 1 
-51 0 1 2 0 1 -191 0 0 
180 0 1 -38 0 0 28 0 0 
22 0 -1 -151 0 0 6 0 0 
298 1 0 123 1 1 -69 0 1 
84 0 -1 -65 0 0 -132 0 -1 
-111 0 0 86 1 -1 -146 0 0 
57 0 0 -96 0 1 297 1 0 
98 0 1 -101 0 0 179 1 0 
204 1 0 217 1 -1 50 1 0 
39 0 -1 -39 0 1 -208 0 0 
-111 0 1 353 1 1 -153 0 0 
-60 0 0 -154 0 0 257 1 -1 
-28 0 0 39 0 0 204 1 0 
-109 0 0 -133 0 1 -74 1 -1 
47 0 -1 213 0 -1 194 1 0 
-115 0 0 -86 0 0 168 1 -1 
-40 0 0 241 1 -1 -125 0 1 
-181 0 -1 -14 0 -1 163 1 0 
43 0 0 -143 0 0 241 1 0 
-210 0 0 105 0 0 -92 0 0 
230 1 -1 -51 0 0 24 0 0 
215 1 0 -314 -1 -2 -99 0 0 
255 1 1 -62 0 1 98 1 0 
-135 0 -1 132 1 -1 -34 0 0 
-66 0 -1 65 0 -1 96 0 0 
-72 0 0 271 1 0 -140 0 0 
160 0 0 -4 0 0 -72 0 0 
222 1 0 7 0 0 49 0 0 
98 1 -1 34 1 -1 164 1 0 
-106 0 1 -23 0 0 -52 0 0 
-99 0 -1 143 1 0 -141 0 0 
141 1 0 200 1 -1 44 1 -1 
-30 0 -1 -90 0 0 197 1 0 
246 1 0 -134 0 0 -156 0 -1 
68 0 0 -191 0 0 196 1 0 
-259 -1 0 -75 0 0 100 0 -1 
-93 0 1 -20 0 -1 210 1 -1 
-283 -1 0 13 0 -1 -114 0 0 
217 1 -1 226 1 0 47 0 0 
-11 0 -1 18 0 -1 -151 0 -2 
-60 0 -1 114 1 0 77 0 0 
-143 0 1 -146 0 0 -2 0 0 
24 0 -1 -34 0 0 67 0 0 
-181 -1 1 -43 -1 1 132 0 -1 
-251 -1 0 96 0 1 -48 -1 0 
14 0 0 49 0 1 -133 -1 1 
-179 -1 -1 -142 -1 0 53 0 -1 
-258 -1 0 -142 0 -1 0 0 0 
-257 -1 -1 37 0 0 -15 0 0 
-190 -1 0 -176 0 0 -231 -1 0 
188 0 1 476 1 0 -262 -1 0 
-145 -1 1 312 1 1 73 0 1 
36 0 -1 7 0 0 26 0 0 
-148 -1 0 13 0 0 -132 0 1 
-13 0 0 363 1 0 133 0 0 
-42 0 1 72 0 0 -294 -1 -1 
99 0 1 0 0 0 -59 0 1 
34 0 1 282 1 1 -2 0 1 
93 0 -1 28 0 0 -202 -1 -1 
13 0 1 -13 0 0 -27 0 0 
-224 -1 1 83 0 0 147 0 -1 
34 0 1 100 0 -1 231 0 1 
79 0 1 -7 0 1 127 0 -1 
176 0 0 121 0 0 -180 -1 0 
405 1 1 -122 -1 1 -118 -1 0 
5 0 0 3 0 1 -3 0 1 
40 0 0 -216 -1 0 48 0 1 
-140 -1 2 51 0 1 223 1 -1 
-75 0 1 82 0 1 -283 -1 0 
313 1 1 61 0 0 141 0 0 
-178 -1 0 41 0 1 -146 -1 0 
-99 -1 0 34 0 1 255 0 0 
102 0 -1 -17 0 0 -184 -1 0 
-193 -1 1 209 0 0 -42 0 1 
39 0 -1 104 0 0 -167 -1 1 
-190 -1 -1 -1 0 1 410 1 0 
-195 -1 1 83 0 -1 86 0 0 
158 0 0 104 0 -1 -139 -1 1 
51 0 -1 68 0 0 237 0 0 
125 0 1 -210 -1 0 205 0 1 
120 0 0 115 0 0 -337 -1 1 
90 0 -1 -105 -1 1 0 0 0 
-123 -1 1 -6 0 1 -30 0 0 
-158 -1 0 11 0 1 135 0 0 
49 0 1 137 0 0 119 0 0 
-200 -1 1 375 1 0 98 0 1 
98 0 0 -205 -1 0 139 0 -1 
-320 -1 1 83 0 0 460 1 0 
153 0 0 -223 -1 -1 -201 -1 0 
113 0 0 115 0 0 158 0 0 
-265 -1 0 -239 -1 0 125 0 0 
-160 -1 1 217 0 -1 93 0 0 
129 0 0 228 0 0 148 0 0 
-253 -1 -1 -153 -1 0 -186 -1 0 
-27 0 -1 27 0 0 -65 0 0 
-226 -1 -1 23 0 0 -116 -1 0 
161 0 0 -48 0 1 -307 -1 0 
-226 -1 0 167 0 -1 -135 -1 0 
88 0 -1 145 0 -1 96 0 1 
-24 0 -1 28 0 0 174 0 0 
-289 -1 -1 336 1 0 -272 -1 1 
-136 -1 0 -164 -1 0 20 0 0 
-96 -1 1 -12 0 -1 -16 0 0 
6 0 0 -34 0 -1 62 0 0 
-188 -1 0 30 0 0 -155 -1 0 
-244 -1 1 -154 -1 1 65 0 0 
22 0 0 -35 0 0 -26 0 0 
-110 -1 1 126 0 -1 30 0 -1 
263 0 0 0 0 0 205 0 1 
-177 -1 0 43 0 0 10 0 0 
40 0 0 116 0 -1 90 0 -1 
24 0 -1 157 0 -1 -151 -1 -1 
175 0 -1 42 0 0 -275 -1 -2 
95 0 0 -180 -1 0 76 0 -2 
129 0 -1 -210 -1 0 431 1 0 
-149 -1 -1 -32 -1 -1 -40 0 -1 
114 0 0 15 0 0 63 0 -1 
-134 -1 0 118 0 0 30 0 0 
-216 -1 0 -33 0 -1 -219 -1 0 
122 0 -1 67 0 0 192 0 0 
83 0 0 107 0 -1 73 0 -1 
42 0 0 78 0 -1 98 0 -1 
180 0 0 12 0 -1 14 0 0 
-44 0 0 45 0 -1 -60 0 0 
-265 -1 0 -150 -1 0 96 0 -1 
70 0 -1 39 0 1 57 0 -1 
173 0 0 -1 0 -1 175 0 -1 
61 0 -1 -48 0 0 159 1 0 
-156 0 1 203 1 0 -94 0 1 
-79 0 1 -61 0 0 -37 0 1 
194 1 0 123 1 0 -130 0 2 
78 1 1 240 1 1 -27 0 0 
-68 0 0 368 1 1 170 1 0 
231 1 0 80 1 1 -113 0 0 
231 1 0 188 1 0 -54 0 0 
-21 0 0 -55 0 1 -91 0 0 
-54 0 1 258 1 -1 -165 0 1 
280 1 0 -73 0 0 220 1 0 
216 1 0 -56 0 1 12 0 0 
-79 0 0 -19 0 1 55 0 1 
31 0 1 -197 0 0 -105 0 0 
-124 0 0 51 0 0 59 0 1 
205 1 0 53 0 0 -175 0 1 
189 1 0 223 1 2 -286 -1 -1 
-81 0 1 133 1 0 -27 0 -1 
211 1 1 -113 0 1 282 1 0 
153 1 -1 -46 0 0 -57 0 0 
-204 0 -1 -47 0 1 -277 0 0 
-119 0 1 -119 0 0 266 1 0 
51 1 0 17 0 0 185 1 0 
-33 0 1 136 1 0 243 1 0 
-26 0 0 -39 0 0 -72 0 1 
-40 0 1 -120 0 1 299 1 1 
171 1 0 -61 0 1 -101 0 1 
-68 0 0 91 1 0 208 1 0 
37 0 0 48 0 0 -58 0 0 
-3 0 1 -61 0 0 2 0 0 
-21 0 -1 -161 0 0 122 0 1 
-129 0 1 231 1 0 9 0 -1 
0 0 0 248 1 1 -153 0 1 
3 0 0 15 0 0 -74 0 -1 
-166 0 0 67 0 -1 -86 0 0 
-181 0 -1 -85 0 2 -201 -1 0 
222 1 -1 161 1 -1 0 0 -1 
-93 0 1 38 0 -1 -89 0 1 
-99 0 1 183 1 0 -182 0 0 
-146 0 0 -145 0 1 -41 0 -1 
-69 0 0 -144 0 1 -177 0 0 
-149 0 0 -104 0 -1 29 0 -1 
-48 0 1 -53 0 0 76 1 0 
-155 0 0 -181 0 1 -63 0 1 
156 1 -1 256 1 0 -99 0 1 
-215 0 0 36 0 0 178 1 -1 
324 1 0 -7 0 -1 -121 0 1 
112 0 1 24 0 0 -13 0 0 
288 1 0 24 0 0 -81 0 0 
-105 0 0 4 0 0 -89 0 1 
264 1 0 -53 0 0 -266 -1 1 
149 1 0 299 1 1 -59 0 0 
325 1 1 175 1 -1 -138 0 0 
50 0 -1 -130 0 1 179 1 -1 
-89 0 0 224 1 -1 -31 0 0 
35 0 0 102 1 1 -175 0 0 
-216 0 -1 -138 0 -1 275 1 -1 
108 1 -1 12 1 0 -70 0 -1 
56 0 0 -171 0 -1 -60 0 0 
-52 0 0 72 0 -1 -26 0 0 
273 1 -1 72 0 0 -25 0 1 
-20 0 0 136 1 0 -29 0 -1 
15 0 0 34 0 0 26 0 -1 
84 0 0 -73 0 0 -50 0 0 
-67 0 0 -93 0 0 -236 0 -1 
101 0 0 70 0 0 43 1 -1 
43 0 -1 -62 0 0 -85 0 -1 
-20 0 -1 48 0 -1 -23 0 -1 
-93 0 -1 87 1 0 -51 0 0 
225 1 0 -72 0 0 -225 0 -1 
7 0 1 61 0 -1 -152 0 0 
32 0 0 26 0 -1 159 1 -1 
-277 0 1 -166 0 0 219 1 0 
-63 0 -1 -153 0 0 -94 0 0 
167 1 -1 217 1 0 -59 0 1 
-109 0 0 -127 0 -1 -113 0 -1 
-41 0 -1 -60 0 -1 -85 0 0 
-36 0 0 242 1 0 -42 0 0 
-135 0 -1 -171 0 0 -111 0 0 
201 1 1 -25 0 0 225 1 -1 
-156 0 -1 -33 0 0 -24 0 -1 
-14 0 -1 -47 0 -1 -4 0 0 
-12 0 0 0 0 0 -145 0 0 
260 1 -1 -10 0 -1 -117 0 -1 
188 1 -1 -6 0 -1 234 1 -1 
211 1 0 -7 0 0 -161 0 -1 
-153 0 -1 221 1 -1 80 1 0 
231 1 -1 172 1 -1 -82 0 0 
-243 0 0 -326 -1 0 150 1 -1 
38 0 0 11 0 0 87 0 0 
53 0 1 -116 -1 1 61 0 1 
227 0 0 31 0 1 85 0 0 
100 0 -1 153 0 -1 -208 -1 1 
-89 0 0 -12 0 1 50 0 1 
-305 -1 0 106 0 0 46 0 0 
-75 0 0 6 0 0 -359 -1 1 
68 0 1 249 0 0 152 0 0 
-195 -1 0 -106 0 1 -231 -1 1 
64 0 0 -176 -1 0 332 1 0 
-124 -1 1 -163 -1 1 -257 -1 -1 
-186 -1 0 135 0 -1 -14 0 1 
95 0 1 105 0 -1 32 0 -1 
59 0 1 29 0 0 131 0 0 
102 0 0 -298 -1 0 14 0 0 
17 0 0 2 0 0 153 0 0 
68 0 0 -276 -1 1 87 0 1 
237 0 0 78 0 0 40 0 0 
-274 -1 0 -254 -1 0 -225 -1 1 
121 0 0 71 0 0 -172 -1 0 
-153 -1 1 50 0 0 -80 0 0 
-25 0 1 57 0 0 60 0 0 
-99 0 0 -166 -1 1 -50 0 1 
180 0 0 116 0 0 115 0 0 
98 0 -1 -386 -1 0 -387 -1 0 
132 0 0 243 1 0 -145 -1 0 
-121 -1 0 -17 0 1 -294 -1 0 
-123 0 1 6 0 0 289 1 0 
18 0 0 96 0 1 171 0 0 
-287 -1 -1 75 0 0 -193 -1 1 
32 0 0 157 0 0 -310 -1 1 
132 0 0 161 0 -1 81 0 -1 
-201 -1 0 116 0 0 97 0 0 
352 1 -1 89 0 0 -28 0 1 
170 0 0 -83 -1 1 -239 -1 0 
134 0 0 -106 -1 0 185 0 0 
221 0 0 -129 -1 0 126 0 1 
53 0 -1 -34 0 0 -117 -1 0 
33 0 1 -320 -1 1 78 0 0 
121 0 0 139 0 0 53 0 0 
80 0 -1 21 0 0 -294 -1 1 
-53 0 1 85 0 0 -163 -1 0 
-70 -1 1 101 0 0 72 0 0 
-54 0 0 109 0 0 60 0 0 
69 0 0 166 0 0 -281 -1 -1 
165 0 0 95 0 0 109 0 -1 
-175 -1 1 78 0 0 66 0 0 
192 0 0 -254 -1 1 45 0 0 
110 0 0 48 0 -1 123 0 0 
129 0 -1 0 0 0 107 0 1 
-12 0 0 -27 0 -1 -121 -1 0 
-223 -1 0 -190 -1 0 103 0 0 
85 0 -1 34 0 -1 199 0 -1 
161 0 -1 -189 -1 0 -153 -1 0 
65 0 0 102 0 0 -138 0 0 
-135 -1 0 175 0 0 30 0 0 
-10 0 -1 40 0 1 -33 0 0 
-105 0 0 -57 0 0 -210 -1 0 
339 1 0 64 0 0 -220 -1 -1 
-377 -1 -1 87 0 0 40 0 0 
-168 -1 2 -323 -1 0 194 0 0 
71 0 -1 144 0 0 135 0 0 
-242 -1 0 212 0 -1 21 0 0 
190 0 -1 -17 0 -1 36 0 -1 
-245 -1 0 -111 -1 0 -177 -1 0 
-33 0 0 131 0 -1 -132 -1 -1 
161 0 0 370 1 0 -188 -1 -1 
93 0 -1 -231 -1 0 -132 -1 1 
-352 -1 0 44 0 0 170 0 1 
73 0 0 -1 0 -1 62 0 0 
-190 -1 0 176 0 0 141 0 -2 
79 0 -1 29 0 -1 165 0 0 
53 0 -1 -255 -1 -1 -3 0 0 
-341 -1 -1 86 0 -1 -214 -1 0 
-24 0 0 37 0 -1 61 0 0 
20 0 0 128 0 -1 11 0 0 
19 0 -1 -343 -1 0 -297 -1 -1 
18 0 -1 95 0 -1 66 0 0 
-218 -1 0 169 0 0 33 0 0 
-166 -1 0 
v 3 1000 double
-410.20004106 -3.8589838725 -21.165736487 -230.37812472 -2.2586171691 -0.65502496555 -450.9571162 -27.5694623 -13.415052488 
-400.98366211 6.3768911609 -18.607997937 -272.96618292 23.959986471 -17.202897133 -491.0955957 17.648070134 -16.513893808 
-493.69658312 -6.5173487885 -8.5297449581 -340.93544625 0.062475968163 -4.8626487758 -308.0586896 -8.1209311818 -17.480718894 
-405.92092046 -3.7826923529 19.329760253 -172.76124469 -11.190221423 28.675862539 -156.71570369 -14.248571159 7.6853569081 
-389.67346618 13.515561136 12.254121289 -250.88674898 3.3222198236 -7.3937246428 -187.29598628 30.968214183 -30.303747153 
-227.45337097 -3.0099459609 -2.3727972165 -94.39092977 2.0712478233 9.2954781557 -268.19070811 26.85914128 14.246519078 
-379.58133313 -8.7758558735 20.599228891 -264.08138127 4.8703126192 -5.9903187066 -186.65502529 10.402992579 -0.88748719313 
-358.55739406 8.1396071658 20.979618346 -95.214024509 -11.965881779 15.972237976 -388.92276502 -10.837966469 18.542261734 
-104.24408649 -24.1912727 -12.791698012 -104.69892602 -5.1007010401 1.768851181 -29.873303423 -22.2097742 -12.795916326 
-53.366082358 2.0155714913 -13.575799452 -20.319677492 -6.5726271403 -20.455421798 -339.82759426 14.995736628 22.220019066 
-274.64148624 14.505864665 -1.9425957807 -287.99543839 -3.0362554206 36.454976321 -245.70895578 -2.5752514027 23.927210398 
-485.29151418 3.558147288 4.6714054525 -286.84072294 16.970041645 -16.487939785 -353.50350938 -18.612834601 -9.1402240778 
-74.034225093 -2.2156940427 22.975207826 -75.136955328 12.551074024 5.8318245001 12.030677457 -3.3805642641 -2.2856762924 
-465.51562411 -4.136062279 7.3200141748 -100.5839115 -0.44511567451 38.804802136 -161.51110936 4.546165302 33.194965695 
-475.08041576 -8.6077943882 0.27928606631 -88.592690885 2.3719330977 -20.802908817 -387.19342597 1.8136216773 -2.6572670633 
-285.84709664 4.2439861646 -1.959706894 -201.44856382 7.4065184121 12.284244748 -248.19326187 -18.144473495 3.7155242378 
-405.3766401 -22.01000646 7.8000814877 -428.99332477 -15.174465687 19.391175767 -249.44936221 11.166885613 4.25245423 
-33.872661495 -4.9898044363 -28.066703859 -180.45699902 -19.315820044 4.5537739398 -336.32070606 23.749376703 0.61368445037 
-383.68933799 14.733253736 5.7172558826 -351.89181659 10.692841629 -5.054482822 -267.45219917 27.647917182 -2.2205300699 
-496.1069314 -10.314522996 -11.583180464 -417.16286382 -23.987155925 -5.069645916 -487.42992868 1.1247796238 -12.028803492 
-137.42967855 -10.061912765 1.2534731351 -254.73692797 -13.254819118 -11.164709997 -135.2330102 10.157788203 12.615326549 
-352.54656414 14.309718959 9.2886860284 -123.16920931 8.0462492736 -8.9165538808 -345.80921791 -0.18265082849 -3.8098740602 
-353.69050906 13.624392063 -12.167447454 -430.14154898 5.6799222913 -5.4663578881 -90.781068246 11.475320983 -25.319719095 
-27.790314092 -20.078471419 -24.9359148 -252.04543863 6.169542924 -11.496178 -380.95718854 4.6253143177 5.4984659987 
-353.04429178 -6.132316234 -35.538216635 -291.74740032 0.71227928843 10.885180884 -391.93767723 8.2496655216 -31.210818626 
-105.08453171 -0.17515827223 5.14162751 -176.02979893 -8.3745903325 15.169316642 -144.88177827 -11.090844916 10.337816172 
-462.68088905 -10.448227654 -4.9813221346 -145.35939197 3.8593303146 -5.591837936 -183.6383075 -8.5204242771 -1.6568568551 
-93.79583355 5.0621975093 -8.1856455656 -394.132219 37.337220872 9.1275073631 -362.07941621 26.264133456 2.1783322068 
-474.79801991 13.346261246 -3.5680782229 -272.3969082 2.562465993 -32.034564328 -166.48744488 3.2771161332 -7.1990990393 
-417.82770611 6.8868503273 1.5559667252 -396.51096574 -11.636000762 -3.9622049158 -132.96061606 16.855882649 12.955584305 
-233.79601304 -5.827513308 24.076707757 -132.87180036 -16.798796455 -2.2614582778 6.0874798876 8.9202097701 -19.460573134 
-223.09321222 1.6427104185 -18.635500737 -356.28611456 5.3866256535 -12.414342896 -350.51674712 2.7609956461 1.301807425 
-175.24252857 1.4820165963 -5.0515433118 -426.4243341 -14.427708027 32.484447923 -115.63388525 -8.453787815 3.5985172318 
-274.43892228 14.529907563 -1.8035848101 -271.92833105 5.729179454 2.9435619376 -42.319011835 -15.316412493 8.3065090714 
-282.95140358 3.5701981749 20.069678926 -470.24640462 -1.973315175 -5.0315355249 -396.41738324 2.2882204315 -2.6885128516 
-109.77469567 -9.2844699598 -31.339914819 -488.61652711 15.502150258 18.726512955 -303.63425148 18.580155377 -6.4241187902 
-380.52797757 0.4687733898 -2.0413006533 -422.79941332 1.867802076 5.1692801015 -176.27335288 -20.449758347 6.4031662706 
-169.56015784 6.0971496226 32.490566482 -297.84136233 -8.7126865352 19.573514021 -239.98093496 2.9426035272 -0.66661890887 
-152.74660779 3.6973503514 1.8493177134 -39.829270163 11.773010833 -23.691006147 -327.10654924 5.201056673 -12.979305632 
-19.635720805 -6.3322900891 -9.06976692 -234.20025907 -0.41145526195 -6.1776213521 -172.72488372 -4.6199454281 10.905137128 
-34.366804149 -23.308891191 2.2332649704 -305.63657606 6.3455706237 29.586997013 -175.75676298 9.0378346443 -0.23628779279 