ITEM: TIMESTEP
6000
ITEM: NUMBER OF ATOMS
1000
ITEM: BOX BOUNDS xy xz yz pp pp pp
0 10 0
0 10 0
-0 10 0
ITEM: ATOMS id type type x y z ix iy iz vx vy vz fx fy fz omegax omegay omegaz radius 
362 1 1 2.86593 2.25447 1.99754 -2 0 0 -193.843 3.76605 4.98408 -874.105 1066.81 1348.29 0 0 0 0.5 
755 2 2 2.03889 1.5504 0.291214 -7 0 0 -254.951 10.8727 -0.926293 285.056 -338.285 -356.891 0 0 0 0.5 
323 1 1 2.25434 2.42307 1.21505 -3 0 0 -188.835 4.35817 -0.664958 -81.1179 -690.334 128.521 0 0 0 0.5 
413 1 1 0.178316 2.02045 1.33483 -16 0 0 -180.795 22.7992 0.0159377 61.9073 894.224 -1041.57 0 0 0 0.5 
231 1 1 0.373296 1.33787 1.30497 -5 0 1 -290.584 -11.7805 -4.69456 -3508.23 907.418 -702.285 0 0 0 0.5 
626 2 2 3.17899 4.80669 0.144053 -1 0 0 -21.1083 10.8174 7.63446 1335.99 143.041 -1564.39 0 0 0 0.5 
770 2 2 0.463415 1.78942 0.318276 -5 0 0 -239.184 20.7702 -24.238 3600.22 -818.728 -1037.72 0 0 0 0.5 
759 2 2 2.16301 3.13322 1.65992 -5 0 0 -75.0741 1.56543 8.07063 -228.678 1778.18 1113.93 0 0 0 0.5 
21 1 1 1.98781 0.562875 1.181 -24 0 0 -391.134 -26.3193 -10.8379 430.527 473.953 1828.46 0 0 0 0.5 
798 2 2 1.06387 1.27059 1.4495 -9 0 0 -299.849 3.51917 4.232 -2.21537 -1316.88 1277.74 0 0 0 0.5 
703 2 2 1.53909 0.635096 0.437816 -9 0 1 -327.014 -21.4613 -9.1132 493.944 -1307 -2258.57 0 0 0 0.5 
848 2 2 0.480462 0.461474 0.0283942 -13 0 1 -353.756 9.98296 -22.2146 3102.66 -5377.59 -995.901 0 0 0 0.5 
587 2 2 1.62076 2.11818 0.557538 -4 0 1 -232.462 34.119 42.4323 -1627.05 1403.03 -960.309 0 0 0 0.5 
529 2 2 2.57299 3.75031 0.791561 -2 0 0 -60.2799 -23.9394 -3.64981 -2951.9 0.167992 270.899 0 0 0 0.5 
990 2 2 2.46025 4.55082 1.26713 0 0 0 6.37946 -5.46489 1.05562 -522.783 -755.012 133.775 0 0 0 0.5 
239 1 1 0.614064 0.491781 1.29242 -21 0 1 -397.777 -0.450838 13.3993 -888.425 3716.88 -555.831 0 0 0 0.5 
882 2 2 2.38149 4.52083 0.271403 0 0 0 -10.2421 -23.0715 -3.13074 193.794 -1014.65 377.77 0 0 0 0.5 
886 2 2 2.58359 0.320196 1.62964 27 1 0 -402.389 -33.6622 24.8505 1076.06 -531.016 763.826 0 0 0 0.5 
485 1 1 1.75112 1.38091 1.18951 -17 0 1 -311.746 31.8705 -7.22381 3227.79 -1588.67 854.79 0 0 0 0.5 
434 1 1 2.79465 1.94778 0.846067 -6 0 0 -206.496 -12.8805 -27.4566 -966.003 -782.39 -1050.35 0 0 0 0.5 
282 1 1 0.339947 0.0830168 0.484784 11 1 0 -492.633 6.29227 9.83758 -2624.33 475.485 -2527.79 0 0 0 0.5 
512 2 2 3.65457 3.17999 1.8854 -2 0 0 -99.6344 2.03018 4.90798 -3751.96 1366.38 1456.38 0 0 0 0.5 
249 1 1 1.0134 1.18926 0.570179 -8 0 1 -294.072 3.35669 -12.7012 -382.785 -70.7157 562.935 0 0 0 0.5 
659 2 2 0.603361 4.18274 1.05731 0 0 0 -15.1582 -2.34266 13.3193 -747.311 1569.22 -493.171 0 0 0 0.5 
130 1 1 0.736117 3.07815 0.774656 -4 0 0 -119.571 -4.63477 -7.91299 1193.13 685.264 854.939 0 0 0 0.5 
627 2 2 1.04487 4.9428 1.62762 1 0 0 0.0992286 -8.81518 10.4945 406.327 -45.4099 -1271.35 0 0 0 0.5 
784 2 2 3.59051 1.93391 0.418595 -10 0 1 -212.733 8.74223 -33.2544 -505.066 2399.98 628.886 0 0 0 0.5 
382 1 1 3.36405 1.93992 1.51972 -4 0 0 -227.733 -1.48915 -13.2804 -1382.29 -293.662 370.672 0 0 0 0.5 
11 1 1 0.0333374 2.78298 1.84379 -1 0 0 -117.544 0.596297 1.15757 -338.636 1781.08 1188.8 0 0 0 0.5 
13 1 1 3.92322 1.76127 1.12505 -11 0 0 -239.178 -1.16585 2.14839 1258.95 -644.961 -326.357 0 0 0 0.5 
650 2 2 0.983302 4.08904 0.245494 -1 0 0 -30.1733 -6.73882 6.77776 511.27 536.092 -480.88 0 0 0 0.5 
416 1 1 4.39505 2.93149 1.82782 -3 0 0 -162.539 6.78599 -4.82709 1317.74 -174.403 -80.2011 0 0 0 0.5 
157 1 1 4.44402 4.18371 1.74505 -1 0 0 -19.668 -5.02574 -15.8598 125.753 272.023 -106.619 0 0 0 0.5 
726 2 2 3.85938 0.000617015 0.0485818 18 1 1 -503.057 4.33507 37.818 4248.34 -1334.35 -2181.1 0 0 0 0.5 
638 2 2 1.55112 4.44355 0.977487 0 0 0 -3.62235 -10.6901 -0.746827 -418.423 -218.812 -191.856 0 0 0 0.5 
654 2 2 3.46903 1.03663 1.74756 -16 0 1 -337.773 -20.2893 -0.27956 876.814 -245.409 -253.151 0 0 0 0.5 
530 2 2 1.57455 2.92094 0.0789512 -2 0 1 -119.879 10.3668 18.4116 1083.6 -1880.72 891.741 0 0 0 0.5 
258 1 1 4.19758 1.40347 0.518663 -7 0 1 -296.112 3.97314 -26.537 2111.33 -709.807 -1307.34 0 0 0 0.5 
680 2 2 1.14466 2.06602 1.99909 -3 0 0 -211.943 30.629 -3.18672 1855.94 -3251.13 -1011.72 0 0 0 0.5 
135 1 1 1.1663 3.64602 1.45583 -1 0 0 -53.2248 -13.521 -0.166723 980.002 -2462.82 -88.9106 0 0 0 0.5 
18 1 1 3.15291 3.85932 0.184782 -2 0 0 -58.6679 3.68905 -7.04708 249.36 579.694 943.434 0 0 0 0.5 
807 2 2 0.197398 4.50502 1.89125 0 0 0 -5.6269 13.9843 14.377 -52.4268 -850.694 590.472 0 0 0 0.5 
425 1 1 3.3879 0.27718 0.381441 -6 0 0 -411.32 1.5895 14.2132 -5477.69 3050.6 4498.85 0 0 0 0.5 
982 2 2 3.45008 4.34036 1.09912 0 0 0 -43.5352 23.8937 -9.6163 -836.345 346.52 460.715 0 0 0 0.5 
27 1 1 3.17292 2.85527 0.551669 -8 0 1 -116.456 -3.7202 8.46059 90.2626 -1507.61 -1051.81 0 0 0 0.5 
633 2 2 4.47923 0.798908 0.570154 -10 0 1 -363.426 -4.12309 1.70078 298.146 -609.513 -1037.25 0 0 0 0.5 
495 1 1 3.29044 3.43393 1.1195 -2 0 1 -81.2491 14.2675 15.8477 1702.87 0.647026 -91.9312 0 0 0 0.5 
96 1 1 4.06435 4.00926 0.413824 -2 0 1 -65.6932 14.0329 2.27611 639.092 -105.045 -344.794 0 0 0 0.5 
754 2 2 4.39046 2.8156 0.896122 -2 0 1 -123.998 9.65406 -18.5801 -1398.43 2628.47 -873.241 0 0 0 0.5 
125 1 1 4.72227 0.272303 0.79036 -13 0 1 -433.113 -23.0019 30.4471 -2199.05 -741.307 1964.83 0 0 0 0.5 
787 2 2 4.80524 2.03883 1.1765 -12 0 1 -248.73 -3.27168 -16.4223 1837.67 -1959.05 1137.08 0 0 0 0.5 
261 1 1 4.89855 3.59727 0.189206 -1 0 1 -81.5462 9.31854 -11.1399 -926.19 -501.264 101.878 0 0 0 0.5 
517 2 2 4.93687 2.68206 1.74425 -5 0 0 -170.492 -1.48847 -9.39942 2897.59 -63.8095 -1256.48 0 0 0 0.5 
423 1 1 1.06998 1.24109 2.20459 -16 0 0 -289.866 -17.5975 31.6806 -1159.72 1205.64 -1190.6 0 0 0 0.5 
370 1 1 3.58737 4.32177 2.02516 -1 0 0 -27.5546 -5.89645 -8.12105 -335.184 1220.69 -952.884 0 0 0 0.5 
490 1 1 2.59166 1.13298 2.04494 -10 0 0 -334.192 0.0955976 -10.3561 2671.38 -414.916 -291.403 0 0 0 0.5 
522 2 2 1.92618 3.92051 3.97236 -2 0 0 -56.4216 -17.1522 13.8731 -905.655 -647.554 139.422 0 0 0 0.5 
103 1 1 1.87115 3.81555 2.99625 -1 0 0 -54.5437 6.3563 13.6076 563.087 -485.16 -547.088 0 0 0 0.5 
697 2 2 1.60891 2.71325 2.53931 -2 0 0 -138.155 21.9124 10.2816 -938.245 422.775 -943.946 0 0 0 0.5 
228 1 1 1.78196 1.26509 2.25447 -22 0 1 -287.516 0.628043 19.6723 41.7611 1976.5 1631.75 0 0 0 0.5 
266 1 1 0.618931 0.184759 3.68275 -16 0 0 -426.168 3.40551 -21.574 167.666 -2726.4 -950.905 0 0 0 0.5 
872 2 2 2.66234 4.00018 2.08326 0 0 0 -24.5241 -16.0451 7.01377 -112.475 -39.1017 7.06475 0 0 0 0.5 
898 2 2 4.57693 3.99673 3.66331 -1 0 0 -46.1178 -9.69114 22.1488 -187.943 -77.2172 906.266 0 0 0 0.5 
523 2 2 1.2901 1.61028 3.40788 -9 0 1 -335.843 20.904 26.8213 1270.96 -1818.3 -3254.96 0 0 0 0.5 
142 1 1 0.943352 2.5915 3.55183 -6 0 0 -157.546 -8.08346 -11.6587 1264.78 -1741.83 1323.01 0 0 0 0.5 
778 2 2 2.30272 0.104581 3.17225 -29 0 1 -369.103 -35.9893 -3.98375 -280.123 220.856 37.9135 0 0 0 0.5 
905 2 2 3.69863 3.89934 3.75635 -2 0 0 -65.8305 -11.7065 -10.746 -682.401 2881.16 -29.4431 0 0 0 0.5 
928 2 2 2.79408 3.93529 3.39259 -1 0 0 -57.9997 13.3051 -29.8298 -317.139 582.868 -328.731 0 0 0 0.5 
786 2 2 4.86974 1.51843 3.68522 -11 0 1 -305.821 -9.87754 4.09404 -324.95 -721.61 629.159 0 0 0 0.5 
999 2 2 2.293 3.09808 3.0095 -3 0 0 -91.2291 -14.924 13.889 -853.681 -1225.74 909.433 0 0 0 0.5 
747 2 2 0.213099 0.445857 2.20084 -25 0 1 -494.531 31.4591 -4.1616 -3734.57 3992.92 1918.55 0 0 0 0.5 
531 2 2 2.1692 2.0813 2.60496 -4 0 0 -177.285 -6.28448 13.0465 -94.54 -2831.27 122.497 0 0 0 0.5 
107 1 1 1.56084 0.689492 3.27266 -9 0 0 -369.192 -14.7317 26.7091 2.37407 723.783 100.807 0 0 0 0.5 
675 2 2 3.1339 4.65263 2.73291 0 0 0 -17.3737 -11.4925 19.5817 -61.6922 958.279 186.474 0 0 0 0.5 
144 1 1 4.42929 3.52283 2.43505 -2 0 0 -86.7846 22.4328 8.96838 1572.1 397.74 -1666.88 0 0 0 0.5 
313 1 1 0.291968 1.64932 3.73905 -7 0 0 -292.052 20.0212 11.6623 -326.038 746.992 -903.964 0 0 0 0.5 
865 2 2 4.39366 2.07047 2.84457 -3 0 0 -214.363 1.22626 10.3159 1617.74 -1700.97 -883.354 0 0 0 0.5 
716 2 2 0.49116 1.40266 2.82009 -9 0 0 -285.454 -3.54746 13.0339 564.217 -1487.7 1283.36 0 0 0 0.5 
543 2 2 2.25625 1.40018 3.80075 -9 0 0 -307.246 6.93462 -2.98282 872.843 1855.72 1014.08 0 0 0 0.5 
519 2 2 2.99165 2.93878 2.53578 -2 0 0 -111.19 19.5471 -11.6813 -1986.38 2539.79 -760.34 0 0 0 0.5 
456 1 1 3.78566 3.79437 2.69006 0 0 0 -64.4767 4.05124 6.30911 -2998.26 1893.37 1884.94 0 0 0 0.5 
94 1 1 3.93743 2.05981 2.0448 -3 0 0 -213.193 8.56805 -11.6136 654.137 513.457 114.103 0 0 0 0.5 
734 2 2 3.59036 2.39991 2.64806 -3 0 0 -176.134 14.4269 4.445 -838.459 -1368.4 1413.72 0 0 0 0.5 
773 2 2 3.79792 3.14208 3.16052 -3 0 0 -100.873 -5.77641 16.3049 141.523 -1958.83 -789.564 0 0 0 0.5 
200 1 1 3.29299 0.499617 3.59545 -22 0 0 -348.603 -36.2318 16.5436 448.951 -309.113 -937.874 0 0 0 0.5 
899 2 2 3.67615 1.70967 3.2158 -6 0 0 -237.616 -28.3761 2.47803 -68.7469 514.17 -2270.12 0 0 0 0.5 
383 1 1 1.2804 3.97498 2.3055 -1 0 0 -45.6662 -8.71733 7.72599 -587.872 -156.615 -565 0 0 0 0.5 
921 2 2 3.175 2.35386 3.50314 -3 0 0 -188.509 20.5796 8.0023 339.704 -2070.04 -1231.61 0 0 0 0.5 
5 1 1 1.27567 4.86895 2.52578 -1 0 0 -7.61253 -1.73204 8.13299 -59.7442 97.7301 357.66 0 0 0 0.5 
746 2 2 1.51181 4.58923 3.42414 0 0 0 -12.9344 -6.8731 1.20715 -978.794 1993.93 1238.35 0 0 0 0.5 
95 1 1 4.20334 4.60091 3.0634 -1 0 0 2.05874 -8.86315 -13.538 -316.446 748.687 -145.139 0 0 0 0.5 
879 2 2 3.16826 0.960729 2.75841 15 1 1 -335.686 -13.5402 11.6838 -145.158 -107.462 63.3232 0 0 0 0.5 
276 1 1 4.53992 1.64755 2.03727 -10 0 1 -220.313 -29.9976 -11.0009 1462.96 -546.933 579.966 0 0 0 0.5 
682 2 2 4.73364 2.97526 3.59395 -2 0 0 -123.61 25.574 18.4454 203.872 2839.8 -145.361 0 0 0 0.5 
52 1 1 3.97521 1.41552 3.87347 30 1 0 -281.152 -15.8094 33.2024 -3955.25 5547.56 770.034 0 0 0 0.5 
15 1 1 4.89678 2.25761 3.43095 -7 0 1 -212.304 13.61 35.6245 1482.65 -1429.05 -759.367 0 0 0 0.5 
546 2 2 2.95603 3.22592 3.91226 -2 0 0 -100.496 -4.43408 -28.9468 -340.438 2118.15 1170.8 0 0 0 0.5 
409 1 1 0.669612 2.67518 2.61317 35 1 0 -132.964 -1.87289 9.57941 -2585.23 1824.05 272.947 0 0 0 0.5 
943 2 2 0.51102 3.43796 3.65794 -2 0 0 -84.6468 -0.892968 -7.1039 437.944 738.151 672.154 0 0 0 0.5 
209 1 1 4.39692 0.0922106 3.9334 -16 0 0 -500.533 -10.2314 -15.3976 -858.336 -1721.58 1048.19 0 0 0 0.5 
992 2 2 3.07127 1.90781 5.66652 -18 0 0 -237.938 -3.23389 1.46594 1291.77 -2508.52 64.4832 0 0 0 0.5 
740 2 2 1.74111 2.71429 5.51899 -3 0 0 -117.676 -15.638 -10.1533 -2296.58 1244.9 3495.54 0 0 0 0.5 
518 2 2 2.21572 2.25735 4.89998 -4 0 0 -205.16 9.04967 20.1188 2653.95 -271.422 -2450.27 0 0 0 0.5 
318 1 1 1.17873 3.31872 5.47726 -1 0 0 -106.701 -7.76268 -25.2764 -742.837 439.891 -353.773 0 0 0 0.5 
852 2 2 1.83906 0.372801 5.78309 -15 0 0 -333.501 -14.3501 26.4953 -108.974 1240.03 -693.953 0 0 0 0.5 
240 1 1 1.43322 0.163144 4.8924 -13 0 0 -424.763 -18.4226 38.2864 929.76 -2002.85 -1826.02 0 0 0 0.5 
19 1 1 1.026 1.8426 4.23653 -9 0 0 -262.777 22.3333 0.740942 -501.67 2309.56 977.461 0 0 0 0.5 
12 1 1 0.0164426 0.296577 4.86772 -12 0 0 -418.888 7.45285 14.5463 109.521 -108.341 -27.4687 0 0 0 0.5 
554 2 2 2.62475 2.77493 5.64423 -5 0 0 -115.56 4.88079 -1.78518 -764.832 2453.2 -1463.01 0 0 0 0.5 
429 1 1 2.31782 1.39298 5.16813 -5 0 0 -240.782 -23.2374 15.3495 815.8 107.298 -567.402 0 0 0 0.5 
201 1 1 0.0815096 1.22393 5.36315 -8 0 0 -252.772 -4.30889 -41.1598 -70.3137 -431.175 -635.829 0 0 0 0.5 
488 1 1 2.11748 0.0782856 4.19251 -25 0 1 -456.639 0.102759 16.7538 -376.798 1021.69 -196.054 0 0 0 0.5 
679 2 2 0.136302 4.64045 5.3415 0 0 0 -15.1841 -15.5493 -11.3723 -60.143 -382.752 -15.556 0 0 0 0.5 
260 1 1 1.06584 0.781288 5.46279 -27 0 0 -342.05 -4.87246 -3.33224 228.956 1707.72 692.189 0 0 0 0.5 
251 1 1 2.27525 4.51682 4.90661 -1 0 0 -33.3601 2.40491 12.3308 260.568 -783.857 331.621 0 0 0 0.5 
225 1 1 2.06264 3.64154 5.16524 -3 0 0 -86.6263 4.63148 15.3147 1547.51 -1251.36 -519.242 0 0 0 0.5 
67 1 1 4.08201 0.546451 5.5059 20 1 0 -395.103 11.7357 -17.4907 -85.7785 -80.9829 -164.496 0 0 0 0.5 
298 1 1 3.68754 0.153788 4.70315 -13 0 0 -410.242 -5.33116 -11.8922 263.644 195.167 281.395 0 0 0 0.5 
280 1 1 2.72258 2.10011 4.29137 -7 0 0 -208.551 7.92268 -1.2899 -514.349 -1971.49 -1808.35 0 0 0 0.5 
737 2 2 2.58462 3.14995 4.78247 -1 0 0 -87.7436 0.0953586 -23.0836 -391.553 -2408.98 574.119 0 0 0 0.5 
304 1 1 1.0577 2.03602 5.01263 -3 0 0 -217.539 13.0889 -2.01008 -610.316 1069.38 1255.83 0 0 0 0.5 
939 2 2 3.67019 4.86205 5.00071 0 0 0 0.906018 5.55225 -1.51681 595.685 -741.058 -78.7817 0 0 0 0.5 
283 1 1 0.392656 0.848122 4.0931 -17 0 0 -355.321 3.62659 21.4837 37.471 1028.54 1354.91 0 0 0 0.5 
513 2 2 1.64104 2.60465 4.42375 -4 0 0 -219.712 29.6074 -27.3494 -400.518 -1339.15 117.83 0 0 0 0.5 
172 1 1 1.26479 1.02752 4.5047 -18 0 0 -337.522 2.97549 16.4806 -154.665 -1254.85 190.978 0 0 0 0.5 
437 1 1 1.52408 1.66874 5.5733 -11 0 0 -226.863 -1.83342 13.1755 123.155 144.584 704.526 0 0 0 0.5 
644 2 2 4.773 0.832427 4.69619 35 1 0 -403.601 30.6511 13.4815 -772.358 7512.76 833.749 0 0 0 0.5 
190 1 1 4.91686 2.78345 4.76026 -4 0 0 -129.517 -6.21014 17.758 -99.1362 -26.1819 2.18507 0 0 0 0.5 
408 1 1 0.981977 4.38184 4.24084 0 0 0 -7.39001 -11.549 6.44582 55.2352 915.526 118.313 0 0 0 0.5 
827 2 2 3.63441 4.00739 4.68495 -2 0 0 -60.0978 -3.41887 -10.3206 74.1452 31.7137 517.14 0 0 0 0.5 
127 1 1 3.13736 3.57825 5.91227 -2 0 0 -82.8557 -5.33613 -8.26554 -3064.69 -476.267 -499.677 0 0 0 0.5 
263 1 1 0.00671645 3.76176 4.58409 -2 0 0 -99.4785 5.61567 -2.79473 -234.568 -1891.49 145.317 0 0 0 0.5 
594 2 2 4.28142 2.71968 5.71918 -5 0 0 -119.956 -7.02434 -28.5812 521.25 -737.199 -383.257 0 0 0 0.5 
508 2 2 3.02203 0.682928 5.0453 -16 0 0 -396.481 10.1574 21.8263 272.793 -972.408 2931.96 0 0 0 0.5 
929 2 2 2.92302 4.39405 5.95429 0 0 0 -22.8914 16.3279 4.92039 1528.58 -251.279 -1230.28 0 0 0 0.5 
785 2 2 4.35621 0.798383 4.07667 29 1 0 -376.032 -2.55982 -26.8847 2795.83 4.50068 2836.28 0 0 0 0.5 
925 2 2 2.29941 4.92916 4.00871 -1 0 0 4.59008 -7.52303 0.461799 1341.54 -1170.86 176.648 0 0 0 0.5 
340 1 1 4.38807 3.68555 5.10037 -3 0 0 -50.9784 -6.82171 -12.8284 292.625 -280.25 -56.9695 0 0 0 0.5 
930 2 2 3.95721 3.06178 4.07573 -3 0 0 -122.697 5.2504 20.0519 -518.54 -193.88 1441.53 0 0 0 0.5 
646 2 2 0.903955 3.42162 4.49503 -2 0 0 -114.871 10.4927 26.4261 1155.2 -906.521 -152.219 0 0 0 0.5 
374 1 1 1.06119 4.83295 5.43992 -1 0 0 -17.4011 -2.64604 3.18166 -727.235 13.0184 -448.669 0 0 0 0.5 
900 2 2 0.0789285 3.32093 5.44262 -2 0 0 -92.9405 1.08266 -4.32347 326.468 -345.371 -47.8192 0 0 0 0.5 
445 1 1 1.31329 4.12319 5.48647 -1 0 0 -32.0986 2.15768 4.29472 -1786.77 -252.353 144.734 0 0 0 0.5 
245 1 1 3.82067 3.38295 5.98933 -8 0 0 -87.8226 15.5099 0.0633237 2716.89 -62.2273 959.771 0 0 0 0.5 
502 2 2 2.84196 0.932235 4.18058 -8 0 0 -314.802 -11.5679 38.497 -809.176 1049.41 -1862.19 0 0 0 0.5 
214 1 1 3.7425 4.81747 4.01648 0 0 0 -9.19007 -3.27271 -10.2089 29.3017 502.794 501.609 0 0 0 0.5 
678 2 2 2.7687 4.08012 4.33805 -1 0 0 -60.1242 0.740055 -16.6877 1315.6 -159.304 -442.405 0 0 0 0.5 
995 2 2 4.17844 2.20223 4.30901 -8 0 0 -184.647 6.49393 35.719 -732.207 -71.1734 -1735.93 0 0 0 0.5 
935 2 2 4.11736 4.34633 5.72177 0 0 0 -9.93881 -3.5302 11.079 -169.244 411.19 -0.00490165 0 0 0 0.5 
509 2 2 4.40894 1.45376 4.73877 -8 0 0 -291.543 19.4609 39.4737 -2543.12 772.664 -130.515 0 0 0 0.5 
346 1 1 4.94199 0.293586 4.73608 8 1 0 -523.058 12.3225 2.69565 -6900.14 -1653.86 -1573.23 0 0 0 0.5 
116 1 1 3.91183 3.66613 6.93637 -1 0 0 -71.2835 -5.68949 11.9573 -201.067 -992.923 -269.563 0 0 0 0.5 
152 1 1 2.47827 3.57644 6.73526 -1 0 0 -58.1584 11.0359 2.91159 80.4313 -238.107 -646.43 0 0 0 0.5 
640 2 2 0.646519 1.08569 6.98645 -10 0 0 -295.648 9.35969 0.427401 4123.51 -2542.99 1571.64 0 0 0 0.5 
565 2 2 1.68361 3.87731 6.3764 -1 0 0 -58.5563 5.93732 -8.29799 -12.2857 -89.1813 857.037 0 0 0 0.5 
718 2 2 3.03861 2.66702 7.41578 -4 0 0 -123.728 -17.9348 -5.53652 -799.657 -761.351 38.0882 0 0 0 0.5 
839 2 2 1.29883 1.92663 6.73109 -7 0 0 -223.347 27.6122 30.3253 1003 -758.374 176.129 0 0 0 0.5 
317 1 1 2.68387 2.74647 6.61161 -1 0 0 -102.344 -18.9654 -9.99208 -1365.98 -1534.37 -1390.34 0 0 0 0.5 
869 2 2 1.89253 2.13145 7.87591 -4 0 0 -179.549 -4.72213 -27.376 -2728.01 1662.39 1407.65 0 0 0 0.5 
237 1 1 1.45541 3.27418 7.2221 -2 0 0 -71.2655 -3.31767 2.16739 402.428 -1108.25 -863.751 0 0 0 0.5 
591 2 2 2.71926 0.81559 7.1635 -11 0 0 -335.042 18.3259 -40.4549 14.9921 2571.69 953.255 0 0 0 0.5 
216 1 1 1.2075 1.21448 6.29441 -11 0 0 -336.106 19.6782 -17.8439 1030.35 2402.63 -194.941 0 0 0 0.5 
862 2 2 1.16074 1.26662 7.82253 -9 0 0 -271.163 -8.57015 -8.49327 631.718 -2242.54 -478.99 0 0 0 0.5 
750 2 2 0.583043 2.02459 6.36672 -10 0 0 -224.75 -8.9215 -5.94518 575.11 -2330.48 -433.405 0 0 0 0.5 
498 1 1 1.55585 0.656678 6.63144 32 1 0 -380.844 -11.7467 14.5615 688.816 -1174.47 1139.47 0 0 0 0.5 
762 2 2 2.18946 1.47305 7.19586 -18 0 -1 -301.275 21.8152 -7.2724 -435.161 -528.16 -2412.05 0 0 0 0.5 
40 1 1 3.07963 3.67767 7.48993 -1 0 0 -82.4172 -1.05491 9.87658 735.102 -0.236476 -97.7956 0 0 0 0.5 
572 2 2 1.18058 2.93766 6.34822 -2 0 0 -108.357 2.1311 -4.71215 591.6 -1143.46 500.248 0 0 0 0.5 
480 1 1 2.47081 3.00105 7.91699 -3 0 0 -95.2282 -8.89425 1.13391 -785.801 -626.332 726.048 0 0 0 0.5 
242 1 1 0.512775 0.36125 7.16759 -16 0 0 -395.637 -34.4892 13.6199 1502.1 881.429 -613.352 0 0 0 0.5 
66 1 1 2.07475 4.17608 7.35322 -1 0 0 -57.9218 13.3825 3.91462 -113.556 795.897 -592.565 0 0 0 0.5 
944 2 2 2.1855 2.00739 6.22646 -8 0 0 -214.119 -2.52631 5.04674 879.413 1331.1 673.679 0 0 0 0.5 
467 1 1 0.114664 1.48368 7.35806 25 1 0 -269.28 7.06588 24.8437 3287.77 -2706.22 14.4815 0 0 0 0.5 
161 1 1 4.5168 4.64956 6.57764 -1 0 0 -14.0743 5.79356 15.46 105.278 -806.043 194.87 0 0 0 0.5 
547 2 2 3.86405 0.584889 7.2 18 1 0 -472.453 23.4186 17.0684 479.201 -205.194 -2415.05 0 0 0 0.5 
38 1 1 0.37154 0.872324 6.05222 -9 0 0 -314.682 -24.1548 4.60418 2087.03 -1982.97 -2438.24 0 0 0 0.5 
222 1 1 0.559086 2.37874 7.26881 33 1 0 -165.736 -8.93993 -3.48124 955.042 -674.633 -837.096 0 0 0 0.5 
255 1 1 0.695131 2.9354 7.82213 -2 0 0 -93.0957 -3.08407 -0.692593 162.236 -453.076 161.518 0 0 0 0.5 
743 2 2 3.68972 2.49047 6.82853 -5 0 0 -138.592 -7.51534 -6.5493 551.275 -82.3854 -550.153 0 0 0 0.5 
846 2 2 1.04895 4.02256 7.29074 -1 0 0 -54.5184 11.7337 -4.539 918.226 -787.459 141.869 0 0 0 0.5 
838 2 2 2.31031 4.73774 6.58979 0 0 0 4.92124 -7.36642 -7.67901 -765.279 -231.109 1792.53 0 0 0 0.5 
802 2 2 4.57302 4.63417 7.69051 0 0 0 -15.5457 5.82186 5.75378 132.059 149.806 -29.6867 0 0 0 0.5 
17 1 1 3.96988 0.911211 6.3668 -8 0 0 -349.247 23.4287 -4.23663 2174.67 -1190.02 -758.554 0 0 0 0.5 
343 1 1 0.179933 3.84906 6.95216 0 0 0 -56.6073 -1.60522 -1.9669 337.685 -1894.22 592.15 0 0 0 0.5 
307 1 1 4.13858 0.0870958 6.3933 13 1 0 -476.941 -7.06333 -0.128255 -252.075 -649.137 1134.12 0 0 0 0.5 
448 1 1 0.595612 4.75014 7.31761 1 0 0 -18.936 15.4181 4.47185 -1301.17 1933.03 -91.6751 0 0 0 0.5 
320 1 1 0.271614 2.79054 6.48382 -1 0 0 -131.899 12.656 -16.6636 355.619 2012.5 -801.742 0 0 0 0.5 
956 2 2 3.01064 0.156184 7.73724 -10 0 0 -426.529 6.21973 17.5311 -2632.52 -1785.03 -3956.81 0 0 0 0.5 
888 2 2 3.44028 1.3732 6.67043 27 1 0 -318.929 18.2663 -5.86408 -2538.99 2214.86 1455.67 0 0 0 0.5 
774 2 2 3.72293 2.67579 7.79142 -3 0 0 -121.887 8.64116 -1.28354 159.966 -967.771 -734.874 0 0 0 0.5 
524 2 2 4.57275 2.72123 7.52173 -4 0 0 -127.214 21.5155 -0.213233 1089.62 50.3496 165.788 0 0 0 0.5 
658 2 2 0.586878 4.7303 6.32422 0 0 0 -12.1139 15.1221 2.40681 1298.51 182.257 -338.283 0 0 0 0.5 
312 1 1 3.74217 4.52268 7.14918 0 0 0 -18.5023 3.76261 20.6418 116.832 35.8411 -148.571 0 0 0 0.5 
951 2 2 2.7483 4.92385 7.43478 1 0 0 13.825 -29.1951 -3.45979 63.669 -595.1 333.726 0 0 0 0.5 
399 1 1 4.49869 2.25602 6.48136 -9 0 -1 -139.844 -14.044 -10.2908 148.572 -157.482 -805.216 0 0 0 0.5 
856 2 2 3.81227 1.49681 7.84835 -5 0 0 -246.541 -1.04484 -47.6271 -757.014 1529.95 -3599.32 0 0 0 0.5 
677 2 2 0.368754 3.63546 7.91757 0 0 0 -53.7418 18.3882 4.73476 1484.12 -313.071 -711.792 0 0 0 0.5 
618 2 2 1.22888 4.59508 7.99971 0 0 0 -8.55517 8.73189 3.81254 -520.899 266.353 -735.642 0 0 0 0.5 
732 2 2 2.95355 0.10961 7.02757 -28 0 1 -487.056 11.9027 -19.6298 -932.882 -1235.38 820.157 0 0 0 0.5 
584 2 2 0.74093 3.73139 6.21902 -1 0 0 -63.9017 9.20404 -10.7057 -682.373 1513.88 -345.699 0 0 0 0.5 
721 2 2 3.25845 0.00417392 6.27638 18 1 0 -502.195 22.7936 -9.28248 1235.5 584.987 -952.363 0 0 0 0.5 
89 1 1 4.46262 4.17771 9.39763 -1 0 0 -17.4173 6.4256 4.90926 727.757 -417.433 299.449 0 0 0 0.5 
35 1 1 1.34195 0.481652 8.67547 -8 0 0 -360.1 -8.21891 -20.4492 2681.26 -1869.05 783.71 0 0 0 0.5 
247 1 1 2.56531 1.30505 8.97278 -18 0 0 -215.77 -16.5998 -21.2663 2459.92 -1530.41 3126.69 0 0 0 0.5 
877 2 2 1.95095 0.0635921 8.27108 33 1 0 -386.932 -19.748 -43.1946 -693.105 -638.567 -1534.69 0 0 0 0.5 
372 1 1 1.52604 2.84708 8.10578 -1 0 0 -97.5351 15.4563 9.87117 2020.53 291.222 -1354.85 0 0 0 0.5 
643 2 2 1.65639 1.33113 9.47851 -7 0 0 -253.16 -12.5901 -23.3927 -2304.1 -685.696 -1885.33 0 0 0 0.5 
756 2 2 2.52301 2.92188 9.96201 -2 0 0 -121.388 4.61385 -8.17063 -1124 1659.26 -243.031 0 0 0 0.5 
134 1 1 3.22375 2.92187 8.54792 -4 0 0 -99.5084 -3.24957 6.09258 -917.516 -429.558 -92.3202 0 0 0 0.5 
61 1 1 4.84101 0.589584 8.923 -19 0 0 -444.063 31.1103 6.44376 233.929 844.828 -600.606 0 0 0 0.5 
360 1 1 2.5927 1.82634 8.11961 -9 0 0 -197.48 2.83293 -24.5513 1063.45 -1936.02 -275.805 0 0 0 0.5 
379 1 1 2.15339 3.69883 8.15028 -1 0 0 -64.4002 7.29607 2.61861 882.38 -110.87 -842.24 0 0 0 0.5 
9 1 1 2.26512 0.893638 9.80268 25 1 -1 -319.174 -17.7417 -6.21032 1524.65 -657.915 407.961 0 0 0 0.5 
227 1 1 2.68005 2.26557 9.18933 -5 0 0 -154.178 11.7434 -4.39247 -1251.97 -880.283 -3235.07 0 0 0 0.5 
388 1 1 2.95824 0.428344 9.44339 -7 0 0 -359.852 -12.099 1.13782 1077.24 -1913.43 362 0 0 0 0.5 
357 1 1 0.121188 0.939402 9.99007 -7 0 0 -302.363 18.5832 13.7706 -1037.84 1419.5 -996.942 0 0 0 0.5 
138 1 1 2.2516 3.28356 9.05754 -2 0 0 -62.6703 -12.5672 1.54665 -589.83 -184.988 -190.228 0 0 0 0.5 
120 1 1 1.36353 0.469016 9.5616 -9 0 -1 -343.205 -24.7215 -3.30458 235.079 1096.3 -886.723 0 0 0 0.5 
649 2 2 1.94745 1.83964 8.77956 -3 0 0 -154.902 -12.2595 -14.0118 -3191.26 1492.86 249.763 0 0 0 0.5 
269 1 1 0.737762 0.900711 8.65147 -13 0 0 -300.217 8.77166 3.923 -727.187 2388.96 -416.119 0 0 0 0.5 
384 1 1 0.782494 1.95961 8.22357 -3 0 0 -179.648 -2.1764 12.3413 893.669 -307.484 -198.124 0 0 0 0.5 
506 2 2 1.32437 2.463 8.95941 -4 0 -1 -117.858 11.2878 -15.0459 -950.883 586.071 817.286 0 0 0 0.5 
871 2 2 1.87674 3.99029 9.63066 -1 0 -1 -41.8084 8.01597 -4.30309 68.5644 -220.39 591.733 0 0 0 0.5 
10 1 1 4.73312 2.47786 9.32545 -4 0 0 -196.37 10.6434 14.916 1237.3 -3070.28 12.1538 0 0 0 0.5 
129 1 1 2.48638 0.921382 8.04374 -8 0 0 -289.383 -13.6668 -4.61235 -2744.17 4628.85 1549.9 0 0 0 0.5 
859 2 2 1.37458 2.06118 9.71568 -2 0 0 -185.29 -1.80726 7.42201 3023.31 7.05443 1911.8 0 0 0 0.5 
86 1 1 4.25467 2.96833 8.41298 -4 0 0 -130.662 8.00111 4.95103 60.7841 253.767 262.171 0 0 0 0.5 
760 2 2 0.251096 3.79729 9.46069 -2 0 0 -39.6165 -3.72988 -12.3534 -349.385 -936.76 146.647 0 0 0 0.5 
588 2 2 2.45065 4.85426 9.31396 0 0 0 9.79687 -2.58635 -5.49512 453.904 -43.2667 386.782 0 0 0 0.5 
381 1 1 4.29421 4.68654 8.63646 1 0 0 -10.977 4.57387 0.482261 8.30591 204.117 223.419 0 0 0 0.5 
574 2 2 3.37605 4.44707 9.00962 0 0 0 -7.63111 -17.4464 10.1064 569.26 663.409 274.944 0 0 0 0.5 
670 2 2 1.7014 4.10913 8.69719 -1 0 0 -43.6743 -7.25023 1.17253 -109.31 384.559 1430.82 0 0 0 0.5 
108 1 1 0.71573 2.56532 9.5908 -3 0 0 -118.219 -4.22898 4.18437 -3871.38 2740.4 -277.711 0 0 0 0.5 
849 2 2 3.12967 3.58374 9.3616 -1 0 0 -83.4761 22.3731 1.71768 -808.232 596.832 -1379.81 0 0 0 0.5 
661 2 2 0.966609 3.43475 8.63868 -1 0 -1 -47.6749 -7.12749 1.28331 -1707.18 1420.44 441.701 0 0 0 0.5 
870 2 2 2.80948 4.49904 8.19323 0 0 0 -24.1083 -1.88165 15.4742 -403.881 748.113 1308.24 0 0 0 0.5 
596 2 2 3.70457 2.11691 8.95229 -9 0 0 -188.455 14.0267 -11.121 478.031 -218.069 -228.344 0 0 0 0.5 
233 1 1 4.35208 3.34995 9.14313 -2 0 0 -80.5538 -1.12302 14.7687 -1006.32 2907.96 293.428 0 0 0 0.5 
354 1 1 3.33665 3.8159 8.35432 -1 0 0 -38.9407 -13.4092 5.12661 41.3159 -566.038 183.972 0 0 0 0.5 
722 2 2 3.71988 1.34865 9.02723 -6 0 0 -287.726 -18.4662 -5.01054 -1716.73 712.011 69.9116 0 0 0 0.5 
861 2 2 1.8718 4.99932 8.59365 1 0 0 17.4749 -6.2555 -13.6552 502.988 -744.257 402.496 0 0 0 0.5 
265 1 1 0.280477 2.53476 8.56164 -1 0 0 -121.96 14.6084 -3.92325 -1111.2 2100.9 457.512 0 0 0 0.5 
267 1 1 4.03826 0.286019 9.07739 -21 0 0 -447.193 21.4429 10.0829 -268.634 3363.12 -952.861 0 0 0 0.5 
241 1 1 3.4571 0.36346 8.6903 25 1 0 -419.657 16.0523 -21.9436 -2855.3 2798.63 -69.4244 0 0 0 0.5 
139 1 1 1.09126 3.50387 9.53126 -1 0 0 -42.2495 -17.1257 6.4944 -784.622 1528.48 -1527.6 0 0 0 0.5 
564 2 2 0.895474 4.40581 8.8961 0 0 0 -34.4193 5.72191 -1.89616 -1060.03 -250.1 108.717 0 0 0 0.5 
544 2 2 4.25278 3.76986 8.20958 -1 0 0 -42.9078 26.6384 2.20695 988.27 689.569 -344.03 0 0 0 0.5 
110 1 1 0.0449868 4.39594 8.47652 0 0 0 -31.2871 -6.0482 -13.2915 -474.98 1721.19 974.392 0 0 0 0.5 
195 1 1 4.65307 2.29341 8.39311 -5 0 0 -149.145 -23.836 -3.38845 623.06 -686.482 91.8721 0 0 0 0.5 
974 2 2 3.46822 2.80502 9.41273 47 1 0 -136.484 20.2288 12.1529 -31.701 -2452.79 2188.01 0 0 0 0.5 
598 2 2 0.798928 4.85651 9.69936 0 0 0 -4.72907 13.4013 2.77534 1331.66 -231.525 -755.386 0 0 0 0.5 
863 2 2 3.41497 1.91292 8.03826 -4 0 0 -218.141 16.4284 4.56907 447.502 2669.36 270.759 0 0 0 0.5 
224 1 1 3.90092 0.832249 9.70547 -12 0 0 -367.273 23.2308 26.5001 178.628 -734.385 3029.18 0 0 0 0.5 
272 1 1 3.09412 2.1276 9.93103 -22 0 -1 -199.454 -8.77387 -27.0949 639.577 318.529 851.875 0 0 0 0.5 
622 2 2 3.93287 4.73445 9.76531 -1 0 -1 -14.799 24.4209 4.814 446.885 678.506 -313.973 0 0 0 0.5 
387 1 1 4.22713 1.32005 8.35147 -12 0 -1 -273.212 34.5466 17.288 2610.59 318.291 330.888 0 0 0 0.5 
851 2 2 4.19488 0.757553 8.06263 -5 0 0 -378.645 -3.17874 -7.46354 1707.66 -2297.52 366.785 0 0 0 0.5 
292 1 1 0.157722 8.44501 0.688642 -23 -1 0 236.319 11.3529 -9.93303 2727.32 -1150.51 1533.28 0 0 0 0.5 
133 1 1 4.0712 9.01413 0.694557 6 0 1 345.638 -8.33586 -19.9307 2672.19 -4031.81 730.168 0 0 0 0.5 
85 1 1 1.04856 7.81581 1.23005 6 0 1 181.63 4.55914 -1.18453 -298.336 406.163 470.722 0 0 0 0.5 
207 1 1 3.7878 9.74973 0.938287 17 0 1 574.708 -23.8804 48.834 -2444.93 5322.65 980.627 0 0 0 0.5 
600 2 2 2.76704 5.34346 0.866284 1 0 1 35.4833 -20.2466 10.7593 94.0593 669.33 1843.23 0 0 0 0.5 
394 1 1 4.81739 5.29098 1.91076 1 0 0 28.9617 -17.0061 -6.40805 -203.855 1629.17 -1345.47 0 0 0 0.5 
248 1 1 -0.0696861 9.50943 0.84913 -24 -1 1 419.391 -23.737 -7.19112 801.906 -2647.07 -706.434 0 0 0 0.5 
769 2 2 1.70467 7.1643 0.688126 8 0 0 127.586 13.2095 11.0956 268.728 1257.36 539.391 0 0 0 0.5 
991 2 2 2.8502 8.67939 0.919809 7 0 0 305.191 -3.71857 6.80705 -2131.31 2553.34 145.812 0 0 0 0.5 
957 2 2 3.91847 7.93336 0.313956 8 0 0 233.679 -11.6052 1.31461 -3903.17 2463.41 -390.81 0 0 0 0.5 
126 1 1 0.661889 8.47635 1.28293 4 0 0 210.085 47.4582 23.0523 1146.14 1106 813.13 0 0 0 0.5 
75 1 1 3.20922 7.07746 0.102714 2 0 1 92.5925 30.0576 11.6022 -62.7123 -2032.12 -152.42 0 0 0 0.5 
321 1 1 3.13001 6.31969 1.0287 3 0 0 70.3973 -8.90157 -31.3287 29.1833 113.06 246.727 0 0 0 0.5 
857 2 2 2.31226 5.98492 0.530839 1 0 0 71.8535 -10.3628 -8.52781 1078.67 -489.028 -764.125 0 0 0 0.5 
37 1 1 0.76331 9.82345 1.05403 -30 -1 0 441.547 -14.4016 2.32661 3647.06 -5421.25 1286.75 0 0 0 0.5 
808 2 2 3.52023 7.98967 1.12223 6 0 0 239.799 -4.70977 -10.1088 605.12 -1387.81 324.279 0 0 0 0.5 
634 2 2 3.14517 8.0291 0.247163 6 0 0 219.101 -8.94133 -2.81569 -723.687 2173.3 1640.83 0 0 0 0.5 
160 1 1 4.12773 7.9233 1.32692 6 0 0 254.392 5.42136 27.7938 -750.043 4380.05 184.472 0 0 0 0.5 
132 1 1 2.94919 7.92087 1.6441 14 0 1 241.29 -3.97202 -0.904086 -2120.86 1473.72 542.748 0 0 0 0.5 
441 1 1 3.05239 7.10864 1.44669 4 0 1 145.139 1.64319 12.3474 3980.03 -3299.49 -3443.42 0 0 0 0.5 
541 2 2 4.60287 8.06085 0.606953 4 0 0 230.847 23.3971 7.83782 1330.25 -1533.43 260.252 0 0 0 0.5 
63 1 1 -0.0574656 8.31922 1.95275 9 0 0 246.405 -2.87251 28.7991 -340.21 292.592 2142.34 0 0 0 0.5 
285 1 1 1.44383 8.92892 0.388714 15 0 0 272.098 22.0766 -4.51276 -1.86581 89.7229 185.357 0 0 0 0.5 
473 1 1 0.593383 6.07345 1.4951 3 0 0 58.9074 -9.50959 12.6982 -99.2994 -1399.42 -42.732 0 0 0 0.5 
578 2 2 0.0224792 7.00307 0.630656 3 0 0 128.553 -11.2959 -4.4433 652.379 -566.871 468.973 0 0 0 0.5 
616 2 2 2.0135 5.09266 1.90168 0 0 0 5.84633 -1.96842 14.2103 -90.2595 221.311 75.5263 0 0 0 0.5 
102 1 1 1.32329 5.84667 1.13379 1 0 0 63.9038 1.91197 2.62255 992.099 -345.816 237.128 0 0 0 0.5 
91 1 1 3.79564 5.1682 1.56935 0 0 0 19.7466 -6.10476 -8.60364 -27.8734 -358.659 -267.021 0 0 0 0.5 
631 2 2 2.21773 5.99803 1.76162 1 0 0 74.1819 -4.42012 -19.3915 1515.31 -1806.92 -719.576 0 0 0 0.5 
532 2 2 4.30794 7.12204 0.682847 17 0 0 114.685 13.4528 -18.2758 1756.81 -15.8315 1048.71 0 0 0 0.5 
660 2 2 1.73419 7.91075 0.512134 5 0 1 172.23 61.6784 15.4212 -164.738 -690.525 -1145.99 0 0 0 0.5 
592 2 2 1.21911 5.56279 0.246545 2 0 0 29.951 3.84761 5.72147 -740.425 30.1268 456.612 0 0 0 0.5 
397 1 1 1.75892 6.45434 0.505637 2 0 0 69.5453 -10.0558 -2.04207 -1207.93 292.023 633.801 0 0 0 0.5 
99 1 1 3.69375 5.51719 0.639691 0 0 0 25.9876 4.24821 -13.9246 241.338 -99.7834 299.916 0 0 0 0.5 
980 2 2 4.37389 8.84246 1.58775 16 0 1 356.266 8.24454 -16.7319 -4145.17 1326.76 873.126 0 0 0 0.5 
833 2 2 3.38535 5.96954 1.867 1 0 0 27.3253 0.933523 1.60156 -414.287 -86.4867 -817.604 0 0 0 0.5 
71 1 1 1.79854 5.06451 0.18578 0 0 1 10.1791 -7.28244 -3.03706 444.566 -265.948 -449.753 0 0 0 0.5 
791 2 2 0.494746 6.81165 1.28837 3 0 0 127.498 6.45469 14.9557 852.624 90.0029 -170.209 0 0 0 0.5 