ITEM: TIMESTEP
17500
ITEM: NUMBER OF ATOMS
1000
ITEM: BOX BOUNDS xy xz yz pp pp pp
0 10 0
0 10 0
-0 10 0
ITEM: ATOMS id type type x y z ix iy iz vx vy vz fx fy fz omegax omegay omegaz radius 
510 2 2 0.91028 3.08506 1.30349 -24 0 0 -188.516 6.31777 3.94077 -641.063 561.801 -147.561 0 0 0 0.5 
674 2 2 4.11996 4.14943 0.0883166 -7 0 0 -9.67822 -29.4931 5.67036 -4735.32 95.3668 -1657.92 0 0 0 0.5 
795 2 2 2.23904 4.09337 1.62246 -45 0 0 -101.532 11.7706 -9.85393 -637.026 -775.945 209.468 0 0 0 0.5 
559 2 2 4.43555 1.27984 0.287181 -66 0 1 -308.267 -20.5098 9.58777 -35.7239 273.713 -324.106 0 0 0 0.5 
490 1 1 3.62103 0.964827 1.03787 -54 0 0 -386.567 4.48804 1.80479 5166.08 -1724.77 724.181 0 0 0 0.5 
680 2 2 2.62642 0.188177 1.85525 -43 0 0 -482.824 -1.82618 -2.04275 1.94131 69.9685 166.189 0 0 0 0.5 
562 2 2 0.260441 0.0491406 1.39372 64 1 1 -495.1 4.3517 15.7617 -834.129 1347.31 944.301 0 0 0 0.5 
566 2 2 2.28857 3.3734 0.518609 88 1 1 -174.944 6.56938 -10.8203 -1116.64 -242.07 -225.467 0 0 0 0.5 
346 1 1 0.538698 1.34263 1.80288 72 1 0 -329.159 -2.45951 -8.09364 -353.118 -678.933 -555.158 0 0 0 0.5 
138 1 1 1.05526 2.21358 1.64186 -18 0 1 -281.208 -2.32275 4.93335 -289.92 -98.8533 1710.59 0 0 0 0.5 
519 2 2 1.00404 2.02225 0.232957 -22 0 0 -296.989 -3.25066 8.21487 3737.82 -1221.85 -234.662 0 0 0 0.5 
267 1 1 2.7636 0.956455 1.46267 -67 0 1 -346.545 0.830636 2.22433 -1865.44 -626.567 66.4934 0 0 0 0.5 
307 1 1 0.563065 2.18311 0.968608 78 1 0 -256.419 -9.32434 6.26351 -1840.12 -2079.21 491.563 0 0 0 0.5 
531 2 2 4.73442 2.73423 0.243897 -24 0 0 -180.684 -20.0274 3.17398 -592.138 -123.217 448.018 0 0 0 0.5 
9 1 1 0.600786 1.08581 0.415404 92 1 0 -364.371 4.22098 -7.4262 -421.446 745.917 1672.85 0 0 0 0.5 
538 2 2 1.32377 3.35062 0.504395 102 1 0 -190.309 3.74247 10.2687 499.724 1472.34 -1350.13 0 0 0 0.5 
66 1 1 1.33883 4.92126 1.03547 -13 0 1 -30.9432 3.39653 -11.0092 -488.57 378.687 190.323 0 0 0 0.5 
159 1 1 0.0258675 1.46413 0.941893 79 1 0 -349.401 11.6729 37.6211 1143.11 1695.44 -812.272 0 0 0 0.5 
871 2 2 2.31784 4.7249 0.390404 -10 0 0 -29.3566 24.5989 -11.9774 1338.16 -340.729 657.115 0 0 0 0.5 
416 1 1 4.38568 0.404795 0.98074 -31 0 0 -385.344 -12.9814 -14.827 -734.711 142.827 140.776 0 0 0 0.5 
52 1 1 2.26716 0.379868 0.571181 106 1 1 -396.12 -11.6416 9.13018 0 0 0 0 0 0 0.5 
280 1 1 2.54362 1.82228 1.13997 -39 0 0 -294.657 7.83489 -5.20755 413.443 817.3 643.506 0 0 0 0.5 
513 2 2 4.48017 1.13572 1.73135 -32 0 0 -335.38 -23.8249 -23.5512 -1054.74 -489.341 -448.81 0 0 0 0.5 
882 2 2 2.03282 3.18211 1.4146 -14 0 0 -187.878 -4.41333 0.988637 373.318 1259.56 -103.1 0 0 0 0.5 
789 2 2 1.89008 2.02187 1.51507 -49 0 0 -287.112 -4.62537 12.3349 -361.675 -195.69 1072.17 0 0 0 0.5 
461 1 1 1.21413 1.02494 1.11767 89 1 0 -372.127 2.08212 -0.89537 320.828 -18.0006 331.133 0 0 0 0.5 
335 1 1 1.58119 2.49412 0.830815 -35 0 1 -251.267 12.8921 -2.49951 -351.784 -1979.14 -524.435 0 0 0 0.5 
783 2 2 2.14648 4.08322 0.828014 -15 0 1 -120.231 8.28744 -4.54039 -714.492 2089.83 -1135.79 0 0 0 0.5 
77 1 1 1.7552 0.903092 1.91551 62 1 1 -371.5 -8.07805 -0.904658 109.858 -24.7406 161.993 0 0 0 0.5 
310 1 1 1.65192 4.96522 0.104247 -10 0 1 -58.1041 -1.01944 -10.1444 -577.149 813.071 -1826.57 0 0 0 0.5 
770 2 2 3.95458 3.01809 1.46341 -31 0 0 -182.081 -2.14512 3.27576 1562.18 -1025.15 -321.381 0 0 0 0.5 
308 1 1 3.37463 2.20898 1.28583 -13 0 1 -294.943 21.422 4.76602 -225.768 954.121 -1142.08 0 0 0 0.5 
857 2 2 0.419765 4.10183 0.191884 2 0 0 -106.167 17.7444 5.4632 283.537 240.71 38.3795 0 0 0 0.5 
380 1 1 0.218059 4.06765 1.05998 -22 0 1 -122.306 11.1852 10.1111 903.147 23.7564 336.922 0 0 0 0.5 
318 1 1 4.21266 2.11566 0.848761 -25 0 1 -273.588 7.69506 10.9276 -361.325 40.2371 188.445 0 0 0 0.5 
1000 2 2 3.21582 0.0568175 0.096782 -43 0 0 -424.702 -15.2322 0.653239 -3128.57 3562.43 -292.659 0 0 0 0.5 
228 1 1 3.87537 1.73701 1.84679 -53 0 1 -320.287 3.85696 -1.51821 661.676 -737.681 -1211.27 0 0 0 0.5 
526 2 2 2.85047 1.39541 0.575628 -41 0 1 -301.046 -5.09212 3.93883 -2283.81 1080.51 -2370.67 0 0 0 0.5 
670 2 2 3.78174 3.94369 0.923469 -5 0 1 -101.219 -4.12352 -9.09459 1112.88 -502.057 -531.627 0 0 0 0.5 
650 2 2 0.759949 4.40232 1.8047 -10 0 0 -88.926 2.29098 1.40081 -1123.99 729.213 1738.29 0 0 0 0.5 
579 2 2 3.06399 4.26925 1.26303 -19 0 0 -99.039 -5.71089 1.82767 -122.853 1153.42 -426.87 0 0 0 0.5 
533 2 2 0.174102 2.80644 0.629277 107 1 0 -206.993 14.2576 0.378457 1797.76 -373.725 -594.847 0 0 0 0.5 
677 2 2 1.20957 4.0343 1.20306 -12 0 1 -110.606 -4.06439 -4.5296 866.528 343.013 -339.947 0 0 0 0.5 
966 2 2 2.66886 2.62423 0.616052 -8 0 1 -217.363 -4.15181 -0.0443684 955.56 -1366.53 -28.6938 0 0 0 0.5 
62 1 1 3.14567 3.35739 1.58625 -23 0 0 -165.755 -14.2972 -28.8264 -2041.64 -109.859 187.552 0 0 0 0.5 
106 1 1 4.91243 3.16427 1.4426 -20 0 0 -191.551 14.1857 -7.06173 656.361 213.372 271.342 0 0 0 0.5 
40 1 1 4.95506 3.81594 0.207671 -7 0 1 -71.816 -13.4185 12.9707 2762.64 -1277.91 1149.34 0 0 0 0.5 
232 1 1 4.55583 1.01612 2.5861 -23 0 1 -381.648 5.83392 1.33845 -736.115 1259.69 -395.107 0 0 0 0.5 
804 2 2 2.11087 1.25851 2.81289 -74 0 0 -336.389 -7.80346 -2.04868 -100.404 114.833 -239.101 0 0 0 0.5 
530 2 2 0.880191 2.65966 2.96196 -13 0 1 -215.573 -8.80086 -1.2757 -194.62 -1096.84 505.807 0 0 0 0.5 
157 1 1 0.419446 1.75613 3.2768 -12 0 0 -253.257 -22.6829 8.4034 -165.668 -14.6013 -604.438 0 0 0 0.5 
429 1 1 1.32754 3.5967 3.18091 -17 0 0 -112.677 6.83902 14.9544 232.006 -20.6556 63.8254 0 0 0 0.5 
304 1 1 3.50458 0.40075 2.82018 -34 0 0 -442.784 -3.93433 -13.04 112.489 -794.573 411.287 0 0 0 0.5 
881 2 2 4.35257 3.98728 2.31662 -3 0 0 -91.2746 -26.5806 -6.22454 -1570.66 202.734 -424.134 0 0 0 0.5 
392 1 1 2.01147 3.90227 2.30503 -14 0 0 -78.6401 -16.2368 -0.705884 -2398.02 917.438 1364.67 0 0 0 0.5 
823 2 2 2.29769 1.00998 3.77362 91 1 -1 -401.291 0.0845521 3.17212 1181.47 8.99178 728.419 0 0 0 0.5 
749 2 2 2.04791 0.319824 3.1993 -89 0 1 -454.203 -6.61907 11.5777 -151.547 158.798 -30.4432 0 0 0 0.5 
764 2 2 2.21333 3.93585 3.2014 -39 0 1 -105.064 5.13707 33.1593 383.605 -3036.39 -1420.55 0 0 0 0.5 
536 2 2 0.0812191 1.82514 2.35041 -79 0 0 -308.411 1.5707 23.3265 -387.711 520.898 600.412 0 0 0 0.5 
101 1 1 2.5602 2.09396 2.17493 -14 0 0 -273.799 1.87027 1.4464 316.279 34.0243 311.44 0 0 0 0.5 
759 2 2 1.35603 3.03661 2.162 -20 0 0 -200.419 7.01977 5.17117 158.156 -38.5865 438.024 0 0 0 0.5 
72 1 1 3.75997 1.89947 2.72443 57 1 0 -300.872 -7.16341 -23.7527 822.081 -841.912 1465.15 0 0 0 0.5 
730 2 2 1.3248 1.98522 2.47574 -67 0 0 -272.151 -12.1153 0.0082559 1158.88 -1577.33 -137.927 0 0 0 0.5 
15 1 1 2.72229 1.00358 2.39017 -39 0 1 -337.857 -6.33104 -6.96914 1555.66 -790.838 -21.3491 0 0 0 0.5 
907 2 2 2.3966 1.84585 3.58356 -21 0 0 -324.651 18.8134 -9.6768 -482.571 -154.07 162.115 0 0 0 0.5 
619 2 2 1.61133 2.63959 3.34926 -14 0 1 -200.859 2.40062 15.7012 544.858 -197.058 498.765 0 0 0 0.5 
962 2 2 0.251812 0.526958 3.05327 -17 0 0 -467.173 6.11806 -4.80976 438.365 -268.12 -188.795 0 0 0 0.5 
807 2 2 2.20163 3.13466 2.60615 -18 0 0 -185.837 -22.8592 -3.86797 37.6665 -517.237 2284.03 0 0 0 0.5 
485 1 1 1.56085 1.4616 3.30407 -44 0 1 -339.22 -10.511 3.01439 -3087.8 2250.79 331.695 0 0 0 0.5 
425 1 1 0.874271 0.0362446 2.17031 -49 0 0 -495.159 5.8414 18.6303 -235.107 -336.591 -1321.82 0 0 0 0.5 
243 1 1 2.95424 3.5778 3.6412 -21 0 0 -95.1891 -11.675 7.1784 167.75 -367.139 304.343 0 0 0 0.5 
980 2 2 3.77558 0.124094 2.04675 54 1 1 -510.458 14.8531 -29.3229 -365.982 709.346 -3147.51 0 0 0 0.5 
298 1 1 4.54112 2.93811 3.49615 -52 0 0 -178.488 -3.61697 -11.7651 424.769 -350.99 515.013 0 0 0 0.5 
917 2 2 0.809839 4.35737 2.68089 14 0 0 -13.0747 -18.5356 30.1216 1189.57 -1964.45 117.359 0 0 0 0.5 
961 2 2 1.36748 4.33505 3.88537 3 0 0 -57.6531 -5.41299 -4.14466 1112.85 250.883 -1455.85 0 0 0 0.5 
354 1 1 2.97395 4.88474 3.10519 -13 0 1 5.33558 -9.70429 10.7316 158.503 -509.797 -627.085 0 0 0 0.5 
832 2 2 2.97272 3.28141 2.72004 -23 0 0 -166.008 8.32327 6.63771 490.297 -795.599 188.226 0 0 0 0.5 
6 1 1 3.06513 4.65233 2.3091 -8 0 0 -28.9139 7.38363 -10.2372 1272.09 -1215.26 -10.2516 0 0 0 0.5 
596 2 2 3.21419 2.51513 3.13999 -34 0 1 -229.667 -8.46532 24.5857 -957.779 733.013 1154.03 0 0 0 0.5 
787 2 2 3.83571 3.80004 3.43956 -31 0 1 -90.6788 -26.8142 0.500109 51.5941 -952.493 -1307.6 0 0 0 0.5 
682 2 2 4.81598 4.15806 3.03749 -7 0 0 -88.8773 21.3948 -3.61196 -1068 1420.75 -368.717 0 0 0 0.5 
231 1 1 0.438485 3.51984 3.01963 -30 0 1 -118.798 -11.3922 -2.97926 -1425.53 3325.99 -450.016 0 0 0 0.5 
864 2 2 2.97931 3.93645 2.17469 -20 0 1 -104.947 0.262296 2.0267 1480 -386.31 -738.492 0 0 0 0.5 
755 2 2 0.257866 2.98647 2.01873 -36 0 0 -181.537 -0.447951 9.36002 -581.387 -2950.66 -1050.48 0 0 0 0.5 
974 2 2 0.023626 4.21527 3.54776 148 1 1 -90.5695 15.9705 -4.72279 12.0831 -20.2549 -15.3822 0 0 0 0.5 
95 1 1 1.79088 4.60122 2.75424 -6 0 0 -14.1895 14.4844 -3.45434 1935.86 -487.586 -2282.99 0 0 0 0.5 
262 1 1 3.07564 0.650888 3.578 -62 0 0 -410.526 -8.78095 -9.88548 -1947.39 -181.964 840.488 0 0 0 0.5 
625 2 2 0.036336 4.70266 2.43587 6 0 0 7.48411 -22.1466 17.1549 1359.48 -1484.08 -228.705 0 0 0 0.5 
137 1 1 4.02405 0.685366 3.62317 -88 0 0 -443.164 15.3355 -16.9591 -756.76 1581.2 -1996.63 0 0 0 0.5 
154 1 1 4.06315 4.87895 3.17865 2 0 0 -33.367 -1.61136 -2.43981 220.769 -1372.05 267.818 0 0 0 0.5 
456 1 1 4.28051 4.86265 2.04223 -3 0 0 -17.2164 -3.54611 -13.1923 157.914 -452.057 287.013 0 0 0 0.5 
250 1 1 4.55389 1.98553 3.67593 -16 0 0 -251.097 -19.0602 -26.2911 -1010.87 831.769 -476.415 0 0 0 0.5 
366 1 1 4.69557 3.83971 3.75685 -8 0 0 -90.877 -15.9843 4.43369 280.316 -460.574 256.981 0 0 0 0.5 
170 1 1 4.7264 0.324905 3.92578 51 1 0 -521.867 22.8609 50.2649 1848.4 -1470.92 -1007.24 0 0 0 0.5 
421 1 1 4.90784 0.41619 2.97735 59 1 0 -411.095 -11.7911 10.2724 -2544.73 4345.84 546.851 0 0 0 0.5 
121 1 1 4.93667 2.35966 2.51497 75 1 0 -292.554 16.4869 0.192511 -660.395 798.006 -874.748 0 0 0 0.5 
460 1 1 1.71393 3.58233 4.10485 -2 0 0 -91.2882 -28.5038 -8.02698 -1484.26 2767.57 -815.213 0 0 0 0.5 
476 1 1 0.588561 1.62644 5.98759 -1 0 0 -336.007 0.611519 18.8693 -1136.29 -25.537 -200.194 0 0 0 0.5 
389 1 1 3.79008 2.53451 5.00887 -20 0 0 -222.019 -8.6958 -16.1779 1341.59 21.7908 164.105 0 0 0 0.5 
932 2 2 2.1027 2.82955 4.326 -11 0 0 -192.35 -5.27908 14.5571 -2202.88 -1053.22 1613.15 0 0 0 0.5 
644 2 2 4.73339 3.47533 5.26069 123 1 0 -161.47 4.16054 -16.3046 548.001 -1348.87 0.137811 0 0 0 0.5 
714 2 2 2.64488 3.82229 4.44693 131 1 0 -82.1234 -9.96298 16.0764 95.5631 -1435.76 731.168 0 0 0 0.5 
975 2 2 1.48919 0.776226 4.59632 68 1 1 -434.279 -14.9984 7.80633 -833.671 2669.83 998.515 0 0 0 0.5 
418 1 1 0.807833 0.815215 5.47685 -39 0 0 -404.73 -6.17711 4.06507 -609.166 -145.117 -455.35 0 0 0 0.5 
869 2 2 2.1467 3.32824 5.12826 -21 0 0 -120.468 -10.6375 14.454 -1858.39 2329.72 69.6357 0 0 0 0.5 
785 2 2 0.997113 1.9644 5.05512 109 1 0 -291.742 7.14555 32.0443 -534.555 315.331 291.907 0 0 0 0.5 
750 2 2 1.69422 0.707685 5.89042 -44 0 0 -407.055 -3.60935 -16.5304 -163.964 -1781.12 1367.67 0 0 0 0.5 
188 1 1 3.28261 4.37899 5.08914 11 0 0 -27.1005 -8.65809 -21.9463 -1142.11 3198.28 508.858 0 0 0 0.5 
254 1 1 2.23898 4.49223 4.73308 3 0 0 -53.3262 19.8906 -8.03324 -429.181 1324.43 244.198 0 0 0 0.5 
522 2 2 3.71284 4.44781 4.0056 -8 0 0 -19.2395 -21.4345 6.86239 320.197 247.409 -266.486 0 0 0 0.5 
486 1 1 2.175 0.498014 4.44321 54 1 1 -428.351 -26.5105 -12.6563 -551.164 -1079.29 -752.291 0 0 0 0.5 
396 1 1 2.66577 1.5752 5.09713 -15 0 0 -290.225 -0.880821 -9.97164 -390.581 634.488 -1263.56 0 0 0 0.5 
583 2 2 0.619888 1.82928 4.18086 -27 0 1 -247.896 -31.3159 14.1824 775.259 -2059.21 -99.6225 0 0 0 0.5 
75 1 1 1.77979 1.57677 4.85145 36 1 1 -291.084 1.45749 15.3551 -795.578 -2979.46 181.907 0 0 0 0.5 
679 2 2 1.54957 4.38656 5.33692 -13 0 0 -59.9307 6.85612 -8.5613 -308.081 755.631 566.487 0 0 0 0.5 
369 1 1 3.21608 3.32913 5.83344 -19 0 0 -112.403 -12.4358 8.41299 1930.9 -1425.28 -1593 0 0 0 0.5 
358 1 1 0.015363 3.38117 4.1539 -10 0 0 -138.113 -9.11679 4.68895 191.13 -241.264 -91.6005 0 0 0 0.5 
420 1 1 4.21983 3.60155 5.75269 6 0 0 -159.419 3.63839 2.79502 -1395.88 2446.72 1055.72 0 0 0 0.5 
18 1 1 -0.0211749 3.56179 5.27517 -11 0 0 -112.074 2.671 -29.5922 -540.442 484.105 -790.347 0 0 0 0.5 
7 1 1 3.28434 1.77964 4.30118 -16 0 0 -276.174 -8.48837 -5.05588 304.822 1582.33 -64.5757 0 0 0 0.5 
12 1 1 2.66267 2.42534 4.19579 -47 0 0 -236.019 8.94931 5.91365 2979.23 -1480.56 -345.41 0 0 0 0.5 
529 2 2 0.148096 4.89822 4.32906 -4 0 0 21.3013 -14.7506 -7.42659 -1060.96 777.364 -2377.75 0 0 0 0.5 
200 1 1 3.86843 1.34512 5.04838 -76 0 0 -338.249 6.58938 -1.26361 -3533.98 610.738 -2928.64 0 0 0 0.5 
902 2 2 0.435014 3.15315 5.94231 64 1 0 -138.933 -12.6569 -24.1067 -665.465 647.15 -2111.96 0 0 0 0.5 
498 1 1 3.24747 1.3228 5.71663 108 1 0 -336.064 -6.01169 1.19624 389.477 1673.25 1361.1 0 0 0 0.5 
98 1 1 3.60762 3.4624 4.97528 5 0 0 -174.011 15.7763 -5.47815 1745.24 -3628.76 -304.104 0 0 0 0.5 
347 1 1 0.844428 4.3742 4.7308 -2 0 0 -68.6763 -9.66544 -1.134 2729.96 -1460.29 397.919 0 0 0 0.5 
626 2 2 0.886479 3.30937 4.91078 3 0 -1 -115.68 -13.2884 -30.9463 0 0 0 0 0 0 0.5 
646 2 2 4.39974 2.35741 5.61348 -23 0 0 -222.158 5.5672 8.3694 329.201 -468.303 572.835 0 0 0 0.5 
543 2 2 2.80599 0.42924 4.84757 -52 0 0 -426.86 10.3309 -3.8303 711.58 1462.88 481.531 0 0 0 0.5 
147 1 1 0.0878768 2.37138 4.31851 -56 0 0 -204.616 2.85681 5.3835 -1855.13 1890.31 480.021 0 0 0 0.5 
658 2 2 2.8609 2.8051 5.07775 -9 0 0 -159.29 -10.6641 28.1187 -1196.64 -1287.33 -1147.75 0 0 0 0.5 
734 2 2 3.42366 2.23729 5.92178 -21 0 0 -252.228 1.36957 -2.42612 -234.012 -849.287 -769.225 0 0 0 0.5 
548 2 2 3.67199 0.683819 5.95934 -43 0 0 -380.4 -16.0442 30.2662 92.4432 -167.627 -168.962 0 0 0 0.5 
493 1 1 1.52168 1.97505 4.07148 81 1 0 -259.118 2.66796 19.1853 712.643 924.246 -1749.56 0 0 0 0.5 
259 1 1 3.59112 0.845713 4.39086 -48 0 -1 -430.747 -0.223284 0.360566 1262.92 -1883.82 1242.93 0 0 0 0.5 
278 1 1 3.82079 0.342774 5.27101 81 1 -1 -498.986 12.1037 -11.7371 -2759.06 1235.59 -679.468 0 0 0 0.5 
608 2 2 1.90112 3.87734 5.96743 -11 0 0 -57.5602 -19.7674 -22.0398 -2268.84 304.599 -723.803 0 0 0 0.5 
725 2 2 4.23533 3.19129 4.38249 -12 0 0 -176.326 -0.806033 -7.67445 -268.202 -78.7346 -301.424 0 0 0 0.5 
217 1 1 4.31003 4.49061 5.26462 -12 0 0 -41.1661 -20.7068 -13.6438 -1902.22 2013.62 1544.9 0 0 0 0.5 
890 2 2 4.51882 2.22244 4.62818 -10 0 0 -235.283 -7.58018 -19.0956 1452.97 -691.117 -1049.02 0 0 0 0.5 
708 2 2 4.5822 1.19724 5.40749 -61 0 0 -388.556 18.6267 -9.82966 2222.08 1115.78 -1222.53 0 0 0 0.5 
752 2 2 4.71688 4.10205 4.6216 8 0 -1 -68.0535 1.87452 4.41357 -1244.01 378.288 -1802.81 0 0 0 0.5 
399 1 1 4.74625 0.533238 5.61744 -51 0 -1 -477.289 9.3747 -15.506 2120.23 1201.94 -67.3915 0 0 0 0.5 
251 1 1 2.14238 3.92171 7.18867 -15 0 0 -80.428 8.5574 -27.046 2543.02 -293.944 862.83 0 0 0 0.5 
415 1 1 4.72342 4.01049 7.9679 0 0 -1 -87.1014 13.9664 -1.77045 -822.214 489.341 514.463 0 0 0 0.5 
805 2 2 0.707771 0.642952 6.72926 -48 0 -1 -391.097 -23.4827 -6.04857 -3715.38 4611.85 1768.75 0 0 0 0.5 
411 1 1 2.04767 2.58106 6.94655 -25 0 0 -259.301 4.99997 -25.2218 -220.915 3.05056 304.828 0 0 0 0.5 
213 1 1 1.45607 1.31957 6.83481 65 1 0 -366.411 2.10316 -14.8377 3174.99 -422.817 -672.616 0 0 0 0.5 
83 1 1 2.59506 0.619404 7.20134 55 1 0 -385.897 -2.95566 -0.826546 353.56 -22.6192 26.431 0 0 0 0.5 
351 1 1 4.56159 3.45252 7.3015 -13 0 0 -184.141 19.4039 4.70411 -1734.92 563.265 100.872 0 0 0 0.5 
79 1 1 4.34641 1.95456 7.97821 -30 0 0 -332.541 16.2203 1.72212 -389.483 112.491 -386.561 0 0 0 0.5 
148 1 1 2.6222 3.66232 6.32624 -14 0 0 -88.4218 -10.6663 -13.9703 -2885.09 1693.43 591.241 0 0 0 0.5 
484 1 1 0.178316 4.74594 6.01169 26 0 0 -37.5135 5.2791 0.560452 872.051 -911.807 -953.84 0 0 0 0.5 
951 2 2 0.960534 2.71269 6.38642 -14 0 0 -245.415 13.8499 52.9221 4952.51 -1426.01 762.559 0 0 0 0.5 
580 2 2 1.74056 0.674071 7.13746 75 1 0 -408.592 -26.9464 8.8905 -883.064 2135.76 1569.16 0 0 0 0.5 
383 1 1 1.44418 2.5146 7.6453 -17 0 0 -221.188 -14.9329 2.66251 2436.17 -67.6889 -282.884 0 0 0 0.5 
226 1 1 2.40505 1.55982 6.10803 -40 0 0 -329.367 1.18354 -0.62714 -586.571 165.035 272.525 0 0 0 0.5 
21 1 1 1.71597 1.56243 7.67596 -63 0 0 -322.188 6.6186 -5.49245 -290.78 -2765.21 -1000.84 0 0 0 0.5 
201 1 1 0.735956 1.54748 7.05196 -39 0 0 -329.026 7.21324 -11.7539 -3497.89 -69.9126 1083.51 0 0 0 0.5 
375 1 1 4.25361 0.291425 6.34809 40 1 -1 -380.33 -37.6171 35.0098 -4074.68 801.968 4091.99 0 0 0 0.5 
314 1 1 2.66131 1.7924 7.78522 -32 0 0 -324.477 -5.32982 -1.98278 -170.361 1625.16 -991.095 0 0 0 0.5 
410 1 1 1.39523 1.81551 6.24478 -7 0 0 -326.796 37.2229 -25.3861 1009.48 786.769 -293.497 0 0 0 0.5 
67 1 1 4.82349 1.30853 7.90094 90 1 0 -355.761 -4.23024 -6.99337 -2231.4 30.7019 -1866.1 0 0 0 0.5 
413 1 1 2.35447 3.60733 7.86501 -33 0 -1 -142.416 23.3081 6.30623 497.117 41.6689 1305.62 0 0 0 0.5 
671 2 2 1.51408 4.1109 6.75539 5 0 0 -56.5318 -20.3001 -1.44415 -2344.35 0.945066 -489.28 0 0 0 0.5 
134 1 1 2.78727 2.62486 7.45353 -25 0 0 -242.474 24.5017 -7.29232 153.098 -1127.74 -212.234 0 0 0 0.5 
326 1 1 3.15605 3.46268 6.7461 3 0 0 -136.866 -2.47464 7.43817 -143.611 -1038.67 1189.23 0 0 0 0.5 
288 1 1 1.38285 3.8143 7.61813 5 0 -1 -84.5571 -29.6734 18.358 1742.03 -7.0346 -3076.29 0 0 0 0.5 
860 2 2 3.4813 3.48579 7.50234 -5 0 0 -175.564 15.1892 12.38 911.446 64.7564 2119.18 0 0 0 0.5 
237 1 1 3.86131 0.721516 7.79119 -21 0 0 -383.318 -5.28514 -13.7049 98.9189 -33.641 354.665 0 0 0 0.5 
33 1 1 3.64747 1.66525 7.47857 92 1 0 -331.195 -15.2843 21.168 -562.56 -657.969 423.22 0 0 0 0.5 
806 2 2 0.173317 2.46998 6.85481 -49 0 0 -202.744 -45.8573 4.58703 -2307.64 -1216.43 1302.52 0 0 0 0.5 
862 2 2 0.807987 4.34771 7.83097 -34 0 0 -57.7912 9.61841 4.73212 -680.416 -450.038 -711.685 0 0 0 0.5 
521 2 2 3.96813 3.15814 6.60431 1 0 0 -158.278 4.2411 -1.86414 461.027 1405.69 -167.767 0 0 0 0.5 
478 1 1 4.6937 4.70433 6.89608 14 0 0 0.610299 -11.6735 18.4467 -181.953 -1327.9 -1504.23 0 0 0 0.5 
896 2 2 1.59712 4.94668 6.97113 -2 0 -1 3.54924 -1.38196 -6.222 -1972.11 -373.728 -1225.08 0 0 0 0.5 
741 2 2 4.29174 1.56442 7.0515 -74 0 0 -340.527 -1.00079 -0.549803 907.392 1390 274.343 0 0 0 0.5 
446 1 1 0.656903 2.92032 7.66666 -16 0 0 -162.914 -18.7985 11.9568 -2644.86 1440.25 1038.58 0 0 0 0.5 
51 1 1 3.15652 4.62652 6.78327 8 0 0 12.3344 -9.34674 8.34272 -1154.64 -42.7839 1502.95 0 0 0 0.5 
47 1 1 3.24801 2.04805 6.89589 -29 0 0 -278.065 -7.16333 -5.66837 -14.4256 -39.6555 -1459.11 0 0 0 0.5 
611 2 2 4.6428 4.38508 6.09639 -10 0 0 -54.2127 6.6905 -3.91773 -416.893 -1126.77 -646.396 0 0 0 0.5 
843 2 2 0.163739 4.80726 7.3345 9 0 0 -19.0873 15.8576 -8.89162 -1645.99 1043.4 -995.136 0 0 0 0.5 
613 2 2 0.0660671 3.22005 7.02796 -18 0 0 -143.172 -5.04025 12.541 1648.04 -218.077 -2082.37 0 0 0 0.5 
94 1 1 1.00462 4.42578 6.16266 -17 0 0 -44.9987 1.88519 9.9037 112.99 271.716 -1375.29 0 0 0 0.5 
511 2 2 2.74676 2.63094 6.40036 -15 0 -1 -240.754 29.5141 5.91664 465.985 1553.86 -867.101 0 0 0 0.5 
970 2 2 3.57244 0.620418 6.94378 86 1 -1 -429.706 -13.3606 -12.4339 -10.2769 -286.078 1607.01 0 0 0 0.5 
439 1 1 4.75529 3.05429 6.24836 -11 0 0 -150.522 1.52808 -0.545855 -2590.59 1312.45 -78.6096 0 0 0 0.5 
835 2 2 0.521264 4.00125 7.05695 -8 0 0 -63.8476 -1.6013 -22.5071 -436.06 -1452.68 210.938 0 0 0 0.5 
65 1 1 3.93514 4.48686 6.23193 -1 0 0 -27.8483 -18.3824 10.0154 -1860.66 -412.262 59.7204 0 0 0 0.5 
206 1 1 4.0768 2.25404 6.57501 -37 0 0 -258.396 21.9893 8.26496 54.7488 -899.218 -408.986 0 0 0 0.5 
17 1 1 4.35881 1.57246 6.09966 -50 0 0 -319.022 -20.7706 0.707633 -764.527 1674.68 1979.12 0 0 0 0.5 
236 1 1 4.67171 0.922075 7.02766 -46 0 0 -403.242 -24.2379 0.748112 247.54 -2192.86 1605.7 0 0 0 0.5 
123 1 1 4.64251 2.58929 7.46093 -36 0 0 -225.336 7.66746 27.0366 -1986.2 2446.12 2698.42 0 0 0 0.5 
584 2 2 1.27633 2.34892 9.33153 -29 0 0 -261.882 -2.10139 -0.856069 1474.28 -1098.05 -901.678 0 0 0 0.5 
260 1 1 1.87673 1.48239 8.52497 -60 0 0 -315.111 -16.8032 -0.501421 -1148.94 444.436 -29.4991 0 0 0 0.5 
263 1 1 1.96893 3.26299 8.96811 -14 0 0 -196.278 17.1876 2.78167 1567.06 1492.89 848.672 0 0 0 0.5 
790 2 2 1.22525 0.164614 9.50473 -51 0 0 -439.691 -17.0378 26.5405 -300.998 3132.14 -1582.28 0 0 0 0.5 
42 1 1 4.34812 2.4245 8.72296 -43 0 0 -246.774 3.35833 -8.68889 577.295 -1265.74 -362.111 0 0 0 0.5 
765 2 2 0.658757 0.774508 9.52487 75 1 -1 -420.876 -0.385037 28.6635 985.75 -2339.71 -2085 0 0 0 0.5 
800 2 2 1.48999 1.56217 9.54874 96 1 -1 -316.974 -17.8773 -3.8087 -59.8807 -1222.27 -1.16187 0 0 0 0.5 
662 2 2 0.768299 2.13024 8.29551 -17 0 0 -280.84 22.2533 -20.2454 802.183 -237.172 -1638.3 0 0 0 0.5 
311 1 1 1.26346 3.1727 8.31303 -1 0 0 -130.524 -4.32038 -0.0559581 -4047.6 3312.04 -3102.97 0 0 0 0.5 
516 2 2 0.492893 2.54179 9.62601 -66 0 0 -212.123 6.38051 19.3214 -1458.3 1075.85 -937.497 0 0 0 0.5 
776 2 2 0.179186 1.30909 9.2593 -41 0 0 -357.674 6.30217 19.0148 -2235.52 2215.26 -2040.99 0 0 0 0.5 
826 2 2 2.43356 2.97812 9.70162 85 1 -1 -190.345 -0.928626 -12.8573 647.152 -621.008 256.218 0 0 0 0.5 
428 1 1 3.45783 1.31397 9.01618 -27 0 0 -327.334 -4.95612 12.3494 769.733 -334.362 556.356 0 0 0 0.5 
23 1 1 0.170087 0.0778192 8.15414 -38 0 0 -478.196 -18.2237 -17.5918 -1001.53 654.471 -49.8876 0 0 0 0.5 
921 2 2 0.410107 2.03167 9.00913 -36 0 0 -275.847 5.50415 -13.7104 -242.774 40.7218 1382.56 0 0 0 0.5 
87 1 1 2.36598 4.11155 8.78982 4 0 0 -67.3948 7.74814 7.34147 53.0362 -1765.48 689.613 0 0 0 0.5 
846 2 2 1.73824 2.37629 8.60381 -13 0 0 -272.731 19.6535 -22.2545 2880.02 -4266.93 1699.15 0 0 0 0.5 
43 1 1 3.94924 0.823891 9.48172 -39 0 0 -345.052 -7.29243 14.2973 2176.76 -1371.29 864.078 0 0 0 0.5 
126 1 1 2.54418 1.48924 9.03779 60 1 -1 -323.856 1.45005 11.9225 431.902 165.696 963.731 0 0 0 0.5 
903 2 2 1.34965 3.91438 9.73256 -15 0 -1 -133.207 1.05543 0.977891 721.525 -951.622 1476.53 0 0 0 0.5 
229 1 1 2.18265 1.16641 9.95848 -27 0 0 -319.378 -18.0193 14.6931 -1233.3 61.7541 443.318 0 0 0 0.5 
923 2 2 1.72923 0.180585 8.74009 21 1 -1 -448.88 1.15112 -10.0084 -231.014 61.0426 652.554 0 0 0 0.5 
865 2 2 2.37831 2.92329 8.17408 -29 0 -1 -229.2 -12.9828 6.32158 -1325.42 -25.8105 402.887 0 0 0 0.5 
216 1 1 0.875958 1.28143 8.00403 -44 0 0 -335.084 -17.458 -9.07207 206.805 663.036 -377.46 0 0 0 0.5 
722 2 2 0.265222 0.808968 8.64788 -55 0 0 -407.684 -4.5573 -12.9267 617.508 -480.626 677.206 0 0 0 0.5 
754 2 2 4.41949 1.43752 8.7743 -34 0 0 -318.673 -12.175 0.611001 -798.199 -89.0216 -849.42 0 0 0 0.5 
339 1 1 1.33253 3.06257 9.65624 -18 0 0 -188.553 -1.32506 16.6913 611.808 -1365.43 568.125 0 0 0 0.5 
110 1 1 4.19782 2.94648 9.30738 -15 0 0 -143.909 -19.1823 16.9363 -208.401 407.409 1641.51 0 0 0 0.5 
430 1 1 2.84768 4.53151 8.004 -17 0 0 -30.4526 -5.63146 6.43737 8.92778 1217.18 372.821 0 0 0 0.5 
127 1 1 3.10617 0.948034 9.83533 -35 0 0 -344.774 -11.2431 2.16244 847.432 -177.632 -923.408 0 0 0 0.5 
282 1 1 3.24932 1.47987 8.23984 75 1 -1 -316.517 -11.5177 13.1109 -568.056 -147.206 655.059 0 0 0 0.5 
668 2 2 1.52526 4.20543 8.44942 -16 0 0 -65.5874 -0.465698 1.78752 -151.573 272.882 772.705 0 0 0 0.5 
431 1 1 4.35622 1.88763 9.56749 -35 0 -1 -254.19 -9.9729 -11.6841 -423.027 -75.8476 1335.64 0 0 0 0.5 
524 2 2 4.51366 4.3601 9.18179 -13 0 0 -17.1848 -19.3924 6.83672 -3102.15 1073.63 1867.28 0 0 0 0.5 
227 1 1 2.95109 0.559097 8.29699 -36 0 0 -392.164 5.52149 17.7965 -184.788 -584.03 -371.773 0 0 0 0.5 
352 1 1 3.43974 2.22837 8.84358 -21 0 0 -252.491 -12.8574 14.6765 120.848 363.753 -129.031 0 0 0 0.5 
448 1 1 1.17315 4.50019 9.38139 -8 0 0 -94.5564 19.1746 4.47689 376.15 2448.56 -26.9455 0 0 0 0.5 
727 2 2 0.283039 3.82434 9.34212 -39 0 0 -109.527 -1.99577 7.10436 130.843 188.577 1260.13 0 0 0 0.5 
146 1 1 0.671532 4.4111 8.6967 -6 0 0 -78.9008 12.3756 6.31323 -1041.18 -307.973 -120.421 0 0 0 0.5 
374 1 1 3.65189 3.57641 9.49805 -8 0 0 -130.571 -3.95311 4.75574 -17.536 2188.06 1474.07 0 0 0 0.5 
96 1 1 3.68116 2.12291 9.85465 -24 0 0 -255.856 -7.98275 16.9255 -1431.11 498.795 608.773 0 0 0 0.5 
89 1 1 3.12868 2.85055 8.35421 -32 0 0 -207.206 15.1177 -6.71278 1005.78 235.384 -440.483 0 0 0 0.5 
468 1 1 3.82705 4.75604 8.87165 12 0 0 -10.7444 -7.30423 -13.658 1609.15 -459.198 730.482 0 0 0 0.5 
719 2 2 4.02691 0.376923 8.65726 66 1 0 -418.523 -16.6066 2.57066 -5633.29 4657.12 -1177.92 0 0 0 0.5 
935 2 2 0.818545 3.32816 9.03304 -15 0 0 -141.379 -11.6 -18.2053 -517.484 -558.78 -621.734 0 0 0 0.5 
569 2 2 4.88648 0.507952 8.38339 106 1 -1 -424.165 1.20986 23.3523 -2134.24 3379.92 225.175 0 0 0 0.5 
633 2 2 4.94835 0.247396 9.65852 -56 0 0 -500.665 48.0108 1.82966 -558.532 1290.93 -79.3261 0 0 0 0.5 
382 1 1 0.100169 9.3415 0.598625 -44 -1 0 441.635 -27.1076 -1.98809 614.593 269.771 -304.743 0 0 0 0.5 
710 2 2 1.08962 8.48867 1.20542 50 0 0 363.006 -20.2758 -9.84791 -685.027 1660.58 763.227 0 0 0 0.5 
593 2 2 4.71908 6.78411 0.439626 14 0 1 159.343 14.5126 -0.344451 90.9578 -12.3768 103.606 0 0 0 0.5 
212 1 1 0.913463 9.7032 0.343413 90 0 0 444.838 22.5881 -19.7648 -1316.64 -588.283 1299.58 0 0 0 0.5 
109 1 1 4.19153 6.3388 1.94586 5 0 0 88.8373 6.14309 -8.15832 83.6549 -397.955 1791.53 0 0 0 0.5 
978 2 2 4.06592 5.81858 1.26642 15 0 0 60.4185 10.7721 -13.3079 1604.59 -1206.01 -390.116 0 0 0 0.5 
78 1 1 0.63388 5.7038 1.4294 10 0 1 95.2523 8.30217 -10.7823 1151.7 1412.57 -1870.81 0 0 0 0.5 
172 1 1 1.31362 8.93101 0.323197 -73 -1 0 422.315 -2.55657 -12.1602 -2343.19 2406.02 -1510.77 0 0 0 0.5 
103 1 1 3.30314 6.04737 1.66225 1 0 0 69.6037 14.1056 5.524 2239.85 -38.132 -12.6418 0 0 0 0.5 
117 1 1 1.17109 9.15252 1.76323 -39 -1 0 417.814 -1.5523 0.903561 -963.843 -550.882 -417.465 0 0 0 0.5 
252 1 1 0.875988 9.68222 1.30557 74 0 1 467.555 4.7807 -23.5769 1949.55 576.472 -91.6456 0 0 0 0.5 
833 2 2 3.29574 5.78424 0.75059 17 0 0 62.7445 21.8886 -3.92834 -47.8583 -3137.84 66.9461 0 0 0 0.5 
958 2 2 2.6214 9.28873 0.702863 70 0 1 432.683 11.3168 19.7863 0 0 0 0 0 0 0.5 
758 2 2 2.63506 6.07806 0.145739 -22 0 0 40.5899 33.3535 17.8944 -85.4434 364.481 26.0287 0 0 0 0.5 
733 2 2 1.16422 7.55352 0.91281 80 0 0 268.134 1.46002 -9.92822 403.4 -1802.38 -1325.53 0 0 0 0.5 
405 1 1 2.4099 6.14518 1.91536 0 0 0 109.424 4.37098 -14.8856 -1994.96 198.439 9.42898 0 0 0 0.5 
629 2 2 3.22814 8.3098 0.115485 -56 -1 0 334.335 6.7636 -25.3906 -774.662 -301.977 1125.37 0 0 0 0.5 
82 1 1 3.80551 6.8338 0.129671 15 0 0 156.321 7.55797 -3.15636 585.613 231.544 -376.287 0 0 0 0.5 
589 2 2 4.49297 5.79113 0.368465 22 0 1 85.3001 -2.79578 -3.38643 -1598.32 1058.12 320.507 0 0 0 0.5 
696 2 2 4.26537 5.04834 1.14621 9 0 0 11.277 -21.9082 -26.84 202.91 -731.877 -489.95 0 0 0 0.5 
54 1 1 4.16958 8.10087 1.53852 7 0 1 316.163 -9.75057 0.375644 -4887.9 3433.95 -1210.3 0 0 0 0.5 
838 2 2 1.51387 6.02423 1.4381 1 0 1 102.29 -4.39806 16.1247 2018.01 -510.199 540.01 0 0 0 0.5 
631 2 2 2.23043 5.06862 1.30589 10 0 0 -33.4166 10.5353 -0.219572 -245.938 26.4607 93.6495 0 0 0 0.5 
576 2 2 3.07039 5.06019 1.18319 46 0 0 -17.2853 26.4205 2.87362 656.649 173.039 -41.3077 0 0 0 0.5 
718 2 2 1.46908 8.06369 0.0750279 -63 -1 1 296.844 24.7805 8.6401 2377.2 -2898.22 430.58 0 0 0 0.5 
64 1 1 2.11384 7.56475 0.87919 38 0 0 286.378 9.41051 -8.29753 -382.163 -1871.05 -24.9649 0 0 0 0.5 
279 1 1 0.674039 5.82037 0.400289 149 1 0 97.4746 -13.6373 -3.76159 972.923 1474.6 -794.402 0 0 0 0.5 
400 1 1 2.97048 8.21787 1.31072 -40 -1 0 331.415 15.3523 -1.80065 -463.401 562.432 -483.508 0 0 0 0.5 
131 1 1 4.18499 7.65847 0.614365 29 0 0 278.611 -23.6939 -22.2481 638.04 2083.76 -328.049 0 0 0 0.5 
390 1 1 4.29903 8.59729 0.308542 21 0 0 352.896 6.75531 -33.4942 -1218.22 -695.509 1837.09 0 0 0 0.5 
904 2 2 0.107337 7.15769 0.490478 20 0 0 190.135 1.33209 26.2168 1097.19 -3265.38 -505.482 0 0 0 0.5 
473 1 1 0.912288 5.25502 1.9384 1 0 0 17.5974 2.94076 31.3832 956.036 -1561.04 1750.5 0 0 0 0.5 
337 1 1 3.6148 9.52942 1.1297 67 0 0 503.473 -0.375365 -28.0652 -3815.65 3531.52 2324.91 0 0 0 0.5 
575 2 2 2.21689 6.72717 0.990329 62 0 0 175.48 -30.6982 4.06963 -889.75 -57.6831 244.31 0 0 0 0.5 
984 2 2 4.2881 8.99557 1.2351 57 0 1 411.291 2.1647 -10.7267 3013.38 -3876.29 1736.81 0 0 0 0.5 
362 1 1 1.22423 7.61912 1.8845 -4 0 0 281.318 7.92785 -5.25897 -234.475 -153.904 -618.92 0 0 0 0.5 
621 2 2 1.57845 5.70086 0.605866 3 0 0 59.8449 14.5032 -2.68128 2410.93 -936.336 1399.41 0 0 0 0.5 
70 1 1 1.87282 8.4693 0.917981 31 0 1 389.012 10.396 0.350159 1019.2 1088.07 886.944 0 0 0 0.5 
994 2 2 1.21286 6.86203 1.55813 24 0 0 179.773 -6.16705 -15.7346 -1452.16 1697.72 40.5167 0 0 0 0.5 
13 1 1 0.468809 6.68587 1.25838 -20 0 0 168.246 -24.133 -14.8396 1013.09 -1548.96 1029.91 0 0 0 0.5 
398 1 1 1.86162 6.79411 1.9229 22 0 0 182.977 14.6568 12.7153 -1521.85 1518.21 -1169.63 0 0 0 0.5 
699 2 2 0.988017 6.7184 0.433443 19 0 0 169.386 1.61382 -14.6872 -2362.53 1291.43 3729.8 0 0 0 0.5 
817 2 2 3.97061 6.73308 1.08395 4 0 0 155.571 13.1588 0.542471 1218.6 1631.2 -746.677 0 0 0 0.5 
63 1 1 2.78586 7.26454 1.75473 33 0 0 227.628 -24.5393 -14.9819 1080.55 -1264.57 -892.091 0 0 0 0.5 
859 2 2 3.0814 7.5794 0.77814 -65 -1 1 282.685 -1.48382 -18.6433 616.676 1167.01 -1086.08 0 0 0 0.5 
470 1 1 3.10918 6.75426 0.750403 34 0 0 171.76 -19.5282 4.24662 -1913.57 2265.19 -302.378 0 0 0 0.5 
463 1 1 3.559 9.33084 0.260229 70 0 1 439.927 -9.31305 8.17154 2907.36 -4128.68 -2547.43 0 0 0 0.5 
976 2 2 3.65688 7.21312 1.94892 34 0 0 228.276 -28.3371 -7.02254 -560.852 -44.721 427.254 0 0 0 0.5 
803 2 2 3.61549 9.12994 1.8784 60 0 0 389.517 3.31478 15.6845 240.07 1172.89 -6038.64 0 0 0 0.5 
665 2 2 4.90886 7.85738 1.18717 12 0 1 271.557 27.675 2.73666 2460.34 315.022 -1908.49 0 0 0 0.5 
812 2 2 4.08051 8.68638 2.41492 29 0 1 338.14 11.0909 10.8733 -1671.27 741.943 2009.87 0 0 0 0.5 
879 2 2 1.59764 9.72867 2.53137 74 0 1 504.066 -4.59234 16.0353 278.654 597.536 402.575 0 0 0 0.5 
176 1 1 4.49375 7.34732 2.00255 19 0 1 223.942 -9.60292 19.0459 -681.134 -1065.59 3051.85 0 0 0 0.5 