ITEM: TIMESTEP
9500
ITEM: NUMBER OF ATOMS
1000
ITEM: BOX BOUNDS xy xz yz pp pp pp
0 10 0
0 10 0
-0 10 0
ITEM: ATOMS id type type x y z ix iy iz vx vy vz fx fy fz omegax omegay omegaz radius 
431 1 1 0.260326 1.76616 0.908125 -12 0 0 -283.169 1.72938 -8.59044 3328.64 -1574.2 3153.94 0 0 0 0.5 
316 1 1 1.03963 1.66681 1.48976 -28 0 0 -279.986 -12.2731 -4.55789 252.579 423.19 347.047 0 0 0 0.5 
473 1 1 2.27063 4.54666 1.33242 4 0 0 -18.2079 12.9978 -14.8535 565.936 -112.301 237.872 0 0 0 0.5 
203 1 1 4.29115 1.77409 1.84817 -19 0 0 -296.491 -5.66138 9.89877 753.391 -143.261 1182.11 0 0 0 0.5 
196 1 1 1.35614 0.842081 0.825751 49 1 0 -376.404 27.6643 28.7091 -151.858 -776.762 -639.087 0 0 0 0.5 
779 2 2 2.16155 3.75715 0.0546548 0 0 0 -53.0563 -10.3284 -4.15504 -65.8564 -104.793 -682.359 0 0 0 0.5 
774 2 2 2.60721 1.59843 0.152959 -9 0 1 -257.435 -0.738339 -3.69445 -270.003 -618.982 935.509 0 0 0 0.5 
579 2 2 2.54638 2.7008 1.67693 -2 0 0 -193.011 17.8198 13.1859 -1394.73 3405.13 1188.21 0 0 0 0.5 
205 1 1 2.92115 0.69041 0.951452 -42 0 0 -362.066 -6.52176 -3.76925 -4780.93 4386.81 -2346.51 0 0 0 0.5 
755 2 2 1.91696 1.78138 1.87604 -17 0 0 -270.775 -0.607133 10.2485 -1528.06 -101.598 -1457.58 0 0 0 0.5 
275 1 1 1.83591 3.42754 1.24342 -4 0 0 -90.2045 7.47187 11.9526 756.524 260.988 -201.081 0 0 0 0.5 
104 1 1 2.64249 3.35925 0.654901 -2 0 1 -88.711 -2.80724 23.8844 -2674.42 -1681.19 -1579.69 0 0 0 0.5 
360 1 1 3.61338 1.178 0.125995 -21 0 1 -319.321 5.59831 -10.3684 1733.9 1089.7 -2551.06 0 0 0 0.5 
400 1 1 2.43362 1.59309 1.08921 -9 0 0 -277.585 2.23135 -5.71217 -364.134 -1493.26 1414.73 0 0 0 0.5 
574 2 2 4.43213 4.26177 0.436469 -2 0 1 -63.7866 5.94544 -4.25392 1616.52 -2281.26 881.348 0 0 0 0.5 
17 1 1 2.29605 0.779692 1.6139 -19 0 1 -347.134 -18.0869 15.5714 -5603.71 6477.64 -1203.96 0 0 0 0.5 
371 1 1 2.235 2.68026 1.18289 -4 0 0 -145.142 -32.3159 -25.8681 -1219.01 -505.821 -3281.8 0 0 0 0.5 
647 2 2 0.0447992 1.92742 1.84601 -11 0 0 -285.706 8.75334 1.10713 2855.47 -995.301 2898.77 0 0 0 0.5 
18 1 1 2.17267 3.96801 1.97532 -5 0 0 -95.4481 25.8866 8.51596 -1032.73 828.139 776.883 0 0 0 0.5 
849 2 2 1.62478 2.33063 0.514988 -5 0 1 -192.378 -6.79485 2.10434 -138.607 -79.4166 -151.709 0 0 0 0.5 
659 2 2 3.85099 3.99981 1.31302 -3 0 0 -78.8576 -5.42964 5.04115 1245.94 -998.234 -149.183 0 0 0 0.5 
718 2 2 1.23458 0.220303 0.314179 -14 0 1 -472.9 0.77923 -2.64825 -583.727 -460.982 3426.87 0 0 0 0.5 
323 1 1 3.40655 1.6078 0.663979 -11 0 0 -260.868 -12.0757 11.4016 -1521.06 3197.13 247.993 0 0 0 0.5 
279 1 1 4.16589 2.69103 0.498275 72 1 0 -169.785 12.3385 -2.1012 2116.48 -1543.67 -286.851 0 0 0 0.5 
249 1 1 3.40681 1.86536 1.52511 -19 0 1 -265.95 -10.5917 -4.87023 -461.967 1553.81 40.435 0 0 0 0.5 
430 1 1 1.22388 3.70891 1.95361 -4 0 0 -87.4758 -2.97391 3.14789 -514.097 -254.108 -665.271 0 0 0 0.5 
71 1 1 1.89927 4.51496 0.332523 0 0 1 -18.1016 1.8738 18.7355 -425.747 175.812 281.32 0 0 0 0.5 
359 1 1 1.08307 3.75352 0.899057 -4 0 0 -90.2449 9.33482 -1.45195 730.708 263.46 -1293.58 0 0 0 0.5 
896 2 2 2.89909 4.73574 0.0524602 -1 0 0 -3.92092 4.84054 -4.28008 -1680.89 2100.86 -735.805 0 0 0 0.5 
620 2 2 3.11999 4.36277 1.03918 -2 0 0 -47.8967 11.4188 -5.31519 -229.179 564.32 -388.453 0 0 0 0.5 
413 1 1 0.43522 3.79801 1.50419 -21 0 0 -76.8697 -6.17949 -6.05696 -361.584 -1290.15 1294.38 0 0 0 0.5 
828 2 2 2.94268 2.41597 1.878 -11 0 1 -207.93 0.103996 17.6809 1412.96 -1285.72 3972.92 0 0 0 0.5 
920 2 2 4.33303 0.273712 1.11822 -24 0 1 -467.111 6.31654 25.6119 1759.34 -1685.03 2534.74 0 0 0 0.5 
609 2 2 0.353527 4.32863 0.158423 -2 0 0 -15.6639 -1.17413 -1.24896 -304.052 -62.1346 -244.953 0 0 0 0.5 
92 1 1 4.11754 4.84227 0.932079 1 0 1 -35.3618 5.37931 -0.207737 -1218.49 236.135 1515.01 0 0 0 0.5 
538 2 2 3.82465 0.744672 0.798645 38 1 0 -365.523 10.6648 6.13686 -1134.54 -3706.43 -2563.44 0 0 0 0.5 
171 1 1 0.114979 4.53015 1.11167 -2 0 0 -30.8237 2.82068 2.77976 31.1432 1000.53 452.027 0 0 0 0.5 
865 2 2 4.35691 1.83496 0.643787 -11 0 0 -249.78 -9.85745 0.994289 -4126.83 4415.35 -400.686 0 0 0 0.5 
807 2 2 3.5853 3.12927 1.51002 -3 0 0 -158.743 -7.37024 11.0729 888.796 -399.386 -277.727 0 0 0 0.5 
276 1 1 3.56171 0.970041 1.60168 -21 0 1 -406.12 7.9844 -10.8589 1466.38 -2085.07 3038.02 0 0 0 0.5 
982 2 2 3.4738 4.01744 0.304037 -2 0 0 -68.2225 7.9925 -15.0036 2131.71 -1023.88 564.253 0 0 0 0.5 
817 2 2 1.48778 4.78864 1.4029 -2 0 0 -3.8874 -13.5925 -9.78055 -2453.73 74.9523 750.862 0 0 0 0.5 
974 2 2 3.18928 2.35203 0.732998 77 1 1 -194.031 15.3805 -7.00159 -637.605 2120.22 -272.052 0 0 0 0.5 
826 2 2 4.76141 0.811293 1.76087 29 1 0 -396.241 -2.66638 -9.2109 -1079.14 -493.716 -788.045 0 0 0 0.5 
517 2 2 4.46257 2.90307 1.47147 -11 0 0 -161.904 0.811277 11.6568 884.95 -243.788 262.827 0 0 0 0.5 
674 2 2 3.48045 3.23902 0.665223 -1 0 0 -113.911 2.13027 -13.8898 -58.0731 886.579 873.424 0 0 0 0.5 
319 1 1 4.70045 3.85708 1.26152 3 0 0 -75.873 -2.91967 -4.29272 694.62 -266.019 319.502 0 0 0 0.5 
756 2 2 2.80983 3.61921 1.50297 -6 0 1 -120.74 14.0066 -7.71253 -44.1086 730.364 1479.09 0 0 0 0.5 
273 1 1 3.00513 0.131924 1.70422 -27 0 1 -502.769 5.1617 -0.52074 5088.59 -7502.66 1342.21 0 0 0 0.5 
507 2 2 0.79055 2.69223 3.73938 -14 0 0 -255.83 24.0293 0.915051 2064.12 528.268 2565.34 0 0 0 0.5 
820 2 2 0.838748 2.48099 2.0196 -13 0 0 -278.064 23.9337 -41.4157 -38.3436 -685.655 184.948 0 0 0 0.5 
461 1 1 2.55572 1.52555 3.36936 33 1 0 -345.32 -3.10863 15.4546 -2920.49 1074.43 2071.56 0 0 0 0.5 
33 1 1 0.342249 0.629063 3.08244 41 1 0 -446.608 -9.27621 -12.2861 1057.07 -1637.13 1537.1 0 0 0 0.5 
231 1 1 3.31696 2.40201 3.01304 -16 0 1 -321.626 18.972 -5.88101 2404.56 -51.286 -518.559 0 0 0 0.5 
804 2 2 0.371621 1.39233 3.30538 -50 0 0 -382.591 38.2256 4.9692 1351.58 -519.473 -328.448 0 0 0 0.5 
523 2 2 2.11628 2.9031 3.46628 -17 0 1 -231.409 0.249406 18.6687 -1242.69 2596.03 -764.437 0 0 0 0.5 
697 2 2 4.52982 2.90889 2.46913 -7 0 0 -174.079 -9.77977 13.4247 -1452.71 484.74 -19.8559 0 0 0 0.5 
298 1 1 2.67514 0.720728 3.53325 -28 0 0 -384.912 -35.452 -5.23724 -924.015 -12.342 941.336 0 0 0 0.5 
266 1 1 3.85624 0.606593 3.76667 -32 0 0 -395.165 -2.62263 4.69384 -216.014 -781.706 -795.423 0 0 0 0.5 
905 2 2 4.74452 4.20141 3.40051 -4 0 0 -62.0915 -9.99581 -12.957 -113.794 333.01 377.183 0 0 0 0.5 
886 2 2 0.921443 1.21661 2.41071 48 1 0 -359.082 -1.02441 6.31371 0.58056 30.9272 14.5681 0 0 0 0.5 
21 1 1 1.12178 1.96336 3.64753 -37 0 0 -309.426 -4.76165 7.36773 1116.43 1477.87 443.288 0 0 0 0.5 
867 2 2 1.59636 3.8547 2.74765 -20 0 0 -117.34 7.26321 -4.00761 -1681.27 1631.18 -448.982 0 0 0 0.5 
531 2 2 2.32765 2.60821 2.61727 -12 0 0 -228.359 -4.27059 8.8926 237.106 -1116.08 383.343 0 0 0 0.5 
873 2 2 2.13923 3.32437 2.55695 -7 0 0 -155.26 0.848524 -0.611555 -173.764 197.913 -2105.01 0 0 0 0.5 
583 2 2 0.938211 2.10987 2.83148 -11 0 1 -309.641 9.9851 -11.9522 -144.14 246.675 -859.366 0 0 0 0.5 
644 2 2 2.58387 1.87444 2.54868 58 1 0 -289.63 -23.7327 3.23497 2323.97 -972.265 -702.713 0 0 0 0.5 
713 2 2 1.20278 0.204124 2.20632 -35 0 1 -460.029 -2.25009 20.4366 -1211.2 901.264 -259.812 0 0 0 0.5 
854 2 2 3.28746 3.51509 2.31926 -5 0 0 -142.036 -1.82552 12.8579 -121.448 485.975 405.072 0 0 0 0.5 
937 2 2 2.07283 3.72737 3.4511 -4 0 0 -136.865 14.4728 1.91194 -1738.88 1685.02 1991.25 0 0 0 0.5 
204 1 1 2.07189 1.01026 2.48081 -43 0 0 -378.253 -12.8267 19.8778 7.82272 -105.915 162.345 0 0 0 0.5 
910 2 2 0.137479 3.86376 3.51438 -13 0 0 -91.5231 -7.4001 -1.18772 2056.21 -3590.61 1427.98 0 0 0 0.5 
95 1 1 0.637758 4.75675 3.36336 -2 0 0 -66.799 3.1884 -8.72527 -1926.25 1472.53 -300.684 0 0 0 0.5 
678 2 2 3.17383 4.8305 3.71975 -3 0 0 -5.90139 -2.94821 -7.52356 -3098.66 1362.76 -44.426 0 0 0 0.5 
6 1 1 2.73338 4.71849 2.61088 -6 0 0 -58.8622 -0.725207 -21.0995 -1794.69 571.932 -571.627 0 0 0 0.5 
667 2 2 2.60217 2.39512 3.52595 -31 0 0 -263.909 -7.23492 28.3089 807.678 -2127.28 -210.023 0 0 0 0.5 
773 2 2 0.838104 4.60646 2.27618 -6 0 0 -31.9995 8.20785 -17.1538 1417.23 125.468 -575.481 0 0 0 0.5 
543 2 2 3.27328 1.05011 2.95311 -20 0 0 -414.863 23.1054 6.33749 2163.61 -311.594 -1319.66 0 0 0 0.5 
675 2 2 0.0393533 4.52469 2.53277 -1 0 0 -26.8241 -0.464845 -10.6833 1842.32 108.461 392.618 0 0 0 0.5 
668 2 2 0.315645 3.72458 2.61646 -3 0 0 -99.1435 -17.877 -11.0179 1364.51 -2370.71 1178.25 0 0 0 0.5 
245 1 1 1.2593 4.34095 3.40835 -11 0 0 -63.3636 2.90736 -0.412984 1125.35 -36.0746 1622.19 0 0 0 0.5 
555 2 2 4.37178 4.38065 2.10024 -6 0 0 -64.308 -2.73534 -0.362775 158.505 608.13 -109.473 0 0 0 0.5 
858 2 2 1.70756 4.79319 2.59575 -1 0 0 -32.5448 5.93421 5.78562 244.759 -214.539 264.984 0 0 0 0.5 
505 2 2 3.57791 2.33608 3.93543 -11 0 0 -259.639 11.5805 4.50802 -284.626 91.3473 -1052.05 0 0 0 0.5 
214 1 1 4.15201 4.85723 3.76571 0 0 0 -45.2272 8.95033 12.0909 2346.54 -81.2223 25.2504 0 0 0 0.5 
488 1 1 0.120315 2.95632 3.16168 -37 0 1 -186.576 -16.1252 -10.4711 -2554.93 1949.98 -1977.18 0 0 0 0.5 
411 1 1 2.92762 3.77866 3.95599 -10 0 0 -110.84 7.43948 -0.209264 2254.71 -1442.78 -2026.07 0 0 0 0.5 
147 1 1 3.79932 0.697042 2.54628 -34 0 0 -419.594 21.9625 -9.49727 1073.76 -876.37 634.128 0 0 0 0.5 
510 2 2 4.67433 3.03244 3.81248 -6 0 0 -155.028 -17.666 -33.9905 236.133 -62.1209 167.087 0 0 0 0.5 
106 1 1 3.22041 4.29863 3.09238 -8 0 0 -73.4798 -7.28336 1.75287 553.165 -3359.89 -613.446 0 0 0 0.5 
872 2 2 3.35973 4.38233 2.0479 -2 0 0 -65.5308 7.69483 -7.6768 596.756 -989.435 -96.0141 0 0 0 0.5 
145 1 1 3.83655 0.054781 2.18183 23 1 0 -493.958 0.600841 -15.3757 -1811.11 1642.06 -208.741 0 0 0 0.5 
416 1 1 2.83616 3.45355 3.19371 -10 0 0 -192.15 5.18545 -11.9566 4185.02 -950.005 288.622 0 0 0 0.5 
346 1 1 4.88963 0.478501 3.6364 27 1 0 -435.205 -9.69098 -6.90371 -4126.75 3216.33 501.309 0 0 0 0.5 
899 2 2 4.93373 1.04344 2.59143 -18 0 0 -396.095 22.6601 -23.7855 285.966 1808.33 1453.36 0 0 0 0.5 
25 1 1 4.92748 1.44267 3.7233 -25 0 0 -318.507 2.35488 4.20722 -24.4354 -622.352 -56.0908 0 0 0 0.5 
20 1 1 4.94886 0.219512 2.61991 -51 0 0 -521.611 13.4633 -18.3791 -973.363 591.121 -614.055 0 0 0 0.5 
527 2 2 4.24907 4.97561 4.98583 0 0 0 -6.0692 19.1551 -21.0335 -415.821 1997.72 -341.871 0 0 0 0.5 
708 2 2 1.79449 0.530456 4.25209 -32 0 0 -426.65 -4.73818 -14.2587 1186.53 -3226.8 1182.06 0 0 0 0.5 
516 2 2 2.33293 0.48054 5.3168 -39 0 0 -421.307 -3.04017 1.8485 0 0 0 0 0 0 0.5 
956 2 2 2.47575 2.55841 4.3931 -20 0 0 -214.55 6.36498 12.8708 -1593.1 454.427 223.111 0 0 0 0.5 
901 2 2 4.1017 0.757091 5.74123 -14 0 0 -383.197 -1.0882 -9.96458 -1334.16 986.428 -48.8977 0 0 0 0.5 
36 1 1 4.38888 2.21772 4.48739 -29 0 0 -242.318 6.34452 -18.7007 29.1288 2041.94 251.742 0 0 0 0.5 
332 1 1 0.94499 1.20848 5.64066 -18 0 0 -349.857 -0.348412 -4.77943 0 0 0 0 0 0 0.5 
383 1 1 1.17934 3.95667 4.29211 -3 0 0 -49.7231 -18.9336 -5.29633 575.705 -637.817 1.45902 0 0 0 0.5 
216 1 1 1.58416 2.5642 4.18459 -20 0 0 -247.113 17.4602 20.807 -576.063 -1307.94 -1044.33 0 0 0 0.5 
19 1 1 0.408038 2.06369 5.26014 -17 0 0 -276.044 15.5893 6.70242 603.266 132.37 -476.074 0 0 0 0.5 
283 1 1 0.0182996 0.547814 4.97033 -30 0 0 -437.634 -3.71964 -18.416 -381.061 108.426 -3183.07 0 0 0 0.5 
503 2 2 2.16769 3.02165 4.95811 -12 0 0 -196.47 16.1225 26.0873 861.144 -3542.41 -1003.04 0 0 0 0.5 
944 2 2 1.45935 2.24577 5.62783 -15 0 0 -235.023 -0.521341 -4.75617 2045.22 -3378.31 694.139 0 0 0 0.5 
805 2 2 0.838852 0.512315 4.54149 -22 0 0 -442.114 29.5031 -28.544 1083.15 -1073.06 -358.852 0 0 0 0.5 
107 1 1 4.67782 0.104821 5.81536 -23 0 0 -429.693 -16.3788 1.24049 -2244.19 663.676 195.877 0 0 0 0.5 
539 2 2 1.40207 1.2827 4.01055 -23 0 0 -346.444 -16.5982 -2.33309 -958.355 1327.83 -214.283 0 0 0 0.5 
743 2 2 1.00255 2.87713 5.60857 -10 0 0 -164.708 7.15046 12.4272 -2087.46 2826.41 194.114 0 0 0 0.5 
725 2 2 1.90507 3.82563 5.3549 0 0 0 -57.6402 -26.2672 0.588954 337.372 3524.83 1941.99 0 0 0 0.5 
654 2 2 2.35867 1.48327 4.97649 -27 0 1 -270.261 -18.6649 -6.40711 -1111.25 84.0948 -1607.62 0 0 0 0.5 
229 1 1 2.47943 2.03984 5.86877 -9 0 0 -250.872 -3.34726 10.0192 -1124.12 1082.19 741.209 0 0 0 0.5 
201 1 1 1.50576 1.85192 4.80723 -19 0 0 -264.175 -18.6043 -12.0284 -693.307 209.085 -97.4196 0 0 0 0.5 
291 1 1 2.59469 2.95633 5.80849 -11 0 0 -137.955 -9.50984 5.90467 613.442 -1199.18 -787.77 0 0 0 0.5 
511 2 2 2.2363 4.11975 4.23419 -7 0 -1 -76.5221 -13.6234 2.98444 -2052.84 -761.571 936.176 0 0 0 0.5 
683 2 2 3.46461 4.90117 4.5464 -1 0 0 -3.05113 -13.4808 -14.7598 88.4303 1715.09 385.407 0 0 0 0.5 
611 2 2 3.69086 3.98988 5.55416 -1 0 0 -66.6405 1.46136 -25.3038 1675.85 -1138.88 -748.294 0 0 0 0.5 
513 2 2 3.48017 2.41642 5.45162 -11 0 0 -228.281 6.37276 -14.8957 182.498 482.561 700.855 0 0 0 0.5 
251 1 1 0.763429 4.64517 5.26305 -3 0 0 -26.3793 -13.5849 12.0004 -2280.54 -245.844 1337.84 0 0 0 0.5 
973 2 2 3.02565 3.84288 4.85349 -6 0 0 -84.2527 -2.08897 1.34097 203.034 -733.492 -27.7995 0 0 0 0.5 
250 1 1 1.36131 4.30664 5.18953 -4 0 0 -41.036 -7.03022 -10.7897 1532.83 14.5864 -246.78 0 0 0 0.5 
852 2 2 4.75344 0.845952 4.72589 -29 0 0 -384.574 -23.887 -3.42848 -954.917 1403.89 267.398 0 0 0 0.5 
941 2 2 3.77073 3.2909 4.19018 -5 0 0 -134.678 -10.6947 9.55585 0 0 0 0 0 0 0.5 
962 2 2 4.79658 3.95247 5.64315 1 0 0 -90.4544 9.88562 -6.65144 -203.14 -1171.47 550.274 0 0 0 0.5 
514 2 2 0.590688 3.47718 5.0037 -10 0 0 -127.976 11.9211 -0.973442 -1055.95 70.6805 -234.516 0 0 0 0.5 
509 2 2 2.99455 1.38458 5.52669 -17 0 0 -301.71 -14.4572 -0.515882 1708.93 -1877.05 -82.6942 0 0 0 0.5 
730 2 2 3.09241 0.597886 4.32653 -33 0 0 -396.832 -17.924 15.913 95.9967 -54.5307 408.791 0 0 0 0.5 
930 2 2 2.55231 4.49215 5.19784 -8 0 0 -66.4948 15.5626 7.48324 1312.43 -2566.71 2697.1 0 0 0 0.5 
522 2 2 2.02282 4.7803 4.5406 -4 0 0 -14.6348 -16.7601 14.5955 -2241.88 382.798 -1180.82 0 0 0 0.5 
366 1 1 0.573858 4.46454 4.29742 -3 0 0 -51.022 18.0303 -2.74587 -69.8288 490.194 397.52 0 0 0 0.5 
869 2 2 3.16878 1.98077 4.6835 -11 0 0 -261.032 -16.9728 7.27553 903.573 -1327.29 222.108 0 0 0 0.5 
548 2 2 4.0273 1.2745 4.60438 -19 0 0 -330.532 -12.215 -16.8558 -2072.64 2244.19 188.864 0 0 0 0.5 
117 1 1 4.68403 2.85476 5.17619 -12 0 0 -175.151 8.04612 3.65813 -666.246 -912.82 -2106.84 0 0 0 0.5 
313 1 1 4.72577 1.65086 5.13502 -17 0 0 -324.005 15.1903 13.0633 -341.221 -2415.88 -202.72 0 0 0 0.5 
374 1 1 4.84093 4.49548 4.9616 -1 0 0 -47.6148 4.86973 -13.7824 1975.83 -1160.83 -249.787 0 0 0 0.5 
50 1 1 4.91531 4.86795 5.83755 4 0 0 -8.01048 -6.20839 -14.2322 13.1502 -385.264 6.21335 0 0 0 0.5 
562 2 2 0.725588 0.69832 7.48857 16 1 0 -335.497 -16.6104 17.5256 1015.18 -149.791 254.278 0 0 0 0.5 
499 1 1 3.30316 4.85521 7.00098 5 0 0 12.534 -1.599 7.79815 34.8759 -813.401 -362.757 0 0 0 0.5 
299 1 1 3.7724 2.77318 7.65747 -11 0 0 -163.055 11.434 -5.91255 667.878 -993.316 572.591 0 0 0 0.5 
762 2 2 0.0241386 0.801821 7.31287 -28 0 -1 -366.292 -36.1851 -1.83319 -883.592 -637.375 66.8914 0 0 0 0.5 
640 2 2 2.73173 0.794583 7.42472 -21 0 0 -353.623 -13.8786 4.76912 695.216 99.1112 1907.62 0 0 0 0.5 
924 2 2 4.81607 2.60586 6.0455 -8 0 0 -187.756 -14.9359 -1.50188 -1204.37 -1124.13 546.378 0 0 0 0.5 
232 1 1 3.60453 3.58497 7.40493 -8 0 0 -84.3431 16.3491 5.928 -17.454 2094.15 1011.18 0 0 0 0.5 
951 2 2 2.57909 3.43491 7.55498 -1 0 0 -58.2275 -0.0626101 -7.70721 -341.76 187.878 -274.654 0 0 0 0.5 
241 1 1 1.37233 1.28607 6.61758 47 1 0 -308.871 -18.5441 -1.9443 -303.884 1424.14 357.981 0 0 0 0.5 
766 2 2 1.08687 2.9356 6.57777 -5 0 0 -152.317 -0.518853 13.0462 -162.413 23.772 234.122 0 0 0 0.5 
921 2 2 2.21017 2.89037 6.78517 -9 0 0 -143.928 -9.41133 19.3566 -381.199 114.202 -106.368 0 0 0 0.5 
190 1 1 0.811621 2.20768 7.79618 -9 0 0 -200.443 1.31984 9.07942 -1470.84 322.735 1601.42 0 0 0 0.5 
929 2 2 2.99687 3.96807 6.83604 -1 0 0 -76.7323 0.0360189 1.89316 -125.457 2206.77 -1610.35 0 0 0 0.5 
272 1 1 0.284001 1.48509 6.39746 -31 0 -1 -283.52 -26.7967 -0.438585 25.0333 -1832.83 -122.492 0 0 0 0.5 
399 1 1 1.45018 2.073 7.16214 -17 0 -1 -252.077 15.252 -10.3178 1905.04 -1055.08 -550.2 0 0 0 0.5 
783 2 2 2.31336 3.65817 6.14222 -9 0 0 -80.1873 5.0024 22.6122 963.92 -769.396 508.27 0 0 0 0.5 
533 2 2 2.65156 0.915077 6.47301 49 1 -1 -354.366 2.22313 14.169 -63.6986 95.7354 -756.151 0 0 0 0.5 
448 1 1 4.89655 4.45101 6.97842 0 0 0 -2.45126 -12.0883 -8.70552 -86.8974 -1267.27 254.585 0 0 0 0.5 
396 1 1 4.58156 3.23737 6.11556 -4 0 0 -145.243 11.9108 -4.21151 1018.64 1061.62 -2158.46 0 0 0 0.5 
750 2 2 0.878929 1.9937 6.31236 -20 0 0 -287.709 33.507 -4.96315 912.455 -256.609 -191.222 0 0 0 0.5 
310 1 1 2.74756 2.75577 7.9587 -3 0 0 -141.643 -22.9246 -7.22688 -32.5726 -1547.5 406.565 0 0 0 0.5 
563 2 2 2.17498 4.25495 7.57717 -2 0 0 -27.2954 12.9655 -0.907579 -522.411 855.752 -237.835 0 0 0 0.5 
274 1 1 3.58988 0.573101 6.55334 -21 0 -1 -410.674 2.72522 -10.6267 -960.646 374.172 91.313 0 0 0 0.5 
876 2 2 1.56696 3.81656 6.73977 -1 0 0 -72.7505 -16.4024 7.79138 -849.034 -376.179 722.597 0 0 0 0.5 
168 1 1 2.20825 4.58133 6.20067 1 0 0 -8.69096 -9.77353 11.5687 -347.97 1898.42 212.976 0 0 0 0.5 
152 1 1 3.12791 4.52388 6.0538 -3 0 0 -3.87023 1.0288 -0.937141 -1186.36 722.961 1637.66 0 0 0 0.5 
890 2 2 1.28916 4.74228 6.03991 2 0 0 -15.5202 -10.0986 15.0858 -340.722 -466.909 -1911.73 0 0 0 0.5 
565 2 2 4.12618 3.12781 6.87697 -4 0 0 -113.811 7.92394 -17.8278 -1684.17 490.616 920.682 0 0 0 0.5 
331 1 1 0.263176 4.70494 6.37497 1 0 0 -6.50877 -16.7273 5.02302 -59.7398 899.538 -101.297 0 0 0 0.5 
406 1 1 4.80978 1.87665 6.6195 -12 0 0 -223.901 -9.41755 3.72856 -631.24 -388.581 1196.01 0 0 0 0.5 
681 2 2 4.01036 4.43757 7.81459 -2 0 0 -40.5732 20.1943 -9.23028 -912.644 1839.99 212.679 0 0 0 0.5 
225 1 1 3.54511 2.97915 6.13236 -8 0 0 -163.909 18.4177 7.887 -404.978 256.274 -512.124 0 0 0 0.5 
116 1 1 1.37591 4.64391 6.83208 -2 0 0 -10.6209 12.8688 24.5348 1007.08 -582.736 759.4 0 0 0 0.5 
7 1 1 4.55307 3.8198 7.61136 -3 0 0 -71.9427 2.52434 -12.0176 68.2502 -390.619 -776.121 0 0 0 0.5 
343 1 1 3.11419 2.61954 7.03743 -3 0 0 -138.302 -10.1852 -15.0256 -486.999 -396.744 -748.556 0 0 0 0.5 
223 1 1 0.125829 3.0022 6.8224 -7 0 -1 -158.123 13.1046 5.3229 369.689 -1244.22 -202.991 0 0 0 0.5 
572 2 2 4.46875 2.46386 7.28661 -7 0 0 -181.505 -9.93865 -16.1252 -542.939 -549.146 334.598 0 0 0 0.5 
839 2 2 4.08952 2.23917 6.41416 -13 0 0 -200.127 -9.75587 -15.2978 -2673.99 -155.065 -285.764 0 0 0 0.5 
607 2 2 4.28632 4.98901 6.93545 1 0 0 18.5359 -7.34843 6.2974 -408.099 -770.657 746.51 0 0 0 0.5 
43 1 1 3.47635 1.78691 6.95297 -6 0 0 -172.274 -46.4546 1.0012 -870.944 1277.44 3968.32 0 0 0 0.5 
838 2 2 0.732517 4.61295 7.42873 -1 0 0 -15.3459 -3.3631 8.82481 -200.502 283.443 400.158 0 0 0 0.5 
809 2 2 3.78594 0.518102 7.5185 25 1 -1 -388.334 12.4794 9.28207 -2206.61 331.138 -702.836 0 0 0 0.5 
97 1 1 1.29607 4.04184 7.80731 -1 0 0 -35.9797 -14.5106 3.95464 -998.385 822.539 -1671.23 0 0 0 0.5 
658 2 2 4.18554 3.93067 6.39303 -2 0 0 -98.831 33.0804 0.954378 -643.995 1348.02 418.164 0 0 0 0.5 
908 2 2 4.34291 0.388279 6.86919 -11 0 0 -405.044 30.1377 -5.11423 948.844 1308.99 108.615 0 0 0 0.5 
38 1 1 3.64377 1.47694 6.03987 -22 0 0 -330.7 21.4913 28.1445 1943.92 -60.7162 -2311.18 0 0 0 0.5 
860 2 2 3.87217 4.57814 8.75769 3 0 0 -10.2847 6.7887 -5.45366 891.425 442.556 -367.009 0 0 0 0.5 
242 1 1 1.77227 0.275742 8.88417 -30 0 0 -413.458 -16.2589 -3.01178 -1975.9 1324.64 -774.646 0 0 0 0.5 
871 2 2 1.32213 2.63608 8.56612 -3 0 -1 -150.775 -10.7012 18.3853 205.858 -420.686 2127.75 0 0 0 0.5 
42 1 1 0.227426 1.33074 8.99827 -19 0 0 -325.368 7.68447 -16.9843 -240.235 1010.86 -2550.18 0 0 0 0.5 
119 1 1 2.94865 3.54667 9.4566 -3 0 -1 -66.1326 -10.0085 22.0916 -519.663 566.259 1342.77 0 0 0 0.5 
86 1 1 2.70197 2.77891 9.90524 -8 0 0 -113.626 -27.0587 16.3034 116.026 733.716 115.957 0 0 0 0.5 
139 1 1 0.762533 2.82243 9.31085 -3 0 0 -142.228 4.8563 6.10654 2721.42 -2790.91 822.058 0 0 0 0.5 
233 1 1 2.37317 1.95011 9.31491 -8 0 0 -219.069 -5.62679 2.98211 1528.21 -2208.33 -1992.47 0 0 0 0.5 
840 2 2 1.71056 3.56254 9.28888 -3 0 0 -51.9646 -6.77089 -5.9023 -1191.6 1338.32 1032.88 0 0 0 0.5 
506 2 2 2.16467 2.97946 8.69064 -8 0 -1 -134.019 -5.01342 -3.21404 897.6 -2856.23 -1134.96 0 0 0 0.5 
269 1 1 4.51441 0.5546 9.18914 -27 0 0 -459.376 20.2228 9.46334 2415.33 -214.245 3193.37 0 0 0 0.5 
278 1 1 0.0766309 0.753909 8.3332 39 1 -1 -363.208 -35.1992 6.95298 574.641 -963.375 47.439 0 0 0 0.5 
754 2 2 3.08137 1.11867 9.45853 -10 0 0 -294.918 -8.78227 -24.0497 -1761.73 1644.99 2080.88 0 0 0 0.5 
544 2 2 1.93684 3.71626 8.3384 -3 0 0 -69.87 10.5467 -11.0924 2035.55 560.83 1616.04 0 0 0 0.5 
376 1 1 3.81509 1.37552 8.77945 -9 0 -1 -240.895 -9.38987 -1.78947 674.273 612.331 -820.9 0 0 0 0.5 
846 2 2 4.13574 3.73955 8.57238 -3 0 0 -66.1709 27.0864 -1.77916 694.546 -1029.99 -1406.55 0 0 0 0.5 
56 1 1 4.88186 2.45623 8.58894 -6 0 0 -143.887 -11.9748 -6.40172 707.817 -1718.06 -35.3066 0 0 0 0.5 
495 1 1 1.04335 1.76562 9.7175 -7 0 0 -259.188 3.32575 -8.86682 325.041 -245.411 69.0769 0 0 0 0.5 
798 2 2 1.01849 0.176562 9.4749 -22 0 -1 -404.771 -15.4497 -13.2506 1315.18 -863.124 166.829 0 0 0 0.5 
637 2 2 0.144666 2.09863 9.00119 -10 0 0 -254.573 37.6387 -8.82758 -119.295 1106.88 4.2099 0 0 0 0.5 
758 2 2 1.79986 1.19444 9.87827 -13 0 -1 -263.054 -28.3856 -12.4966 55.197 435.679 60.2919 0 0 0 0.5 
379 1 1 2.44079 1.67159 8.3093 -5 0 0 -200.746 -15.1105 11.8669 184.493 -904.948 -356.419 0 0 0 0.5 
633 2 2 0.483787 0.722875 9.34652 -23 0 0 -378.849 -2.70879 -2.03563 -250.314 27.3453 758.35 0 0 0 0.5 
120 1 1 1.42455 1.02108 8.69772 -22 0 -1 -375.767 21.1362 -8.64376 -237.828 509.797 -127.53 0 0 0 0.5 
342 1 1 1.75835 2.62434 9.55333 -4 0 0 -127.489 -13.6246 3.28431 -2627.1 2925.4 1004.54 0 0 0 0.5 
811 2 2 2.93547 4.31661 9.06334 0 0 0 -21.5655 -1.43701 -9.09744 -346.48 951.869 -615.563 0 0 0 0.5 
829 2 2 2.19199 4.63435 8.47974 1 0 0 -1.30319 7.81319 1.5072 -321.502 -431.069 -260.118 0 0 0 0.5 
354 1 1 0.972009 3.29632 8.23198 -3 0 0 -80.0539 -8.8954 -14.7438 -231.221 521.636 -612.542 0 0 0 0.5 
284 1 1 4.49085 0.557319 8.05141 -41 0 0 -355.708 20.1663 -38.9642 1605.5 918.131 -1245.24 0 0 0 0.5 
795 2 2 3.1786 0.364886 9.07438 -26 0 -1 -476.794 36.8778 -24.0388 2647.09 -1043.49 -1250.55 0 0 0 0.5 
608 2 2 0.291588 3.89513 8.13067 -1 0 0 -49.0728 8.59654 -8.91652 -263.375 273.994 -471.234 0 0 0 0.5 
79 1 1 1.70104 2.15338 8.08539 -2 0 0 -185.878 -6.54801 14.0841 -181.263 -1357.12 -3901.76 0 0 0 0.5 
638 2 2 3.7508 4.0015 9.44595 -2 0 -1 -61.9622 -1.57429 -3.70032 706.478 618.968 -42.7958 0 0 0 0.5 
30 1 1 0.0265108 3.47263 9.32021 0 0 0 -61.0957 -26.556 3.04091 -3148.3 3174.94 -498.455 0 0 0 0.5 
819 2 2 4.30242 3.00622 8.65262 -5 0 0 -129.309 2.73458 -2.64956 -291.497 -78.0098 106.983 0 0 0 0.5 
368 1 1 3.17592 1.84232 8.87302 -5 0 -1 -216.332 13.398 5.84088 -228.696 1715 363.281 0 0 0 0.5 
772 2 2 4.38879 3.55599 9.57684 -8 0 0 -71.648 -17.9687 0.526308 -1714.56 2918.57 -2309.67 0 0 0 0.5 
740 2 2 3.95624 0.701673 8.60573 -10 0 0 -349.905 -27.5376 -0.946052 -6214.26 -1428.99 -23.6153 0 0 0 0.5 
592 2 2 1.21359 4.5881 8.97639 3 0 -1 6.0014 -9.27781 -16.8972 154.261 -58.3735 403.931 0 0 0 0.5 
619 2 2 0.84804 3.72825 9.06749 -1 0 0 -56.949 4.1323 -7.92697 1381.35 -1188.23 -76.5142 0 0 0 0.5 
847 2 2 0.113575 4.38683 8.92704 1 0 0 -17.3771 -11.6328 14.106 -1786.48 948.04 212.02 0 0 0 0.5 
264 1 1 2.09415 4.664 9.40155 -1 0 -1 -0.656156 7.77806 17.3639 -793.215 190.366 -110.656 0 0 0 0.5 
656 2 2 3.17453 0.931203 8.23209 -17 0 0 -287.793 -21.1874 13.7482 -3552.78 1313.92 -2299.49 0 0 0 0.5 
293 1 1 4.03716 1.8048 9.51992 -30 0 -1 -268.65 1.37143 5.1345 -514.805 -544.44 1059.47 0 0 0 0.5 
787 2 2 2.98626 2.88419 8.9839 -18 0 0 -128.673 -6.58143 6.99074 -1055.62 -790.458 1582.48 0 0 0 0.5 
16 1 1 2.94624 0.287303 9.96564 -23 0 -1 -474.758 -9.37719 21.3489 -3248.85 1874.09 -2984.85 0 0 0 0.5 
134 1 1 3.47286 2.70452 8.38669 -8 0 0 -136.79 -2.8797 21.5813 1047.5 -413.709 -722.761 0 0 0 0.5 
265 1 1 3.7984 1.9142 8.02432 -6 0 0 -203.017 -12.4716 -15.1122 -1638.33 543.137 -1202.86 0 0 0 0.5 
35 1 1 3.56845 0.332592 9.98107 -22 0 0 -481.311 22.4634 4.61668 269.562 809.368 1674.46 0 0 0 0.5 
739 2 2 3.90949 4.76594 9.91444 3 0 0 5.46885 -0.232168 5.28714 -2171.46 -149.914 -1789.96 0 0 0 0.5 
339 1 1 4.10673 2.65633 9.4891 -1 0 0 -180.186 6.05535 -8.58071 -1069.37 526.79 -60.9985 0 0 0 0.5 
842 2 2 4.65731 1.56135 8.28694 -11 0 0 -240.184 -14.0196 -19.7378 -612.905 1677.3 -1177.31 0 0 0 0.5 
226 1 1 4.67109 0.0851306 8.47318 -13 0 0 -417.976 -11.2836 7.60455 2788.22 -1040.63 -2169.58 0 0 0 0.5 
347 1 1 4.72015 4.83674 9.11169 2 0 0 -4.73107 -6.79938 -3.0952 -1745.9 4252.47 -4.46836 0 0 0 0.5 
306 1 1 4.01946 0.00408385 9.79761 22 1 -1 -508.332 10.6925 -30.3947 1137.06 6.70696 -3042.19 0 0 0 0.5 
677 2 2 0.913802 3.54313 9.99782 -2 0 0 -63.9739 -16.2071 -6.37709 535.068 -910.296 -216.997 0 0 0 0.5 
108 1 1 4.8851 1.04786 9.81019 -10 0 0 -378.467 12.1665 -18.4652 -1726.54 108.417 -1029.98 0 0 0 0.5 
11 1 1 4.86763 2.72233 9.85077 -7 0 -1 -177.704 31.1984 0.632145 3320.51 -4215.03 618.314 0 0 0 0.5 
542 2 2 3.41154 8.27855 1.62403 -45 -1 1 306.952 1.79241 -8.29082 -2504.58 2003.44 62.0951 0 0 0 0.5 
726 2 2 0.493908 7.91726 0.876797 33 0 1 322.796 -9.92926 14.2568 937.21 -1919.12 823.681 0 0 0 0.5 
165 1 1 0.803739 8.16673 1.73323 17 0 0 357.074 -6.29916 6.55328 -106.329 -1823.45 1393.45 0 0 0 0.5 
765 2 2 1.64118 9.78205 1.60558 29 0 0 501.854 -1.36134 -10.6819 -1485.81 1018.16 -986.363 0 0 0 0.5 
975 2 2 0.824469 8.94094 1.27207 32 0 1 348.247 2.10408 45.2821 -735.508 1506.43 -216.258 0 0 0 0.5 
694 2 2 4.60135 9.26127 0.214433 -44 -1 1 385.971 7.79159 12.6543 1606.46 -1010.4 -1385.69 0 0 0 0.5 
949 2 2 3.41975 8.60108 0.658821 26 0 1 322.952 -20.824 -0.178065 -2279.82 1939.53 823.498 0 0 0 0.5 
578 2 2 3.91351 8.04007 0.469776 10 0 0 290.635 -20.2682 -2.83875 -1244.56 -883.929 -248.736 0 0 0 0.5 
73 1 1 2.25918 8.69583 0.514794 8 0 1 317.155 19.9802 -22.9227 620.252 445.335 67.1561 0 0 0 0.5 
254 1 1 3.31455 5.98094 1.51982 6 0 0 86.3517 6.76649 -29.4155 -202.368 723.515 -661.549 0 0 0 0.5 
419 1 1 2.81295 6.88909 1.2818 4 0 0 131.102 -26.4719 9.70337 614.837 2087.36 -1937.33 0 0 0 0.5 
367 1 1 2.57516 8.26521 1.27691 14 0 0 289.16 10.5585 -12.925 -1124.32 1645.3 1263.46 0 0 0 0.5 
582 2 2 2.77105 5.31316 0.893415 10 0 0 47.9177 -8.96049 -1.48787 1810.8 -1873.52 -1527.05 0 0 0 0.5 
733 2 2 2.90417 9.18126 1.41271 48 0 0 437.604 -27.8129 -7.53623 -653.691 -537.873 -94.9975 0 0 0 0.5 
803 2 2 4.29819 9.77848 0.14662 15 0 0 449.481 27.9912 9.28489 904.075 1993.6 2695.08 0 0 0 0.5 
960 2 2 3.65842 9.23637 1.64807 30 0 1 421.658 1.13663 4.19952 -2366.61 3144.69 -153.244 0 0 0 0.5 
26 1 1 0.183639 8.57181 0.547687 33 0 0 361.742 -1.02354 17.7044 228.293 -24.1084 617.056 0 0 0 0.5 
761 2 2 3.33584 9.89243 0.8333 -20 -1 0 508.906 11.3346 23.8074 2380.27 1007.59 -615.649 0 0 0 0.5 
808 2 2 3.58944 9.35265 0.665479 17 0 0 452.855 -15.9143 -10.1415 210.887 -2643.09 -1239.38 0 0 0 0.5 
302 1 1 0.0321891 9.56948 1.53348 24 0 1 518.714 -14.388 24.1773 -2579.87 -541.181 2784.54 0 0 0 0.5 
753 2 2 3.01764 7.59762 1.03939 21 0 1 259.724 10.0266 -11.5922 -2319.88 2178.05 2782.58 0 0 0 0.5 
990 2 2 1.20678 5.51912 0.929159 0 0 0 27.7182 5.638 5.64063 111.275 521.638 736.117 0 0 0 0.5 
515 2 2 0.610626 9.61603 0.861988 -33 -1 0 404.127 39.5767 3.18963 1557.83 4033.93 -2974.48 0 0 0 0.5 
631 2 2 1.87175 6.6381 1.48493 4 0 0 121.303 -3.54013 13.6003 -820.672 868.438 750.362 0 0 0 0.5 
410 1 1 4.30453 5.64171 1.15288 -2 0 0 43.6576 0.305817 16.2599 649.54 -673.176 248.925 0 0 0 0.5 
22 1 1 0.363949 7.12365 0.775589 12 0 0 179.256 -17.7323 9.13351 -1022.4 -314.929 -591.679 0 0 0 0.5 
660 2 2 2.25723 7.67736 0.540353 15 0 1 268.992 -10.4139 -24.8134 1609.96 -68.1365 -978.504 0 0 0 0.5 
158 1 1 0.238076 5.30065 1.63943 0 0 0 25.3647 9.21466 -2.33906 1999.91 -812.198 1843.68 0 0 0 0.5 
350 1 1 0.866662 6.33809 0.195102 6 0 1 88.0562 1.01093 21.2837 -222.349 906.348 1207.52 0 0 0 0.5 
75 1 1 3.68846 6.98156 1.04385 7 0 1 135.384 5.25008 -9.82169 4059.41 -3090.39 506.853 0 0 0 0.5 
397 1 1 1.10147 7.18757 0.296018 6 0 0 167.808 20.0783 -3.58739 2715.98 -385.861 -990.189 0 0 0 0.5 
696 2 2 0.676388 6.14564 1.83633 7 0 0 100.503 0.654271 -13.4438 -704.628 -320.735 -1433.47 0 0 0 0.5 
634 2 2 0.20296 7.42549 0.0366907 14 0 0 225.854 12.1734 2.66152 -750.384 389.461 -2254.51 0 0 0 0.5 
833 2 2 0.793033 6.99659 1.49882 5 0 0 179.535 3.43622 -10.7216 1909.26 -284.772 1928.37 0 0 0 0.5 
590 2 2 1.97309 5.4328 0.507087 4 0 0 28.959 -5.33713 16.19 662.291 359.883 -20.5365 0 0 0 0.5 
5 1 1 2.37573 5.85095 1.42002 0 0 0 83.2234 -13.8149 -10.7552 -942.753 1188.23 2063.33 0 0 0 0.5 
391 1 1 4.60751 5.28507 1.93743 0 0 0 24.2728 -2.06784 4.53953 -2463.09 -460.622 692.863 0 0 0 0.5 
815 2 2 1.14618 9.00648 0.568157 11 0 0 323.522 28.0733 9.03072 2047.11 -1544.82 -1046.85 0 0 0 0.5 
810 2 2 4.19336 7.71957 1.53803 20 0 0 216.634 -4.58674 -9.23406 3101.29 -415.578 -1231.14 0 0 0 0.5 
115 1 1 3.07488 7.02435 0.259666 4 0 0 141.052 30.5227 18.5752 -519.131 -364.323 -2198.28 0 0 0 0.5 
599 2 2 0.46835 5.69829 0.659764 3 0 0 23.3885 -14.2619 -6.85839 88.191 -205.272 -1774.29 0 0 0 0.5 
78 1 1 2.33859 6.63082 0.406165 6 0 1 146.978 -23.1887 -13.6925 842.111 -723.834 -612.19 0 0 0 0.5 
614 2 2 1.47191 8.5008 0.0196877 8 0 1 311.782 17.3003 3.92578 2315.68 -1110.43 -1693.75 0 0 0 0.5 
906 2 2 1.67793 6.78924 0.731365 11 0 0 139.907 -10.9183 -0.957472 -590.38 -240.076 172.118 0 0 0 0.5 
84 1 1 1.64692 8.84117 1.62335 29 0 1 382.189 7.69567 -2.08005 801.617 -378.133 -1288.89 0 0 0 0.5 
292 1 1 4.59336 7.90635 0.749292 -49 -1 0 281.37 -10.3518 7.76062 -646.497 278.976 795.867 0 0 0 0.5 
126 1 1 2.28385 9.60962 1.10976 19 0 0 489.654 2.41822 -37.9511 -860.455 1048.47 -1775.79 0 0 0 0.5 
853 2 2 1.58528 7.98742 0.986022 6 0 0 316.925 -10.2357 2.64537 -2014.78 929.698 1336.3 0 0 0 0.5 
182 1 1 4.18757 8.54187 1.64442 14 0 0 316.008 35.0845 -5.96812 4459.93 -4935.68 -51.3066 0 0 0 0.5 