ITEM: TIMESTEP
9000
ITEM: NUMBER OF ATOMS
1000
ITEM: BOX BOUNDS xy xz yz pp pp pp
0 10 0
0 10 0
-0 10 0
ITEM: ATOMS id type type x y z ix iy iz vx vy vz fx fy fz omegax omegay omegaz radius 
108 1 1 2.11271 1.22034 0.428487 -8 0 1 -266.114 -30.2844 8.38288 -5900.02 1382.23 -1409.25 0 0 0 0.5 
1000 2 2 2.86215 1.02469 0.443039 -11 0 0 -329.222 -0.0926277 -31.725 2450.84 291.078 991.696 0 0 0 0.5 
761 2 2 4.19591 0.381082 0.514317 -18 0 0 -426.64 10.2181 2.23976 408.314 1292.65 -809.471 0 0 0 0.5 
896 2 2 3.10398 4.95435 0.415356 -1 0 0 -12.0861 -7.02074 -3.76844 1179.01 -454.135 -829.551 0 0 0 0.5 
747 2 2 1.69072 0.301673 0.209087 -39 0 1 -447.508 -1.73537 -14.117 0 0 0 0 0 0 0.5 
171 1 1 1.97968 4.20078 1.08996 -2 0 0 -37.1741 -1.73353 7.32104 376.112 -171.272 474.343 0 0 0 0.5 
538 2 2 2.17885 0.923855 1.61426 35 1 0 -382.04 -8.57763 -8.07418 -1870.66 3859.17 -2717.13 0 0 0 0.5 
425 1 1 0.246018 1.79172 0.774976 -15 0 0 -284.613 12.8211 3.27746 -514.374 -798.634 -913.859 0 0 0 0.5 
279 1 1 2.77567 2.48133 0.692758 68 1 0 -207.534 14.3361 -15.1262 1811.58 926.654 -1223.62 0 0 0 0.5 
798 2 2 2.59019 0.452983 1.00994 -20 0 0 -421.822 -10.591 -27.6965 -3305.72 540.702 -2120.85 0 0 0 0.5 
849 2 2 1.02948 2.55323 0.664413 -4 0 1 -166.094 -19.3794 -21.126 -295.615 -77.0737 -70.502 0 0 0 0.5 
680 2 2 0.530374 1.67951 1.69286 -11 0 0 -261.064 -19.141 -17.9433 -1280.88 -353.521 -2544.38 0 0 0 0.5 
974 2 2 1.99248 2.70785 0.882177 73 1 1 -179.741 -3.63312 -0.17661 -3042.93 -233.057 -104.55 0 0 0 0.5 
886 2 2 0.564798 0.597813 1.81575 45 1 0 -403.766 8.66391 17.7469 -836.772 1547.22 -431.725 0 0 0 0.5 
882 2 2 2.45007 3.82898 0.449327 -1 0 0 -85.1093 6.07791 -14.4272 -728.164 656.937 -1025.4 0 0 0 0.5 
473 1 1 3.32955 4.70803 1.54433 4 0 0 -22.4114 -7.07347 -4.47717 -786.037 1752.35 -1274.22 0 0 0 0.5 
755 2 2 4.75862 2.05158 1.84526 -16 0 0 -230.873 -8.7204 -1.67865 -547.751 -522.656 468.124 0 0 0 0.5 
382 1 1 1.4772 1.86942 1.47555 -12 0 0 -274.901 9.36043 1.87382 -381.746 401.751 186.973 0 0 0 0.5 
205 1 1 0.728009 0.821992 0.651358 -40 0 0 -393.385 34.8881 -0.461443 3023.38 -1693.14 411.366 0 0 0 0.5 
392 1 1 1.67914 3.37135 1.38773 -8 0 0 -119.763 0.923496 -6.4662 -288.781 1910.16 627.687 0 0 0 0.5 
636 2 2 2.35375 1.65981 1.1943 -16 0 1 -291.375 17.7387 -16.1051 -1373.81 1838.49 -718.904 0 0 0 0.5 
672 2 2 2.07841 2.97769 0.0246862 -10 0 0 -104.328 6.36782 -2.12855 122.894 -136.355 1819.38 0 0 0 0.5 
378 1 1 4.6654 1.00181 1.12538 -11 0 1 -372.234 -11.9683 5.65729 -983.464 -892.624 1127.63 0 0 0 0.5 
212 1 1 1.31397 0.196742 1.6252 45 1 0 -412.965 -11.9567 -7.84004 -3214.38 642.035 -449.773 0 0 0 0.5 
620 2 2 4.23916 4.79893 1.31036 -2 0 0 -0.735812 0.596917 2.94105 -1100.4 -423.148 534.395 0 0 0 0.5 
759 2 2 0.925197 3.6696 1.91324 -8 0 0 -118.54 7.45548 -16.2304 400.897 1292.29 -1717.96 0 0 0 0.5 
393 1 1 0.778505 3.43287 0.721175 -7 0 0 -110.493 11.065 -3.02485 2159.73 -2435.38 1930.75 0 0 0 0.5 
316 1 1 3.8203 2.08001 1.48331 -27 0 0 -232.842 -12.4797 -9.18866 -1483.06 -315.314 1175.37 0 0 0 0.5 
71 1 1 1.91104 4.63119 0.318648 0 0 1 -19.8177 11.2378 -10.9537 909.922 875.86 -1238.32 0 0 0 0.5 
495 1 1 2.08908 2.13841 0.0849096 -6 0 1 -199.292 -10.0513 24.2783 -2761.1 -1538.77 -1395.36 0 0 0 0.5 
136 1 1 3.7186 2.92143 1.20999 -12 0 0 -184.941 1.64793 -5.7772 -334.978 -41.005 577.596 0 0 0 0.5 
359 1 1 3.67989 4.33076 0.402278 -4 0 0 -21.1972 1.82798 18.5826 1495.74 617.577 -24.7307 0 0 0 0.5 
965 2 2 1.03498 4.64339 0.541059 -4 0 0 8.12236 -18.1064 -9.41553 -1951.09 -510.817 505.435 0 0 0 0.5 
647 2 2 2.99603 2.12907 1.90007 -10 0 0 -241.597 -6.00391 -1.54048 423.377 377.523 283.672 0 0 0 0.5 
388 1 1 3.06996 1.26378 1.39221 -20 0 1 -368.899 -7.69241 -27.6734 3326.52 -2577.81 895.689 0 0 0 0.5 
100 1 1 0.14429 4.0114 0.996805 -2 0 0 -89.2395 23.0292 15.4287 1246.69 504.937 -1472.56 0 0 0 0.5 
641 2 2 4.53675 3.02722 0.562233 -4 0 0 -148.974 2.66709 14.1241 1104.39 -367.75 -161.419 0 0 0 0.5 
609 2 2 3.66141 3.46085 0.590383 -2 0 0 -103.485 12.3018 -23.2892 -1076.92 -23.5614 253.141 0 0 0 0.5 
586 2 2 3.09269 0.152418 1.3244 21 1 0 -466.321 -4.28486 9.90034 3684.94 -2471.9 822.444 0 0 0 0.5 
928 2 2 3.67659 3.91019 1.439 -3 0 0 -86.7908 0.148084 -16.8242 826.715 -1769.85 -541.384 0 0 0 0.5 
600 2 2 1.33605 4.47011 1.5527 1 0 1 -45.122 -3.24709 -14.6317 822.853 -917.585 1608.01 0 0 0 0.5 
157 1 1 0.539017 4.75106 1.53579 -2 0 0 -18.4707 -4.24159 -21.4836 -1102.57 250.92 -888.356 0 0 0 0.5 
670 2 2 0.35235 3.96852 0.0388691 -2 0 1 -26.8897 -4.91348 8.86816 -1372.99 1633.79 -1116.68 0 0 0 0.5 
517 2 2 2.7856 2.71897 1.48809 -10 0 0 -198.929 19.5229 -17.4688 903.43 1440.99 920.732 0 0 0 0.5 
713 2 2 4.19613 0.680363 1.87544 -33 0 1 -467.155 -4.43523 -14.5188 462.499 316.811 -739.239 0 0 0 0.5 
99 1 1 2.90179 3.26321 0.252007 -1 0 0 -113.863 8.29434 5.72029 578.277 168.559 17.4187 0 0 0 0.5 
731 2 2 2.96414 3.73101 1.1215 63 1 0 -111.235 -4.64053 16.7213 -430.92 -618.295 -170.804 0 0 0 0.5 
431 1 1 3.22718 1.84089 0.759227 -11 0 0 -252.412 8.71902 -11.9193 299.359 -4431.15 1096.6 0 0 0 0.5 
776 2 2 3.61176 0.881877 0.614917 -14 0 1 -374.784 10.4985 -7.66124 831.105 2022.14 1503.57 0 0 0 0.5 
413 1 1 4.21236 3.90077 1.9357 -21 0 0 -93.9682 22.0209 5.00723 3074.76 -839.321 -266.951 0 0 0 0.5 
302 1 1 4.50194 0.031135 0.612136 21 1 1 -452.349 -20.3505 16.0958 -4698.18 1098.5 3174.06 0 0 0 0.5 
758 2 2 4.49156 1.83206 0.875964 -12 0 0 -271.02 17.5515 -19.9734 1437.17 -206.018 -1472.81 0 0 0 0.5 
135 1 1 4.50366 3.21265 1.60518 -6 0 0 -155.23 -7.4279 -28.203 405.846 -790.77 -359.851 0 0 0 0.5 
15 1 1 2.23285 1.82464 2.50959 -14 0 1 -322.361 17.4432 -6.78025 5020.45 -198.029 -1003.16 0 0 0 0.5 
523 2 2 1.86749 2.99992 3.54242 -16 0 1 -207.178 10.7369 -12.759 -351.931 -535.504 333.159 0 0 0 0.5 
804 2 2 0.808782 0.858916 3.37033 -48 0 0 -453.15 -0.594021 20.2203 103.904 -1301.94 -1972.27 0 0 0 0.5 
159 1 1 0.955546 0.273426 2.61638 24 1 0 -455.689 -7.86922 13.6592 1090.18 -542.083 1295.15 0 0 0 0.5 
201 1 1 4.28441 2.368 3.93339 -18 0 0 -259.374 0.452721 27.226 -1037.63 -2416.77 2636.61 0 0 0 0.5 
204 1 1 1.65533 0.985252 2.27158 -41 0 0 -364.194 -17.29 13.1419 30.0024 -1240.61 189.606 0 0 0 0.5 
543 2 2 1.63059 1.48545 3.31584 -18 0 0 -330.38 -29.1195 -19.0137 -118.686 147.063 -648.658 0 0 0 0.5 
158 1 1 0.11585 4.96866 2.30881 0 0 0 4.85804 -11.6746 -18.2708 -107.465 -122.462 545.794 0 0 0 0.5 
704 2 2 0.0872579 0.467971 2.838 35 1 0 -462.777 5.83133 -1.67441 3435.57 -1170.53 -1011.08 0 0 0 0.5 
62 1 1 1.77831 2.23118 3.28465 -5 0 0 -245.828 -1.01362 4.16033 -3349.16 326.692 1845.64 0 0 0 0.5 
262 1 1 1.54589 0.436938 3.69578 -27 0 0 -500.268 -7.34157 -25.1229 2530.75 -1.89152 1053.39 0 0 0 0.5 
361 1 1 4.52037 3.55083 2.69686 -5 0 0 -151.693 4.18365 11.8847 662.772 419.24 75.4191 0 0 0 0.5 
276 1 1 2.46511 1.19305 2.68168 -19 0 1 -381.745 -30.0317 23.1107 -780.756 3236.51 1515.88 0 0 0 0.5 
854 2 2 1.03929 3.20688 2.59237 -4 0 0 -134.896 12.4842 4.16609 1887.97 -2151.29 212.107 0 0 0 0.5 
899 2 2 4.07237 1.54598 3.58004 -16 0 0 -348.161 -24.4078 10.955 855.152 2352.25 88.9781 0 0 0 0.5 
144 1 1 1.60267 2.1083 2.52847 -5 0 0 -271.925 1.95285 -15.4751 -5309.98 3000.64 -987.892 0 0 0 0.5 
858 2 2 4.49298 4.47942 2.63266 -1 0 0 -55.256 26.2461 4.43502 -1357.32 -1924.77 1036.66 0 0 0 0.5 
714 2 2 3.30341 3.54596 3.84732 55 1 0 -123.13 -3.14877 19.5767 -2285.46 1741.61 1203.31 0 0 0 0.5 
898 2 2 0.218054 2.25091 2.1646 -5 0 0 -219.47 -12.0936 1.10395 1819.6 -1253.29 3489.25 0 0 0 0.5 
289 1 1 3.50879 0.374776 3.90595 -40 0 -1 -508.859 13.9686 -8.60631 1047.59 -2827.74 -2730.23 0 0 0 0.5 
187 1 1 0.30116 1.95283 3.5182 -16 0 0 -276.39 1.58479 12.0469 3326.51 791.008 -667.637 0 0 0 0.5 
231 1 1 0.972676 1.32076 2.34474 -14 0 1 -354.726 3.05074 14.0657 435.157 -823.072 931.428 0 0 0 0.5 
461 1 1 0.373793 1.38785 3.0032 30 1 0 -370.648 16.8579 -19.6534 -2612.24 -791.703 -2084.64 0 0 0 0.5 
193 1 1 0.417736 0.131559 3.90102 19 1 0 -444.475 -23.2341 10.474 -225.392 -4.7854 -367.09 0 0 0 0.5 
943 2 2 2.62779 3.60147 2.95125 -6 0 0 -130.667 11.4985 16.743 -53.9609 1550.66 -670.902 0 0 0 0.5 
559 2 2 2.85728 0.531027 2.11975 -39 0 1 -468.612 -7.72788 -1.3085 2413.04 -1614.93 609.039 0 0 0 0.5 
999 2 2 1.85623 3.82999 3.28146 -7 0 0 -126.652 13.0314 13.7785 303.554 -584.39 1492.49 0 0 0 0.5 
488 1 1 1.07625 2.69633 3.17008 -36 0 1 -217.555 -13.9573 18.0987 -3000.86 545.327 -104.575 0 0 0 0.5 
807 2 2 1.89924 2.93412 2.18653 -2 0 0 -146.647 -3.25323 7.39188 -444.837 -1152.72 305.551 0 0 0 0.5 
817 2 2 1.2117 4.96913 2.26382 -2 0 0 -27.9632 16.2007 7.74608 -57.9789 -83.2321 -606.928 0 0 0 0.5 
240 1 1 4.84907 1.98326 3.39561 -26 0 0 -335.567 18.7122 -7.71235 2454.43 -4751.67 -234.477 0 0 0 0.5 
519 2 2 3.50382 3.42852 2.95704 -6 0 0 -134.977 18.0228 1.09033 272.097 790.947 -878.202 0 0 0 0.5 
895 2 2 3.49415 2.01874 2.95775 -32 0 0 -334.465 13.7349 0.543886 -471.391 -2111.98 924.031 0 0 0 0.5 
95 1 1 3.7161 4.41777 3.11188 -2 0 0 -81.4526 17.0057 -3.43763 210.169 382.851 514.918 0 0 0 0.5 
531 2 2 4.11453 2.48495 2.26475 -11 0 0 -218.95 -13.6617 -4.66413 696.334 -1432.17 881.678 0 0 0 0.5 
328 1 1 0.372306 3.84125 2.61385 -1 0 0 -82.7581 -1.86786 11.9018 -2512.47 2519.53 1140.57 0 0 0 0.5 
266 1 1 3.09433 1.16112 3.20636 -30 0 0 -393.184 3.40372 40.1012 3154.45 1212.14 666.648 0 0 0 0.5 
101 1 1 1.27972 4.18396 2.81855 0 0 0 -82.0968 1.34191 2.55421 900.92 -390.544 -2730.77 0 0 0 0.5 
423 1 1 2.63711 1.77042 3.42687 -26 0 0 -344.328 24.5766 2.91894 2564.95 -29.303 172.46 0 0 0 0.5 
675 2 2 2.82434 4.51783 3.10185 -1 0 0 -90.1281 13.167 0.801698 1746.54 -137.582 -1375.55 0 0 0 0.5 
941 2 2 1.01317 3.49274 3.66995 -4 0 0 -136.997 -3.2633 16.5572 -2945.4 1424.44 -1521.68 0 0 0 0.5 
820 2 2 2.57966 2.60795 2.96918 -12 0 0 -270.018 33.7363 -15.6248 1978.2 -3176.74 -1479.38 0 0 0 0.5 
429 1 1 4.23699 3.92812 3.57349 -11 0 0 -105.607 -6.06768 12.9086 1220.12 -1136.78 690.664 0 0 0 0.5 
257 1 1 0.564021 4.66851 3.05209 -4 0 0 -23.3968 -11.4321 -0.480679 -2199.8 1763.33 959.657 0 0 0 0.5 
773 2 2 3.63128 4.50263 2.21823 -6 0 0 -56.579 -3.18779 4.05285 -1140.55 -327.818 530.306 0 0 0 0.5 
768 2 2 4.81505 1.21789 2.72148 -16 0 -1 -396.86 1.27438 -8.75085 0 0 0 0 0 0 0.5 
529 2 2 2.0021 4.62783 3.59493 -4 0 0 -32.2279 0.85965 12.5052 -2036.73 787.477 46.283 0 0 0 0.5 
873 2 2 0.184359 2.98854 2.36137 -6 0 0 -157.079 11.7112 3.9243 52.2244 704.836 58.9397 0 0 0 0.5 
497 1 1 2.50036 0.252236 3.89431 29 1 0 -507.382 15.1307 3.44945 1719.96 -2980.33 -3686.85 0 0 0 0.5 
271 1 1 2.45369 0.30913 2.98478 -31 0 0 -501.255 -7.20069 -2.72904 629.588 -1807.81 -354.978 0 0 0 0.5 
364 1 1 2.71555 4.07824 2.10721 -2 0 0 -65.1025 5.06885 -6.45544 -216.581 950.557 667.231 0 0 0 0.5 
216 1 1 2.56472 2.69079 3.90578 -19 0 0 -239.111 11.1341 6.35512 1193.34 -590.895 362.427 0 0 0 0.5 
697 2 2 2.79867 3.18973 2.19971 -6 0 0 -150.055 6.07361 7.01472 -1964.04 -206.756 -401.545 0 0 0 0.5 
826 2 2 2.95528 1.35681 2.21328 26 1 0 -346.444 1.28907 -2.93561 1401.59 -1851.6 416.047 0 0 0 0.5 
33 1 1 3.39934 0.506666 2.88669 38 1 0 -486.792 -6.78148 -16.8398 1449.24 -2108.42 581.217 0 0 0 0.5 
587 2 2 3.62152 2.98939 2.20638 -9 0 1 -178.956 14.8918 -22.1498 835.76 1371.07 -592.08 0 0 0 0.5 
369 1 1 4.03168 2.9891 3.50598 -5 0 0 -183.674 8.47248 24.0697 973.507 114.685 -330.052 0 0 0 0.5 
416 1 1 4.58709 2.69895 3.00241 -9 0 0 -214.055 -3.58075 -2.76136 -32.694 2809.23 -641.141 0 0 0 0.5 
358 1 1 1.98884 3.88493 5.76777 -2 0 0 -77.0444 13.9596 1.21873 -355.277 181.602 -415.564 0 0 0 0.5 
283 1 1 1.06853 0.468763 4.83491 -28 0 0 -415.715 14.1355 0.619984 -1347.09 372.125 -1146.76 0 0 0 0.5 
503 2 2 1.11202 2.82247 4.84138 -11 0 0 -224.553 31.2591 2.63945 -824.14 -94.2354 2.68891 0 0 0 0.5 
708 2 2 2.20542 0.676419 4.60071 -30 0 0 -394.238 0.878029 -7.09142 -2105.09 3759.57 2377.42 0 0 0 0.5 
256 1 1 0.439803 2.31454 4.321 -7 0 0 -216.079 -11.3074 15.2495 2991.6 -722.244 -627.186 0 0 0 0.5 
366 1 1 2.31919 4.54488 4.38153 -3 0 0 -36.3671 -29.2156 -11.3225 -70.1228 1675.26 1411.33 0 0 0 0.5 
640 2 2 1.63177 0.855053 5.89227 -19 0 0 -368.298 -24.1135 7.73245 -3857.3 -189.744 2631.21 0 0 0 0.5 
863 2 2 0.482152 2.27673 5.38149 -10 0 0 -223.434 0.238349 -1.30412 -877.283 441.77 892.153 0 0 0 0.5 
805 2 2 2.31116 0.551303 5.44455 -20 0 0 -405.447 -7.06064 -5.10513 -629.694 44.117 102.137 0 0 0 0.5 
725 2 2 4.55327 4.30575 5.57802 0 0 0 -47.033 -7.8077 -6.31504 455.307 -419.438 917.257 0 0 0 0.5 
716 2 2 2.1799 1.52587 4.94431 -19 0 0 -321.891 8.20018 -3.77789 1061.83 -683.421 1019.46 0 0 0 0.5 
409 1 1 3.17807 3.07963 4.74622 61 1 0 -130.997 -16.7474 13.7592 -642.7 2144.3 1616.39 0 0 0 0.5 
900 2 2 1.59405 3.80845 4.91156 -5 0 0 -138.967 24.4543 3.48533 1783.81 486.985 2489.35 0 0 0 0.5 
225 1 1 0.885872 3.09567 5.94059 -7 0 0 -143.724 14.0558 -6.03364 -813.327 222.468 -29.444 0 0 0 0.5 
418 1 1 1.32258 1.97555 5.1022 -6 0 0 -261.464 14.5833 2.52973 54.4684 1293.43 -899.131 0 0 0 0.5 
771 2 2 2.61184 1.82033 5.66594 -15 0 -1 -297.868 8.72664 -12.5369 2721.98 -6.40783 -2371.85 0 0 0 0.5 
298 1 1 1.74445 1.13861 4.12392 -26 0 0 -362.565 -6.66907 3.72383 -829.155 -707.365 -2289.58 0 0 0 0.5 
38 1 1 0.00813828 1.20421 5.67925 -20 0 0 -284.18 -28.9954 3.06391 280.669 -964.183 -411.268 0 0 0 0.5 
236 1 1 1.09691 2.00478 5.97767 -13 0 0 -236.881 -13.2805 17.4191 31.162 346.973 832.512 0 0 0 0.5 
437 1 1 1.34885 0.0453915 5.63893 -21 0 0 -441.207 -0.0459077 8.60084 -1035.93 221.437 2113.28 0 0 0 0.5 
313 1 1 1.46497 1.29807 5.45034 -15 0 0 -317.124 -18.6463 -5.39169 -849.12 64.4231 -1972.96 0 0 0 0.5 
117 1 1 2.21799 3.1772 5.26656 -11 0 0 -144 -14.9856 -13.1442 -359.758 28.2245 -561.316 0 0 0 0.5 
789 2 2 1.31665 1.75881 4.29528 -29 0 0 -341.375 20.4861 -19.9044 -1129.39 1487.25 -86.6702 0 0 0 0.5 
683 2 2 3.798 4.77007 5.51346 -1 0 0 -26.9933 7.91831 -6.24733 712.405 -761.373 -719.139 0 0 0 0.5 
510 2 2 1.70871 3.52018 4.18863 -5 0 0 -145.852 14.5833 8.88122 1591.74 -182.069 339.09 0 0 0 0.5 
968 2 2 2.55943 0.116495 4.80814 33 1 0 -495.855 -16.1196 1.86698 2876.41 -4139.2 -154.353 0 0 0 0.5 
646 2 2 2.91416 3.97274 4.9227 -5 0 0 -107.289 -0.256169 16.0494 1569.52 -1123.89 1299.5 0 0 0 0.5 
901 2 2 3.86522 0.689736 5.56434 -12 0 0 -441.408 19.341 4.23092 5363.4 -3248.19 983.393 0 0 0 0.5 
340 1 1 1.05346 4.75084 4.09787 -4 0 0 -39.9889 -23.2127 -11.1749 -700.591 -923.091 81.3191 0 0 0 0.5 
995 2 2 3.4431 1.49848 5.35514 -16 0 0 -301.149 5.1132 0.0590539 -992.422 4170.66 -1770.64 0 0 0 0.5 
263 1 1 0.7222 3.86986 5.12082 -6 0 0 -126.377 12.1674 11.9297 1668.3 -1192.66 1529.63 0 0 0 0.5 
250 1 1 3.14994 4.83691 4.75083 -4 0 0 -34.8396 2.17931 7.30972 2477.79 -2937.41 473.868 0 0 0 0.5 
516 2 2 3.13431 0.52892 5.57413 -37 0 0 -420.212 -4.23238 -7.19406 -443.74 -2348.36 -909.203 0 0 0 0.5 
730 2 2 3.22063 0.96579 4.59573 -31 0 0 -354.444 -17.0714 5.55721 -263.403 1895.64 3442.86 0 0 0 0.5 
459 1 1 0.442714 4.58572 5.85984 0 0 0 -17.2624 -4.31695 12.616 401.316 13.8989 -49.7706 0 0 0 0.5 
405 1 1 0.406427 3.99385 4.15466 -6 0 0 -115.418 15.3202 -2.02429 1458.57 -1239.35 -2148.26 0 0 0 0.5 
539 2 2 0.132482 0.991235 4.01191 -21 0 0 -400.174 15.6461 16.3536 1024.65 10.7712 2197.45 0 0 0 0.5 
229 1 1 3.94713 2.3216 5.32671 -8 0 0 -235.066 -4.79901 23.1351 -1218.43 -779.509 302.771 0 0 0 0.5 
19 1 1 3.3972 2.34848 4.19727 -16 0 0 -263.568 -10.046 22.1084 978.445 -2533.75 -1141.8 0 0 0 0.5 
251 1 1 0.813361 4.78569 5.00456 -3 0 0 -39.4692 19.8395 -2.46571 -806.506 -508.032 74.5506 0 0 0 0.5 
852 2 2 4.36002 0.89178 4.7093 -27 0 0 -414.703 10.3534 8.23173 0 0 0 0 0 0 0.5 
487 1 1 2.67587 1.46785 4.19045 -25 0 0 -361.432 1.87739 15.0038 875.073 57.6372 -2169.3 0 0 0 0.5 
613 2 2 4.88767 3.13896 5.75091 -1 0 0 -155.465 3.21392 21.5834 45.1388 956.77 731.243 0 0 0 0.5 
291 1 1 0.148346 3.15894 5.39641 -10 0 0 -146.694 21.3036 -11.3827 -19.8246 874.374 -68.0842 0 0 0 0.5 
507 2 2 0.0698889 3.07881 4.12469 -13 0 0 -167.195 7.35968 -5.4432 3952.88 -4.8586 -988.35 0 0 0 0.5 
522 2 2 3.63287 4.53712 4.04053 -4 0 0 -50.4118 11.6979 3.86609 -357.067 651.953 145.157 0 0 0 0.5 
428 1 1 4.53107 3.17997 4.52055 -4 0 0 -167.727 8.27707 12.4252 27.8528 -729.158 246.913 0 0 0 0.5 
383 1 1 4.50532 4.38345 4.71063 -3 0 0 -60.5201 -9.12132 -1.80372 -1230.53 87.2123 -822.264 0 0 0 0.5 
654 2 2 4.58394 2.26283 4.80092 -26 0 1 -211.006 -14.0667 22.5944 110.277 859.8 -426.275 0 0 0 0.5 
278 1 1 2.00276 0.172756 7.56391 36 1 -1 -526.841 16.2682 31.2726 4434.96 1791.06 -973.314 0 0 0 0.5 
540 2 2 0.521947 0.20171 7.74158 -39 0 0 -475.742 2.01067 -9.01979 2157.31 5496.79 -400.032 0 0 0 0.5 
41 1 1 1.16322 0.107597 7.96022 -24 0 -1 -475.509 -8.4292 11.6421 135.772 -1014 513.166 0 0 0 0.5 
372 1 1 2.60373 1.51494 7.66585 -6 0 0 -236.326 -10.1761 6.57208 -1472.13 1704.36 -2693.6 0 0 0 0.5 
816 2 2 3.96193 3.7328 6.12996 -3 0 0 -104.053 3.50894 -30.7222 2227.41 -1263.7 -1537.55 0 0 0 0.5 
335 1 1 0.457181 2.26141 6.61046 -15 0 0 -229.43 -0.616838 8.03757 -444.004 406.89 1078.66 0 0 0 0.5 
52 1 1 2.27712 1.59081 6.65914 50 1 0 -251.637 -2.73788 11.4625 -1571.74 558.465 2087.56 0 0 0 0.5 
243 1 1 4.41434 3.22844 6.66798 -7 0 0 -126.088 -6.17488 -14.1952 232.418 77.0453 -819.942 0 0 0 0.5 
123 1 1 2.00368 2.14045 6.13782 -17 0 0 -228.671 -8.8865 -16.5217 -2254.88 1281.7 1628.89 0 0 0 0.5 
778 2 2 0.13989 0.0767182 6.28829 -42 0 1 -427.159 -26.2188 -26.995 -2876.44 358.151 185.211 0 0 0 0.5 
829 2 2 3.63902 4.09372 7.73079 1 0 0 -22.8489 -10.0675 11.5091 -1384.26 1906.16 1637.55 0 0 0 0.5 
79 1 1 0.687095 2.33905 7.50533 -1 0 0 -169.621 -6.55873 10.402 335.109 108.993 -174.554 0 0 0 0.5 
908 2 2 2.20258 0.876267 7.13982 -9 0 0 -331.509 -5.00492 14.5246 216.052 548.398 1918.21 0 0 0 0.5 
839 2 2 2.54265 2.75657 6.88671 -12 0 0 -178.732 7.42467 6.14422 -278.076 -1086.66 545.436 0 0 0 0.5 
222 1 1 0.0176655 1.46481 7.28321 56 1 0 -282.102 2.49285 21.3721 -2166.94 86.3031 -3244.47 0 0 0 0.5 
379 1 1 2.1396 2.04269 7.67372 -4 0 0 -195.886 3.51709 5.99172 -1345.92 1283.65 768.778 0 0 0 0.5 
568 2 2 4.75374 3.07506 7.58176 -4 0 0 -134.653 -1.91667 -0.543365 2154.63 -1159.56 237.54 0 0 0 0.5 
738 2 2 1.14941 0.962934 7.77432 40 1 0 -324.617 5.38993 -19.6969 -1409.93 -4421.01 -326.124 0 0 0 0.5 
740 2 2 0.562051 1.15684 7.96054 -8 0 0 -343.467 14.2292 14.9146 -642.177 206.722 592.324 0 0 0 0.5 
396 1 1 1.79803 2.90222 6.18307 -3 0 0 -164.985 6.32998 -0.221773 3075.75 1586.38 -1224.26 0 0 0 0.5 
662 2 2 2.54318 3.36957 7.73328 -1 0 0 -90.984 -9.32367 22.0457 -2000.57 393.654 -391.127 0 0 0 0.5 
352 1 1 1.20797 3.22767 6.88222 -4 0 0 -88.5725 4.81599 -8.94314 -2376.44 2752.71 -196.407 0 0 0 0.5 
838 2 2 1.94859 4.20549 6.9674 -1 0 0 -65.2663 26.2779 25.5567 -578.146 1227.59 624.768 0 0 0 0.5 
220 1 1 1.51497 0.164307 6.9078 38 1 0 -457.074 4.25542 11.9174 -1929.73 -733.616 -533.481 0 0 0 0.5 
43 1 1 1.61296 2.64132 7.42413 -5 0 0 -164.256 6.91476 -19.4332 -242.435 -897.043 962.266 0 0 0 0.5 
217 1 1 2.24457 3.57702 6.64755 -6 0 0 -95.0253 0.732861 9.36774 -3150.58 1931.69 596.542 0 0 0 0.5 
274 1 1 2.14527 0.791432 6.16589 -19 0 -1 -345.065 2.91924 6.46743 2070.9 2896.52 1814.98 0 0 0 0.5 
569 2 2 1.26991 1.40797 6.93996 51 1 -1 -269.799 -2.83446 -16.1602 60.6445 223.979 -419.922 0 0 0 0.5 
562 2 2 2.21745 0.307962 6.55008 13 1 0 -438.29 -20.0814 12.7978 603.408 -1336.31 1884.94 0 0 0 0.5 
116 1 1 2.57212 4.5936 6.19752 -2 0 0 -19.3385 -8.5841 18.6844 -2215.26 2317.05 2076.47 0 0 0 0.5 
924 2 2 4.54492 2.36104 6.88822 -7 0 0 -185.054 -2.14078 -13.7622 1596.85 -667.913 -321.95 0 0 0 0.5 
255 1 1 1.04214 3.5541 7.75475 -6 0 0 -101.426 16.2775 -10.6476 -146.978 611.117 -210.665 0 0 0 0.5 
464 1 1 4.64833 4.71173 6.41012 1 0 0 -17.0416 23.2026 -6.58488 -233.911 2365.22 -183.95 0 0 0 0.5 
161 1 1 1.00586 4.608 7.28952 -1 0 0 9.70246 -10.0078 13.1502 381.317 -463.525 -55.9026 0 0 0 0.5 
572 2 2 3.88966 2.52557 7.33493 -6 0 0 -174.202 -3.84301 -6.80855 -979.753 -1756.9 463.201 0 0 0 0.5 
944 2 2 2.90404 2.52007 6.12778 -14 0 0 -213.89 6.4445 -9.92922 -461.128 -1896.35 -2130.76 0 0 0 0.5 
152 1 1 3.78258 4.5717 6.52693 -3 0 0 -15.2279 2.1436 -36.421 -7.48567 1760.1 -2059.05 0 0 0 0.5 
331 1 1 1.28899 4.57362 6.28488 1 0 0 -5.84132 -10.6591 -5.33556 736.537 -328.158 -50.3204 0 0 0 0.5 
911 2 2 3.05832 0.948451 7.89081 -42 0 -1 -346.832 -2.94497 -8.37642 5764.31 -2414.36 383.821 0 0 0 0.5 
563 2 2 4.18154 4.10538 7.03374 -2 0 0 -23.1191 17.3814 -17.9265 912.682 -471.167 1483.95 0 0 0 0.5 
237 1 1 4.06146 3.39999 7.33162 -5 0 0 -117.119 6.54426 5.18488 -339.565 -1575.08 -1773.31 0 0 0 0.5 
66 1 1 3.41809 3.12403 7.8324 -3 0 0 -110.893 -3.76452 11.9063 35.4841 1237.8 1971.9 0 0 0 0.5 
399 1 1 4.76672 1.75355 7.49028 -16 0 -1 -242.3 -13.6423 -14.179 457.267 287.197 -1153.2 0 0 0 0.5 
146 1 1 3.09429 3.61471 6.93554 -1 0 0 -78.6993 16.2083 11.0918 163.717 369.512 -652.294 0 0 0 0.5 
344 1 1 4.43622 4.75247 7.767 -1 0 0 -10.2777 14.1141 -24.46 386.969 369.329 -1261.93 0 0 0 0.5 
786 2 2 2.95397 1.18541 6.13595 -22 0 1 -322.604 -0.740169 -7.4213 1829.06 -234.883 -474.989 0 0 0 0.5 
299 1 1 3.02674 2.31201 7.3133 -10 0 0 -186.129 -5.77378 31.05 -1814.57 856.699 671.087 0 0 0 0.5 
935 2 2 0.374241 3.51755 7.04719 -1 0 0 -91.9753 -4.06618 -10.5792 116.571 -479.367 438.179 0 0 0 0.5 
513 2 2 4.5598 2.2074 6.0433 -10 0 0 -192.882 -18.5564 -8.32705 176.827 -305.014 -1348.26 0 0 0 0.5 
97 1 1 2.76758 4.39392 7.66373 -1 0 0 -20.4124 1.82536 -13.0125 185.937 -658.028 -277.675 0 0 0 0.5 
653 2 2 3.19078 0.954916 6.99174 38 1 0 -300.39 -15.9176 -24.0431 257.923 -289.437 1322.83 0 0 0 0.5 
272 1 1 3.19089 1.96714 6.59945 -30 0 -1 -252.039 -11.4001 1.90756 1149.59 -1813.58 65.6612 0 0 0 0.5 
679 2 2 3.10782 4.07152 6.04877 -2 0 0 -73.3877 7.37696 -10.7119 1806.81 -2289.7 79.6235 0 0 0 0.5 
607 2 2 3.19904 4.84829 6.88546 1 0 0 28.462 -4.65016 2.60386 -2389.33 775.277 1024.85 0 0 0 0.5 
47 1 1 2.74192 3.23332 6.03748 -20 0 0 -158.895 25.1689 3.06377 1629.12 622.879 -2051.61 0 0 0 0.5 
329 1 1 3.66602 1.65309 7.59179 -9 0 0 -238.122 -26.3275 -24.2968 250.944 -3009.47 846.671 0 0 0 0.5 
623 2 2 4.15813 3.07999 9.69072 -4 0 0 -159.407 1.45882 16.8079 2890.68 -807.113 -1258.04 0 0 0 0.5 
840 2 2 4.49485 3.79032 9.163 -3 0 0 -57.3345 6.085 2.35721 -1350.93 -588.254 2235.32 0 0 0 0.5 
120 1 1 0.198228 0.872781 9.01111 -20 0 -1 -387.492 0.049313 -22.4928 -3963.09 3710.45 932.838 0 0 0 0.5 
368 1 1 2.63093 2.42504 8.42286 -4 0 -1 -164.421 -7.65494 -2.3527 -1481.45 -551.195 103.644 0 0 0 0.5 
819 2 2 1.80922 2.52123 8.88612 -4 0 0 -174.808 0.558387 4.28189 -2185.21 -26.1583 -1452.68 0 0 0 0.5 
633 2 2 0.386046 0.725808 9.82807 -21 0 0 -405.436 13.1272 -5.55327 3309.56 -2273.6 599.05 0 0 0 0.5 
661 2 2 1.59447 3.00288 8.23499 -4 0 -1 -116.65 7.27145 -4.54693 2373.86 -659.679 -1411.32 0 0 0 0.5 
888 2 2 1.33278 1.76399 8.46174 48 1 0 -294.881 32.5498 -8.64555 1561.98 2292.08 298.8 0 0 0 0.5 
284 1 1 3.94143 0.50403 8.40368 -39 0 0 -447.984 15.3966 -23.7659 -11.9757 -563.599 190.532 0 0 0 0.5 
832 2 2 3.42089 2.83455 8.93887 -5 0 -1 -153.023 -10.9949 3.6981 587.68 1599.19 -1237.61 0 0 0 0.5 
760 2 2 0.579491 1.74267 8.87096 -6 0 0 -288.503 3.92428 2.87035 -279.792 1494.28 625.119 0 0 0 0.5 
110 1 1 2.00181 3.71283 8.7734 -1 0 0 -50.9258 -13.1298 6.83348 -515.613 -446.737 -510.979 0 0 0 0.5 
227 1 1 1.85515 1.11482 8.35175 -11 0 0 -322.201 -7.42595 7.01321 540.377 -775.363 -187.042 0 0 0 0.5 
787 2 2 0.906431 2.52811 9.06093 -17 0 0 -176.993 17.2718 -1.72618 -1290.84 -1345.86 -185.823 0 0 0 0.5 
242 1 1 2.68479 0.474847 9.11424 -28 0 0 -361.233 -30.3452 -25.0907 -577.288 -804.148 3774.12 0 0 0 0.5 
596 2 2 1.37502 3.18911 9.65347 -13 0 0 -86.3908 -5.85269 -12.0513 -639.989 -605.459 -1303.07 0 0 0 0.5 
360 1 1 1.14559 1.20246 9.3223 -19 0 0 -364.765 1.75018 15.233 1237.74 -3424.92 164.154 0 0 0 0.5 
387 1 1 2.55374 1.19013 9.58117 -19 0 -1 -315.929 -9.87084 -33.9128 762.253 -95.903 1639.68 0 0 0 0.5 
264 1 1 2.60511 4.44826 9.73596 -1 0 -1 -17.0486 11.4299 -10.0652 197.236 462.454 -502.488 0 0 0 0.5 
89 1 1 1.28219 1.96725 9.79996 -3 0 0 -199.797 -12.1958 4.22024 -727.752 260.474 -14.9076 0 0 0 0.5 
597 2 2 4.23019 2.78866 8.82081 -5 0 0 -134.605 9.25556 5.55187 1453.11 524.975 -675.391 0 0 0 0.5 
239 1 1 0.796309 0.564508 8.7005 -34 0 0 -457.245 16.0337 -9.97329 5686.71 -1713.03 1456.85 0 0 0 0.5 
637 2 2 2.25693 1.96424 9.21865 -9 0 0 -229.05 -7.09803 -14.8396 1181.73 1042.5 -64.8413 0 0 0 0.5 
30 1 1 2.8445 3.66574 9.39405 0 0 0 -55.7052 -4.40755 -16.3468 -248.798 -1130.35 74.2202 0 0 0 0.5 
56 1 1 2.56044 2.90303 9.23632 -5 0 0 -153.745 -7.63706 -11.0175 -96.392 -240.066 21.2892 0 0 0 0.5 
347 1 1 4.82907 4.56384 8.76489 2 0 0 -3.20283 9.16372 7.64672 -998.675 271.843 1201.38 0 0 0 0.5 
339 1 1 0.535139 3.25857 9.7352 0 0 0 -87.0936 -38.6293 -2.67085 -1353.06 -754.416 -224.751 0 0 0 0.5 
739 2 2 3.9886 4.74652 9.2294 3 0 0 -1.83937 -0.450158 15.2445 -126.063 15.1017 247.768 0 0 0 0.5 
677 2 2 3.73725 3.85497 9.6094 -2 0 0 -59.6646 2.51087 10.4131 -2036.95 2967.09 -440.197 0 0 0 0.5 
619 2 2 3.65898 3.63881 8.65724 -1 0 0 -52.1888 9.07091 -0.0879879 416.83 -1605.6 750.008 0 0 0 0.5 
847 2 2 0.949986 4.53476 8.20122 1 0 0 -15.697 3.80612 15.8644 55.9427 -46.7439 680.961 0 0 0 0.5 
809 2 2 2.80567 0.460703 8.40318 22 1 -1 -447.571 -6.23005 -9.36372 -305.043 -1735.17 -4073.05 0 0 0 0.5 
480 1 1 4.37745 2.26292 8.13795 -7 0 0 -173.398 -8.53079 -16.0094 699.606 1130.81 1997.81 0 0 0 0.5 
11 1 1 3.28322 2.82093 9.85217 -6 0 -1 -147.335 -6.1051 -3.06398 -237.859 -3144.7 -316.437 0 0 0 0.5 
551 2 2 1.93543 4.46447 8.14232 0 0 0 -14.9609 0.867429 8.24644 -18.9875 -167.571 178.334 0 0 0 0.5 
567 2 2 0.380476 4.27928 9.09969 1 0 0 -30.5073 8.11818 4.72668 -161.357 -138.097 292.503 0 0 0 0.5 
811 2 2 2.87361 4.81447 8.87659 0 0 0 16.2306 10.3418 -13.5715 -101.166 143.476 444.273 0 0 0 0.5 
354 1 1 4.83451 3.43679 8.36278 -3 0 0 -90.5759 1.67388 15.1794 -952.778 2358.08 -1177.62 0 0 0 0.5 
588 2 2 1.43614 4.12548 9.66658 0 0 0 -10.7275 -20.384 -6.19096 -53.3756 1435.89 -8.32857 0 0 0 0.5 
308 1 1 0.946543 3.62989 8.64998 1 0 0 -41.1363 -12.9557 8.77278 -2073.42 2003.63 1730.33 0 0 0 0.5 
16 1 1 3.80401 0.307777 9.39459 -21 0 -1 -414.315 6.93012 -6.71396 -1814.37 991.021 -1025.92 0 0 0 0.5 
860 2 2 3.79755 4.85922 8.30418 3 0 0 10.3682 -9.62377 5.3445 -865.255 -205.863 871.221 0 0 0 0.5 
265 1 1 3.46221 2.25168 8.18734 -5 0 0 -162.491 -15.4107 11.6916 259.657 -272.955 -452.985 0 0 0 0.5 
608 2 2 2.88993 3.96431 8.45092 -1 0 0 -59.5563 1.68756 -7.09874 -586.652 33.3016 83.0997 0 0 0 0.5 
233 1 1 2.85964 1.96602 9.95257 -7 0 0 -224.493 2.23019 -29.0097 3000.79 -960.619 -1298.44 0 0 0 0.5 
103 1 1 0.0489548 4.75574 9.91707 -1 0 -1 -2.27405 5.01691 -16.0038 1.9319 590.622 -736.129 0 0 0 0.5 
384 1 1 4.81554 1.22916 8.82447 -10 0 0 -319.043 4.72955 -1.98951 0 0 0 0 0 0 0.5 
774 2 2 4.97574 1.64303 9.90722 -8 0 0 -227.967 -1.58388 11.9937 -1923.84 2678.98 -208.321 0 0 0 0.5 
165 1 1 1.11561 9.11969 1.66008 15 0 0 406.747 -8.3538 -12.1153 1393.65 917.134 1742.7 0 0 0 0.5 
248 1 1 3.55149 8.08208 0.582205 -44 -1 1 283.815 -10.4121 11.6728 0 0 0 0 0 0 0.5 
394 1 1 2.19203 6.77153 1.72782 3 0 0 86.6837 38.8344 8.42551 3410.22 -924.623 177.502 0 0 0 0.5 
410 1 1 2.96448 5.32912 1.2049 -2 0 0 13.7496 14.0159 -2.54905 141.401 534.882 -772.883 0 0 0 0.5 
292 1 1 0.326383 8.39869 1.26286 -45 -1 0 326.026 1.35519 -12.8617 2554.49 474.309 -415.508 0 0 0 0.5 
252 1 1 2.52137 8.17297 0.753961 42 0 1 279.506 18.7351 17.7555 -410.734 -2.38605 -377.727 0 0 0 0.5 
698 2 2 4.60371 7.6918 1.54291 6 0 0 225.923 -4.40702 -10.1922 174.982 697.845 -516.829 0 0 0 0.5 
44 1 1 2.39168 6.32437 0.392545 5 0 0 88.6328 5.32853 5.06563 1541.41 2072.78 1755.46 0 0 0 0.5 
545 2 2 3.95422 9.63779 1.34479 28 0 0 400.102 6.30189 46.4462 1898.87 872.841 -3790.96 0 0 0 0.5 
494 1 1 2.59974 6.09644 1.39474 1 0 0 44.0069 23.0593 0.594757 171.24 -1.4313 -326.582 0 0 0 0.5 
145 1 1 0.311941 9.52298 1.54324 21 0 0 450.723 4.13963 33.8223 -2081.3 -4443.73 1989.08 0 0 0 0.5 
983 2 2 4.81153 7.11483 0.254917 7 0 0 186.51 1.08007 -22.5624 -1941.53 2818.94 244.068 0 0 0 0.5 
996 2 2 1.63737 5.67577 0.0276354 3 0 0 65.6858 -10.8825 -4.86741 -3066.07 -464.775 -1724.7 0 0 0 0.5 
622 2 2 2.49204 5.49271 0.44869 -1 0 0 26.0029 1.41502 -19.9438 186.174 -156.968 651.976 0 0 0 0.5 
803 2 2 4.03885 9.01968 0.611208 13 0 0 366.391 -6.32551 16.6331 1014.54 661.786 962.521 0 0 0 0.5 
438 1 1 0.120498 8.5387 0.360719 9 0 0 338.512 -30.7727 -16.4858 3367.41 -4844.61 -2318.8 0 0 0 0.5 
800 2 2 0.52188 9.91236 0.613432 43 0 0 514.91 1.20561 -21.0484 1411.65 1097.35 138.92 0 0 0 0.5 
386 1 1 2.56559 7.55413 1.37802 7 0 0 213.292 6.92239 41.4128 234.224 -315.725 -373.733 0 0 0 0.5 
726 2 2 4.79098 8.43864 0.989805 31 0 1 320.725 4.65544 -11.6029 52.6993 -605.863 470.912 0 0 0 0.5 
960 2 2 2.94054 9.30984 1.24565 28 0 1 414.934 -22.8845 -1.57923 227.649 -30.3716 -71.1085 0 0 0 0.5 
923 2 2 4.27082 5.74387 1.40661 7 0 0 41.1111 4.0081 -5.86585 -146.395 304.662 -1040.78 0 0 0 0.5 
906 2 2 2.92298 7.04041 0.706997 10 0 0 189.341 3.41206 -4.52518 -1450.07 -1358.15 -329.652 0 0 0 0.5 
833 2 2 4.33516 6.73942 1.34211 4 0 0 144.655 -7.80148 6.50869 483.136 -1300.53 -423.851 0 0 0 0.5 
975 2 2 1.19082 9.31607 0.0254031 30 0 1 413.803 -12.1666 32.3265 1866.68 -2200.96 1979.8 0 0 0 0.5 
874 2 2 3.93452 7.10872 0.525842 11 0 0 188.342 -4.97508 -27.7449 -1975.86 2793.75 1333.15 0 0 0 0.5 
590 2 2 0.534673 5.37717 0.654425 4 0 0 24.3998 1.57726 -7.24249 -8.04121 571.277 131.578 0 0 0 0.5 
224 1 1 2.05527 9.97355 1.67812 -25 -1 1 531.308 -5.97818 14.5975 4047.33 -578.38 -10.3008 0 0 0 0.5 
174 1 1 1.35111 8.52088 1.0782 15 0 0 307.014 -2.90786 -13.8984 313.417 -1461.16 -839.088 0 0 0 0.5 
810 2 2 3.60824 7.28414 1.42591 19 0 0 200.919 0.0871459 -1.39019 -2135.76 1660.45 -502.993 0 0 0 0.5 
891 2 2 -0.0116423 6.34507 1.2202 1 0 0 91.0599 15.9221 -4.41114 197.1 549.214 -173.915 0 0 0 0.5 
634 2 2 0.108202 7.28324 0.314105 13 0 0 205.646 2.31359 -3.57174 -25.2302 -869.421 -1358.2 0 0 0 0.5 