# vtk DataFile Version 4.2
Generated by LIGGGHTS
ASCII
DATASET POLYDATA
POINTS 1000 float
2.67794 4.41899 1.82846 4.18236 4.04078 0.663605 0.308888 0.602048 0.878691 
4.52809 4.70465 1.67349 0.209627 2.38644 0.851095 1.24775 3.37797 0.57934 
2.33649 2.46441 0.0757955 1.54952 0.0282327 1.20792 3.77907 3.03853 0.876193 
4.32693 3.65416 1.43483 0.585958 1.58754 1.19076 0.271706 1.82298 0.326534 
2.04957 3.14639 1.46965 1.47194 2.72052 0.173247 1.27706 0.394221 0.334278 
2.44406 0.406548 1.24979 0.870579 0.255153 1.47949 2.27277 1.73211 1.14275 
3.7984 2.16352 0.756591 2.30616 0.906036 0.713128 2.45312 3.79066 0.882138 
2.2636 4.57655 1.23434 1.00615 4.56537 0.563073 3.07858 2.15227 0.18248 
3.73104 2.5896 1.55427 4.49298 3.00837 0.280488 2.88562 3.14763 0.479833 
2.30275 4.91491 0.462949 0.0396496 3.01764 0.999726 0.483302 4.20924 1.33044 
3.28342 0.855417 0.110835 4.02605 0.644734 0.683317 1.56159 4.73904 1.59521 
3.01659 1.51182 0.360163 4.55231 2.46483 1.65161 2.80047 1.28097 1.57477 
3.74588 4.98961 0.601614 3.01719 2.43416 1.05171 3.71974 3.3895 0.105604 
0.433729 0.950931 1.95932 3.6835 0.687518 1.63675 0.670231 3.74848 0.451007 
2.99208 0.0353577 0.0652363 -0.037998 4.28769 0.20843 4.3469 4.78245 0.0355208 
4.81129 0.300895 0.654549 3.03256 2.73379 1.87553 3.3845 3.61465 1.65464 
3.52042 1.33927 1.05192 3.49463 4.44538 1.94238 4.59339 1.89946 0.848307 
4.95462 1.68717 1.75134 2.09969 2.33506 2.85098 0.921755 3.40333 3.11406 
2.20294 2.39703 3.76433 4.31892 3.90846 3.29369 4.68775 0.514127 3.87851 
2.12537 0.961886 3.88736 4.41814 1.99546 3.39506 2.40341 0.169413 3.6472 
1.99436 3.38463 2.60087 0.369675 1.83512 2.16706 2.46795 2.91745 2.18068 
0.209316 2.64422 2.7236 0.545466 1.22379 2.95206 4.42976 0.362679 2.9577 
4.73543 1.54482 2.62412 1.25901 2.04365 2.03289 0.215197 1.8714 3.57879 
1.20329 1.02208 3.76797 2.35437 3.16089 3.36506 2.20317 0.759986 2.90305 
1.1275 0.668979 2.35006 1.45911 1.36959 2.88691 2.69254 4.98431 3.24226 
1.15864 2.431 2.89785 3.63325 1.81367 3.94768 0.966252 3.57794 2.03897 
3.43234 4.79655 2.77741 3.82679 2.78187 2.28876 3.279 3.71909 3.88165 
0.0348092 3.54627 2.35083 0.549988 4.42197 2.18801 3.08686 1.01513 3.44034 
2.89344 4.18398 3.40989 1.6597 4.47619 3.94813 2.5849 4.26639 2.57614 
3.0393 0.234226 3.20609 1.88808 4.17751 3.07138 3.84211 2.16238 2.90032 
0.650408 4.70618 2.86849 4.42174 0.50158 2.0568 3.69533 1.66224 2.02443 
2.74666 2.25226 3.62105 3.64116 4.99998 3.6326 3.18571 3.03939 3.27538 
2.98557 3.70581 2.60495 2.71993 1.48138 2.3956 2.98341 2.32366 2.62684 
3.07334 1.70707 3.18148 2.98198 0.728417 2.41982 4.70116 2.56481 2.61047 
4.76317 1.38081 3.74002 4.8625 3.39592 2.16396 4.84684 2.85234 3.47665 
1.65534 0.801107 4.86752 2.4908 4.46424 5.44526 1.58657 3.38839 5.62865 
1.94112 3.24917 4.75162 1.02914 0.913113 5.32127 0.585231 0.136737 4.19938 
2.19747 2.37288 4.73447 3.90483 3.57023 4.26965 2.88562 2.0247 4.26344 
2.50655 3.73002 5.69811 2.43454 0.305424 4.51725 2.12655 0.48102 5.3216 
0.96775 1.5321 5.46175 0.0572304 0.586336 5.28913 1.42434 0.429731 5.92373 
4.33246 2.88636 4.10877 1.60393 2.53587 4.13403 1.37145 3.49336 4.254 
0.413099 2.34013 4.83334 1.8749 1.86898 5.47945 2.01772 1.52214 4.55482 
3.69383 1.2598 4.60672 1.09633 2.51604 5.5497 1.21867 2.1087 4.76223 
4.19754 4.52975 4.14288 1.74463 4.0318 5.03454 2.4298 4.35579 4.02092 
2.74204 3.24177 4.60932 4.31683 0.992853 4.97378 3.72104 2.04398 5.07722 
4.21273 0.208042 4.69354 3.25472 0.0376432 4.83119 0.122278 3.1328 4.53643 
3.12166 1.26744 5.45725 2.75964 4.93466 4.72144 3.57106 4.83882 5.30542 
2.90471 0.411541 5.8867 0.157959 4.35356 5.02313 2.58692 2.26117 5.80741 
0.0160599 4.03047 4.23308 4.10103 0.0777854 5.77687 0.132098 3.64027 5.79723 
3.31181 4.47938 4.45303 3.65023 0.624481 5.61335 3.85822 2.99002 5.21017 
1.43356 4.67602 4.81824 2.84249 1.9745 5.08501 3.09525 2.8955 5.22306 
3.74789 3.91903 5.0284 3.71063 0.472875 4.05828 4.58124 1.78778 5.33762 
4.55292 2.54647 4.95126 4.56011 3.04819 5.58887 0.46231 0.307746 7.70568 
2.07116 2.44238 7.45544 1.74157 2.79785 6.19898 3.41499 1.01322 7.20608 
3.9836 4.13212 7.37949 2.02166 4.19366 7.74704 2.05874 1.12456 6.85117 
1.35748 0.458977 7.73544 3.59389 4.5665 6.90353 0.755131 1.68159 7.7625 
2.33404 2.60257 6.40857 0.935609 1.16833 6.95889 4.69178 1.93685 6.12501 
2.19765 3.16579 7.03554 0.843759 1.82243 6.2223 0.395626 2.25978 6.71538 
1.12383 2.60283 7.79355 1.12003 0.234375 6.86374 1.72392 1.57289 7.50064 
1.22323 2.16605 7.01635 2.37319 1.9293 6.70821 0.626048 0.666908 6.23451 
1.9612 0.340885 7.21746 2.34848 0.730784 6.2851 1.27498 3.191 7.07045 
1.57176 1.48957 6.29761 2.07941 3.84111 6.62506 4.80645 1.2339 7.61688 
4.56123 0.593852 6.52658 3.91278 3.25665 7.51915 0.131169 3.25327 7.10383 
1.27996 4.06656 6.23451 2.21285 4.92526 6.00744 2.72283 1.67328 7.52912 
3.58629 3.34966 6.71464 0.169737 4.57137 7.34436 2.88753 2.50875 7.87182 
3.19956 1.96636 6.16139 4.44232 1.50772 6.82671 2.46112 4.86221 6.89627 
3.06595 3.30365 6.02727 2.89049 4.73275 7.69169 2.89609 3.79645 7.51327 
0.210555 4.33869 6.27924 4.25305 0.225863 7.42539 0.102929 2.81947 6.12672 
0.0201748 2.49404 7.87442 3.06817 4.83045 6.3065 0.91502 4.1038 7.54702 
3.9133 2.31387 6.8151 1.77971 4.87606 7.3092 4.13276 1.87607 7.61349 
4.06193 4.95438 6.10155 4.52557 2.79788 7.28597 4.49687 4.36042 6.51489 
4.59389 3.5349 6.58048 4.99356 0.430511 7.39742 2.06598 0.839129 9.81593 
0.646758 0.200481 9.38434 1.23275 0.959572 9.58777 0.682752 2.96897 8.80019 
0.963784 1.35842 8.62663 0.118975 1.28955 8.42084 1.26291 3.4183 8.01861 
1.72747 1.05456 8.34958 1.52824 0.241605 8.88309 4.01419 3.3641 8.71537 
2.18781 1.50255 9.07611 2.1796 1.94138 8.33465 0.53827 0.475737 8.58921 
0.565117 1.87911 9.2824 1.72871 2.79543 9.39129 3.88057 4.06119 8.24681 
2.10005 1.93001 9.59172 3.22166 0.761207 8.10189 0.837538 2.20978 8.52515 
2.13612 2.45303 8.81627 0.667594 1.29716 9.95935 2.0163 3.04149 8.22661 
2.71359 3.77831 9.52136 4.28778 2.3131 8.49556 3.95562 2.15858 9.6553 
0.631097 3.33295 9.53324 3.67588 3.89923 9.29878 0.360605 4.40943 8.9124 
2.92479 1.75666 9.42047 2.56556 0.882462 9.21139 4.15971 1.16899 9.85622 
4.34921 1.44313 8.46185 2.27013 0.104474 8.39546 0.342338 3.58285 8.24676 
0.465884 4.09528 9.70963 3.25878 2.34509 8.73797 3.15017 0.643409 9.21433 
2.99006 4.69039 8.68505 2.95206 3.11544 8.61499 3.5413 2.8346 9.46337 
4.45735 3.17255 9.38611 1.23964 4.85335 8.31461 2.15535 4.89945 8.51574 
1.63552 4.52745 9.86415 1.0722 4.71917 9.27181 4.05307 2.83955 8.07633 
2.74972 1.50685 8.3896 2.9413 3.87915 8.50724 3.45982 0.0741946 8.93328 
1.13782 3.99274 8.65631 4.83192 2.20022 9.8016 4.82919 4.75766 8.79924 
0.439363 4.99589 8.26702 4.94591 0.779617 8.38178 1.57865 9.85048 0.349959 
0.700875 5.95761 0.657621 0.997581 8.86166 0.683559 4.1855 6.98549 0.876461 
1.30395 8.69928 1.91519 3.65782 7.01266 0.0744264 4.87649 7.50804 1.97562 
2.99628 7.69018 0.534802 3.25127 5.65502 0.630849 4.47422 9.31632 1.96419 
1.91464 9.59194 1.53427 0.643512 9.48876 0.566383 2.87252 7.37211 1.94502 
4.49362 9.56038 0.0945467 3.54745 5.27391 1.69565 0.0385284 8.01304 0.0854011 
2.53573 5.17658 1.93079 4.34903 7.88278 1.55446 0.34945 9.07285 1.38052 
0.973811 9.4605 1.9272 0.128951 8.48623 0.819023 2.87689 6.43569 0.765665 
4.51037 8.50863 0.917299 2.95229 8.15163 1.35677 1.97449 8.92103 1.21889 
2.18389 8.38322 1.8631 1.03103 7.53659 1.6861 0.668378 5.22257 1.82405 
2.30956 8.02675 0.134963 0.346753 6.90081 0.988327 1.74475 5.77783 1.68839 
1.97542 6.47554 0.580729 4.80432 5.31392 0.998292 0.547312 5.11503 0.587265 
3.92541 6.09998 1.22833 3.49935 7.34657 0.804654 0.507014 7.88153 1.00767 
0.868021 7.47115 0.417178 2.32809 6.65238 1.52521 0.192943 5.98084 1.41255 
2.18293 5.52673 0.998006 3.02968 5.96502 1.50755 2.17323 9.56874 0.500128 
3.80025 8.4601 1.77545 3.67654 6.99373 1.62978 1.52576 8.28031 0.554101 
4.18102 9.21152 1.01129 0.991123 6.17686 1.93329 2.70984 8.99113 0.622564 
4.01911 8.72614 0.0725758 4.05054 6.13319 0.305417 4.18725 7.96291 0.16222 
1.78388 9.63582 2.44458 4.83927 5.40904 2.7529 3.44749 6.9599 3.70776 
0.249033 7.91026 2.10272 3.7565 9.47195 2.44062 0.840429 8.43066 3.55541 
1.70741 8.73088 3.94618 1.36456 9.35757 3.30826 2.15884 9.33631 3.33419 
3.14355 9.92496 2.12647 3.45264 9.63724 3.28052 0.527026 8.73519 2.73083 
2.74985 7.97132 2.40505 3.59104 8.19518 2.69258 4.81659 8.47201 2.20044 
3.09501 5.57033 2.52013 0.594525 9.326 3.64735 3.99964 7.56654 2.33039 
3.77896 6.54714 2.48859 0.980178 9.90357 2.78869 2.64118 7.94395 3.44214 
2.36892 5.87204 2.15824 1.28995 8.27977 2.67989 2.83828 6.63032 2.42782 
1.17793 6.24118 3.267 0.0823634 6.07025 3.24485 0.394031 5.24606 3.41802 
4.53849 6.24124 3.53442 2.22951 8.54699 2.79276 -0.0187554 5.41146 2.53067 
2.34487 5.55017 3.04464 1.79329 7.10482 3.73941 0.461366 6.69125 2.30217 
3.06607 7.3787 3.04517 1.46855 5.35981 3.66592 1.32329 6.99024 2.35045 
0.657677 7.22557 3.68842 1.34209 7.56254 3.14576 4.75173 9.06318 2.83756 
3.91325 8.82048 3.3254 2.02854 6.2192 3.14033 2.44269 6.85866 3.7454 
2.08468 7.0612 2.83158 4.65407 8.05503 3.10036 4.68217 6.32186 2.61373 
4.74271 9.26186 3.75 4.00766 6.57699 4.27767 3.97201 9.51026 4.13599 
4.71826 6.12405 4.83755 -0.0698221 9.7095 5.24465 3.41838 8.2421 4.15768 
3.73816 6.93465 5.3297 1.76419 8.60063 5.90686 1.15965 9.92399 4.10278 
2.62486 8.27339 5.26632 0.766865 9.9105 5.02858 2.54101 8.4929 4.36573 
4.81881 6.83541 4.41256 4.16276 8.72043 4.55149 0.291284 8.47153 4.3564 
3.07737 7.08146 5.75606 3.09719 7.92133 5.67362 3.71063 7.17385 4.61114 
3.02534 5.42456 5.58315 1.37755 9.75546 5.57705 3.3689 8.84601 5.87495 
4.04471 5.3612 4.47245 4.8041 7.73469 5.91952 0.827591 9.20585 4.79687 
0.932104 7.39259 5.36629 2.029 9.46666 5.51991 4.12189 9.46416 5.13153 
1.09587 6.74496 4.84441 1.44039 8.84096 4.86146 1.70145 7.42484 4.66313 
0.994667 5.15553 5.78146 0.121363 5.58375 4.56715 3.88864 6.05343 5.24622 
0.456989 6.07356 5.39765 2.37553 6.03069 4.33045 0.516935 7.61543 4.67183 
[...]
POINT_DATA 1000
FIELD FieldData 7
id 1 1000 int
924 481 483 766 322 446 159 762 465 
871 25 80 527 1000 137 526 270 941 
968 750 760 644 755 162 288 18 106 
90 603 765 4 181 710 252 828 400 
380 812 616 842 259 250 503 401 725 
246 947 592 23 413 67 421 952 190 
354 75 43 747 361 269 486 22 746 
795 769 967 480 809 247 78 254 583 
948 975 265 416 785 908 860 626 593 
541 999 180 699 955 803 542 153 647 
243 984 767 606 742 350 691 794 744 
930 358 835 267 833 568 980 433 185 
572 575 456 741 896 778 611 10 93 
619 514 229 913 346 292 258 987 172 
308 640 7 895 182 82 951 120 217 
193 823 653 1 631 666 970 816 102 
284 251 620 838 191 488 464 24 544 
64 763 781 783 204 694 524 922 126 
438 95 509 761 706 861 748 521 211 
142 375 260 201 378 74 650 61 167 
355 262 157 163 452 956 352 743 671 
609 550 487 961 415 132 780 16 119 
478 582 281 460 169 399 502 974 139 
283 927 40 635 222 5 529 65 108 
954 425 787 887 393 590 291 373 408 
639 652 804 290 983 424 130 199 314 
35 573 241 155 33 863 214 366 608 
293 72 656 210 225 586 341 383 372 
249 42 186 208 321 623 138 374 890 
533 912 45 318 233 84 697 168 701 
381 273 928 692 534 477 578 563 227 
916 670 387 996 894 202 931 545 962 
802 118 883 414 736 419 698 945 739 
588 994 391 800 171 889 100 817 727 
279 497 176 685 192 776 914 532 832 
633 385 946 775 986 240 367 161 407 
26 300 324 156 680 280 329 923 985 
15 576 127 231 395 351 209 909 799 
76 615 179 522 3 782 950 63 911 
213 602 634 825 370 442 919 841 745 
197 846 627 235 505 839 203 990 493 
436 959 704 535 376 715 900 253 275 
504 536 729 99 140 873 88 122 59 
511 256 820 221 313 662 885 771 859 
610 600 789 898 720 837 469 872 546 
151 174 628 915 888 831 92 866 553 
255 525 337 963 131 133 636 36 874 
53 468 158 512 749 714 822 423 869 
836 585 686 551 27 981 466 30 146 
965 129 791 57 695 448 184 453 567 
570 991 672 13 384 360 979 998 753 
879 515 807 756 175 81 68 69 824 
66 903 32 128 796 599 417 28 135 
589 242 462 618 858 46 268 325 37 
239 343 537 306 349 296 716 89 123 
678 136 936 369 668 422 205 538 34 
134 382 315 591 679 392 693 294 29 
116 467 854 87 886 958 450 173 510 
555 327 548 675 549 439 298 530 41 
724 613 539 165 713 2 482 547 420 
857 458 797 39 405 20 9 144 933 
597 17 768 696 427 792 905 853 430 
332 149 147 91 523 566 875 953 38 
428 978 440 339 851 995 557 731 751 
418 844 461 513 189 56 445 664 345 
389 501 674 454 110 207 196 770 434 
925 79 98 641 819 406 47 877 864 
654 902 957 907 301 266 598 96 278 
51 939 282 932 338 709 394 893 918 
58 865 390 966 821 660 485 101 629 
348 228 12 700 55 845 862 580 646 
531 726 216 989 667 826 21 104 495 
829 459 579 784 921 364 798 612 356 
154 295 940 492 702 11 665 506 899 
717 721 200 625 353 328 403 910 224 
232 565 843 285 658 938 105 703 331 
307 772 929 661 86 988 220 31 305 
971 651 688 926 257 115 813 734 516 
624 992 113 431 880 773 277 891 508 
977 737 708 443 596 333 876 815 711 
722 754 559 648 621 806 310 48 121 
645 437 764 148 218 484 125 759 870 
827 496 237 581 740 868 972 917 810 
904 577 805 944 317 316 410 935 614 
455 850 472 683 426 49 855 178 73 
111 388 637 723 212 852 942 323 274 
344 117 663 396 728 808 449 476 856 
457 574 357 334 561 976 735 215 264 
607 8 569 85 758 303 649 934 906 
194 238 677 183 712 594 867 312 195 
507 630 518 997 14 302 690 642 479 
969 263 244 786 83 444 849 752 884 
571 368 801 897 409 342 779 234 19 
562 669 473 564 818 145 707 112 901 
114 340 673 500 847 160 359 540 556 
790 363 788 682 50 299 319 659 336 
320 601 657 732 757 777 560 397 245 
892 402 490 71 219 475 271 451 558 
103 432 943 489 435 62 617 718 814 
517 143 552 499 309 474 622 498 811 
964 398 881 335 604 377 520 52 70 
543 164 326 848 793 166 463 6 982 
687 54 188 676 362 441 109 226 379 
94 206 297 681 223 187 447 347 261 
733 937 276 230 949 289 528 287 44 
834 684 429 150 587 124 719 386 774 
198 584 638 605 655 738 236 248 311 
632 107 471 60 730 170 365 705 304 
920 141 595 286 77 830 491 97 554 
973 371 840 689 878 404 177 882 330 
152 993 411 643 272 494 960 412 519 
470 
type 1 1000 int
2 1 1 2 1 1 1 2 1 
2 1 1 2 2 1 2 1 2 
2 2 2 2 2 1 1 1 1 
1 2 2 1 1 2 1 2 1 
1 2 2 2 1 1 2 1 2 
1 2 2 1 1 1 1 2 1 
1 1 1 2 1 1 1 1 2 
2 2 2 1 2 1 1 1 2 
2 2 1 1 2 2 2 2 2 
2 2 1 2 2 2 2 1 2 
1 2 2 2 2 1 2 2 2 
2 1 2 1 2 2 2 1 1 
2 2 1 2 2 2 2 1 1 
2 2 1 2 1 1 1 2 1 
1 2 1 2 1 1 2 1 1 
1 2 2 1 2 2 2 2 1 
1 1 2 2 1 1 1 1 2 
1 2 2 2 1 2 2 2 1 
1 1 2 2 2 2 2 2 1 
1 1 1 1 1 1 2 1 1 
1 1 1 1 1 2 1 2 2 
2 2 1 2 1 1 2 1 1 
1 2 1 1 1 1 2 2 1 
1 2 1 2 1 1 2 1 1 
2 1 2 2 1 2 1 1 1 
2 2 2 1 2 1 1 1 1 
1 2 1 1 1 2 1 1 2 
1 1 2 1 1 2 1 1 1 
1 1 1 1 1 2 1 1 2 
2 2 1 1 1 1 2 1 2 
1 1 2 2 2 1 2 2 1 
2 2 1 2 2 1 2 2 2 
2 1 2 1 2 1 2 2 2 
2 2 1 2 1 2 1 2 2 
1 1 1 2 1 2 2 2 2 
2 1 2 2 2 1 1 1 1 
1 1 1 1 2 1 1 2 2 
1 2 1 1 1 1 1 2 2 
1 2 1 2 1 2 2 1 2 
1 2 2 2 1 1 2 2 2 
1 2 2 1 2 2 1 2 1 
1 2 2 2 1 2 2 1 1 
2 2 2 1 1 2 1 1 1 
2 1 2 1 1 2 2 2 2 
2 2 2 2 2 2 1 2 2 
1 1 2 2 2 2 1 2 2 
1 2 1 2 1 1 2 1 2 
1 1 1 2 2 2 2 1 2 
2 2 2 2 1 2 1 1 1 
2 1 2 1 2 1 1 1 2 
2 2 2 1 1 1 2 2 2 
2 2 2 2 1 1 1 1 2 
1 2 1 1 2 2 1 1 1 
2 1 1 2 2 1 1 1 1 
1 1 2 1 1 1 2 1 1 
2 1 2 1 2 1 1 2 1 
1 1 1 2 2 1 2 1 1 
1 1 2 1 2 2 1 1 2 
2 1 2 2 2 1 1 2 1 
2 2 2 1 2 1 1 2 1 
2 1 2 1 1 1 1 1 2 
2 1 2 2 1 2 2 2 1 
1 1 1 1 2 2 2 2 1 
1 2 1 1 2 2 2 2 2 
1 2 1 2 1 1 1 2 1 
1 2 2 1 1 1 1 2 1 
2 1 1 2 2 1 1 2 2 
2 2 2 2 1 1 2 1 1 
1 2 1 2 1 2 1 2 2 
1 2 1 2 2 2 1 1 2 
1 1 1 2 1 2 2 2 2 
2 2 1 2 2 2 1 1 1 
2 1 2 2 2 1 2 2 1 
1 1 2 1 2 1 2 2 2 
2 2 1 2 1 1 1 2 1 
1 2 2 1 2 2 1 2 1 
1 2 2 2 1 2 1 1 1 
2 2 2 2 1 1 2 2 2 
2 2 1 1 2 2 1 2 2 
2 2 2 1 2 1 2 2 2 
2 2 2 2 2 2 1 1 1 
2 1 2 1 1 1 1 2 2 
2 1 1 2 2 2 2 2 2 
2 2 2 2 1 1 1 2 2 
1 2 1 2 1 1 2 1 1 
1 1 2 2 1 2 2 1 1 
1 1 2 1 2 2 1 1 2 
1 2 1 1 2 2 2 1 1 
2 1 2 1 2 1 2 2 2 
1 1 2 1 2 2 2 1 1 
2 2 2 2 1 1 2 2 1 
2 1 1 2 1 1 2 2 2 
2 1 2 2 1 1 2 1 1 
2 2 1 2 2 1 2 1 2 
1 1 2 1 2 1 1 2 2 
2 1 2 2 1 1 1 2 1 
1 2 2 2 2 2 2 1 1 
2 1 1 1 1 1 1 1 2 
1 1 2 1 1 1 2 2 2 
2 1 2 1 1 1 2 1 2 
2 1 2 1 2 1 2 1 1 
2 1 1 2 2 1 1 1 2 
2 1 1 2 1 1 1 1 1 
1 1 1 2 1 1 1 1 1 
2 2 1 1 2 1 2 1 1 
2 2 1 1 2 1 2 1 2 
1 2 2 2 2 2 1 1 1 
2 1 1 1 2 1 1 2 1 
2 1 2 1 1 2 1 1 2 
2 1 2 2 2 1 1 2 1 
1 2 1 2 1 1 2 1 2 
1 
i 3 1000 int
-49 0 1 73 0 0 144 1 0 
-67 0 1 114 1 0 -43 0 1 
211 1 0 -109 0 1 -19 0 1 
-9 0 0 -118 0 0 -45 0 1 
11 0 0 -91 0 0 -167 0 0 
-113 0 1 -88 0 1 -22 0 0 
215 1 1 -119 0 1 -52 0 1 
289 1 1 -45 0 0 142 1 0 
-27 0 -1 -43 0 1 -54 0 0 
53 0 0 184 1 0 210 1 0 
-149 0 0 106 1 0 96 0 0 
144 1 1 -47 0 1 -122 0 0 
-44 0 1 34 0 1 -31 0 1 
-114 0 1 -132 0 -1 -49 0 1 
-4 1 0 55 0 0 -36 0 0 
184 1 1 2 0 1 -26 0 0 
-119 0 1 -40 0 0 225 1 1 
169 1 0 14 0 0 -39 0 1 
-46 0 1 191 1 1 -109 0 0 
-181 0 0 -50 0 0 -141 0 0 
176 1 1 132 1 0 -30 0 0 
-82 0 0 -31 0 1 166 1 -1 
-100 0 2 164 1 0 -159 0 0 
-9 0 1 -1 0 0 -118 0 1 
219 1 0 179 1 1 -63 0 1 
-91 0 0 270 1 1 -77 0 1 
-27 0 1 -53 0 -1 23 0 1 
166 1 0 -39 0 0 8 0 0 
32 0 -1 12 0 1 188 1 0 
-200 0 1 26 0 0 -89 0 0 
-59 0 0 171 1 1 -96 0 1 
-127 0 -1 3 0 -1 161 1 0 
160 1 0 9 0 0 141 1 0 
-34 0 0 -51 0 0 -43 0 1 
-141 0 0 -7 0 0 -63 0 0 
146 1 1 179 1 -1 12 0 0 
-80 0 0 132 1 -1 -58 0 0 
-106 0 0 -11 0 -1 -145 0 1 
-40 0 0 -148 0 1 119 1 -1 
-60 0 1 -76 0 0 -118 0 0 
-10 0 0 205 1 0 -286 -1 -1 
-105 0 1 166 1 0 -164 0 0 
-70 0 1 -117 0 0 -63 0 0 
-79 0 0 52 0 -1 43 0 -1 
-39 0 0 -143 0 -1 -56 0 0 
171 1 0 206 1 -1 239 1 0 
-192 0 -1 33 0 0 20 0 0 
197 1 -1 -7 0 0 -9 0 -1 
-97 0 0 -62 0 0 -17 0 0 
5 0 1 137 1 0 -114 0 1 
23 0 0 164 1 -1 2 0 0 
49 0 -1 73 1 1 159 1 0 
-63 0 1 -139 0 1 -201 0 0 
-62 0 1 35 0 0 175 1 -1 
14 0 -1 -18 0 0 -102 0 0 
-128 0 0 63 0 0 -45 0 0 
189 1 -1 -74 0 0 147 1 0 
-94 0 -1 161 1 -1 -121 0 0 
-72 0 0 -147 0 0 7 0 0 
-43 0 0 -127 0 0 167 1 -1 
132 1 0 -162 0 0 -54 0 0 
161 1 0 27 0 0 -86 0 0 
-83 0 0 -59 0 0 -22 0 0 
-42 0 0 52 0 0 -118 0 -1 
-10 0 0 -2 0 -1 54 0 0 
-147 0 0 -111 0 0 0 0 0 
-13 0 1 -7 0 -1 -6 0 -1 
-18 0 0 211 1 0 -120 0 -1 
-130 0 0 322 1 0 -34 0 0 
-142 0 0 23 0 0 -33 0 0 
-282 -1 0 225 1 0 29 0 -1 
-18 0 0 -59 0 0 -155 0 0 
179 1 -1 -136 0 0 -57 0 0 
137 1 -1 82 1 -1 -18 0 -1 
-109 0 0 -139 0 -1 -15 0 -1 
73 1 0 -29 0 0 -152 0 -1 
170 1 0 8 0 -1 -22 0 0 
-46 0 -1 -217 0 -1 -86 0 0 
-129 0 1 -105 0 0 280 1 1 
40 0 0 228 1 0 -53 0 0 
-18 0 -1 -11 0 0 -44 0 0 
-135 0 0 167 1 0 -97 0 0 
140 1 -1 -99 0 0 219 1 0 
15 0 -1 -73 0 0 -125 0 0 
-76 0 1 -83 0 0 149 1 -1 
-26 0 0 -8 0 -1 -54 0 0 
-49 0 0 -25 0 0 -35 0 -1 
260 1 -1 12 0 -1 92 1 0 
-81 0 0 -103 0 0 115 0 0 
-25 0 -1 48 1 0 84 0 0 
41 0 1 -174 -1 2 13 0 0 
160 0 0 42 0 1 112 0 0 
103 0 0 32 0 1 -118 -1 1 
-97 -1 0 -71 -1 1 -180 -1 0 
-67 -1 0 10 0 0 99 0 0 
30 0 0 115 0 -1 -130 -1 0 
35 0 1 159 0 1 2 0 0 
127 0 0 -226 -1 2 110 0 0 
67 0 0 82 0 0 22 0 0 
66 0 1 74 0 0 -4 0 0 
277 1 0 -25 0 0 2 0 0 
-13 0 0 40 0 0 -17 0 1 
373 1 0 168 0 1 68 0 1 
27 0 1 26 0 1 -125 -1 1 
32 0 1 49 0 0 -4 0 0 
-150 -1 1 -212 -1 0 82 0 0 
-138 -1 0 58 0 1 -162 -1 1 
121 0 -1 1 0 1 32 0 0 
148 0 0 103 0 -1 114 0 0 
43 0 0 -143 -1 0 -116 -1 0 
-117 -1 1 140 0 0 69 0 0 
-106 -1 2 87 0 0 -125 -1 1 
-38 0 1 106 0 0 -5 0 1 
-228 -1 0 -82 -1 1 131 0 0 
111 0 1 157 0 0 114 0 0 
-14 0 1 55 0 0 84 0 -1 
23 0 -1 86 0 0 -199 -1 -1 
224 1 1 140 0 0 81 0 -1 
120 0 -1 -18 0 0 16 0 0 
-113 -1 0 63 0 0 -36 -1 1 
98 0 0 -47 0 1 -5 0 0 
10 0 0 -158 -1 0 -29 0 1 
-152 -1 0 9 0 0 191 0 0 
67 0 0 132 0 0 104 0 -1 
114 0 0 -161 -1 0 143 0 0 
-141 -1 0 -190 -1 0 -127 -1 0 
68 0 0 -160 -1 0 173 0 1 
-156 -1 -1 102 0 0 -159 -1 0 
64 0 0 102 0 0 79 0 -1 
-23 0 -1 4 0 0 -124 -1 0 
89 0 0 -145 -1 -1 -84 -1 1 
35 0 0 -132 -1 0 -179 -1 1 
46 0 -1 -32 0 1 -73 0 0 
-43 0 0 44 0 -1 -194 -1 0 
143 0 0 -6 0 0 24 0 0 
-15 0 0 82 0 -1 38 0 1 
56 0 0 341 1 0 69 0 0 
63 0 0 35 0 -1 -243 -1 1 
-130 -1 1 -216 -1 -1 138 0 0 
84 0 0 86 0 0 132 0 1 
-131 -1 0 -195 -1 -1 97 0 0 
51 0 0 9 0 0 -48 -1 1 
52 0 -1 -194 -1 0 348 1 0 
-99 -1 0 -208 -1 0 -25 0 0 
138 0 -1 -109 -1 0 50 0 -1 
11 0 0 -129 -1 0 94 0 -1 
90 0 0 24 0 0 -10 0 0 
59 0 -1 -174 -1 -1 45 0 -1 
130 0 0 82 0 0 21 0 0 
56 0 0 56 0 -1 25 0 0 
-225 -1 1 70 0 0 -22 0 -1 
15 0 -1 -30 0 0 -183 -1 0 
88 0 0 -121 0 0 67 0 0 
153 0 1 -194 -1 -1 -80 -1 0 
-91 -1 1 25 0 -1 50 0 1 
110 0 0 -97 -1 0 10 0 0 
-75 -1 0 -36 0 -1 184 0 -1 
53 0 0 18 0 -1 72 0 -1 
100 0 0 50 0 -1 3 0 -1 
75 0 0 -278 -1 0 129 0 -1 
-83 -1 1 -8 0 -1 92 0 0 
40 0 -1 116 0 -2 -282 -1 -1 
-260 -1 0 -59 -1 0 123 0 0 
80 0 -1 67 0 0 54 0 -2 
-39 0 -1 -122 -1 0 -25 0 -1 
25 0 -1 2 0 -1 22 0 0 
-34 0 0 1 0 0 -240 -1 -2 
-116 0 -1 207 0 0 155 0 0 
-129 -1 0 -188 -1 -2 55 0 0 
-254 -1 0 -18 0 -1 -15 0 -1 
52 0 -1 77 0 0 104 0 -1 
45 0 0 282 1 0 18 0 -1 
13 0 0 271 1 0 171 1 2 
130 1 0 160 1 1 -47 0 0 
-28 0 0 -51 0 0 -115 0 1 
-62 0 0 -141 0 0 -55 0 0 
-122 0 0 -70 0 2 -163 0 0 
-188 0 0 -42 0 1 -97 0 1 
40 0 0 -187 0 1 -40 0 1 
47 1 0 57 0 0 -4 0 1 
-21 0 0 37 0 0 175 1 0 
-95 0 0 10 0 0 -190 0 0 
247 1 0 19 0 0 -24 0 0 
-98 0 1 -104 0 0 -127 0 -1 
34 0 0 -27 0 0 200 1 0 
-58 0 0 157 1 0 -17 0 1 
-136 0 0 -16 0 0 -113 0 0 
-11 0 0 -117 0 1 239 1 1 
-38 0 1 87 0 0 -79 0 1 
-77 0 1 31 0 0 4 0 0 
-66 0 1 -148 0 0 -126 0 1 
146 1 0 276 1 0 147 1 1 
-124 0 1 148 1 0 245 1 0 
-76 0 0 175 1 0 -53 0 0 
-28 0 0 94 1 0 176 1 0 
-72 0 0 150 1 0 -47 0 0 
188 1 0 -77 0 1 167 1 1 
211 1 0 -54 0 0 -100 0 0 
110 1 0 -101 0 1 -47 0 0 
-30 0 0 -54 0 1 -60 0 1 
-109 0 0 188 1 1 -28 0 1 
-76 0 1 225 1 1 47 0 0 
-112 0 0 71 0 0 -193 -1 0 
-58 0 1 -94 0 0 184 1 -1 
-2 0 1 -47 0 0 195 1 0 
-69 0 0 99 1 0 124 1 0 
144 1 -1 12 0 0 -98 0 0 
46 0 -1 -99 0 -1 109 1 -1 
-62 0 1 175 1 0 6 0 0 
-100 0 1 -99 0 0 -151 0 -1 
-24 0 0 -107 0 1 -90 0 0 
99 1 0 110 1 0 -30 0 0 
-43 0 0 170 1 0 -55 0 0 
-65 0 0 129 1 -1 -123 0 1 
68 0 0 -41 0 0 251 1 0 
-88 0 1 -3 0 0 -68 0 1 
-55 0 0 15 0 0 -43 0 0 
-54 0 1 -67 0 1 -48 0 0 
-161 0 0 -17 0 1 34 0 0 
3 0 0 113 1 -1 7 0 -1 
-142 0 0 186 1 0 -19 0 -1 
118 1 1 -94 0 0 -130 0 -1 
-87 0 0 179 1 0 -127 0 0 
-33 0 0 112 1 0 36 0 -1 
-8 0 -1 -42 0 1 -142 0 0 
-74 0 1 -92 0 0 -29 0 0 
70 0 -1 -51 0 0 19 0 -1 
134 1 0 -142 0 0 -10 0 -1 
194 1 -1 -61 0 1 -20 0 1 
-63 0 -1 -33 0 1 22 0 0 
257 1 0 144 1 0 64 0 -1 
52 0 0 25 0 -1 -26 0 1 
134 1 0 -42 0 0 119 1 -1 
192 1 0 -61 0 0 -100 0 1 
18 0 -1 -135 0 0 45 0 -1 
-98 0 -1 12 0 0 -88 0 -1 
-136 0 0 21 0 -1 -266 -1 0 
111 1 -1 -55 0 0 -134 0 0 
111 1 -1 -86 0 0 -22 0 -1 
-72 0 0 138 1 -1 113 1 -1 
-110 0 -1 -99 0 0 -143 0 0 
192 1 0 4 0 0 -89 0 0 
60 1 0 81 0 -1 208 1 -1 
109 1 -1 -93 0 -1 -43 0 0 
-24 0 0 12 0 -1 32 0 0 
-227 -1 0 -73 0 -1 2 0 0 
-50 0 0 89 0 -1 -103 0 0 
-17 0 0 -67 0 0 -84 0 1 
15 0 -1 37 0 0 44 0 0 
127 1 -1 161 1 -1 -106 0 -1 
-83 0 0 -7 0 0 -120 0 -1 
-50 0 -1 -61 0 0 120 1 0 
19 0 0 93 0 1 6 0 1 
54 0 0 109 0 -1 -8 0 1 
-227 -1 0 51 0 0 19 -1 0 
124 0 0 -170 -1 1 -95 -1 2 
102 0 0 185 0 0 -172 -1 1 
39 0 0 -232 -1 0 -188 -1 -1 
73 0 0 -152 -1 0 80 0 0 
-25 0 1 26 0 1 87 0 0 
15 0 0 -89 -1 1 -155 -1 1 
36 0 0 12 0 1 -227 -1 1 
74 0 0 68 0 0 52 0 0 
47 0 0 72 0 0 -21 0 0 
80 0 1 69 0 1 202 0 0 
81 0 1 -1 0 0 148 0 1 
41 0 1 54 0 0 87 0 0 
-238 -1 0 -211 -1 0 -5 0 1 
99 0 -1 96 0 0 -122 -1 1 
39 0 0 9 0 1 -186 -1 1 
-138 -1 0 83 0 0 -185 -1 0 
36 0 1 23 0 1 109 0 0 
112 0 0 -220 -1 0 71 0 0 
117 0 0 -72 -1 1 -310 -1 0 
-140 -1 1 153 0 0 70 0 1 
36 0 1 19 0 -1 59 0 0 
48 0 1 24 0 0 -231 -1 -1 
46 0 0 313 1 1 -13 0 1 
-4 0 0 -56 0 0 -103 -1 0 
125 0 1 -253 -1 0 44 0 0 
19 0 0 136 0 0 150 0 0 
-321 -1 0 4 0 0 -117 -1 0 
-221 -1 -1 8 0 0 128 0 -1 
37 0 0 24 0 0 90 0 0 
-20 0 0 -219 -1 0 112 0 -1 
-160 -1 0 46 0 -1 77 0 0 
30 0 0 32 0 0 11 0 0 
12 0 -1 -104 -1 0 98 0 0 
50 0 0 97 0 0 90 0 0 
-243 -1 1 73 0 0 -159 -1 -1 
53 0 0 80 0 -1 -28 0 0 
53 0 -1 -161 -1 0 -185 -1 0 
81 0 0 12 0 -1 55 0 0 
-53 0 0 25 0 1 64 0 0 
15 0 0 45 0 0 -121 -1 0 
85 0 -1 47 0 -1 -46 0 0 
81 0 1 -177 -1 0 -181 -1 1 
-11 0 0 89 0 0 74 0 -1 
59 0 0 68 0 0 58 0 0 
53 0 0 178 0 0 48 0 0 
67 0 -1 98 0 -1 -14 0 -1 
-87 -1 0 91 0 1 -242 -1 1 
66 0 0 165 0 0 84 0 0 
-146 -1 0 56 0 -1 -13 0 0 
-192 -1 1 149 0 -1 50 0 -1 
151 0 0 22 0 -1 51 0 -1 
151 0 0 63 0 0 11 0 0 
115 0 -1 48 0 0 49 0 0 
42 0 0 -126 -1 0 -147 -1 0 
-8 0 0 -54 0 1 117 0 -1 
25 0 0 1 0 -1 -73 0 0 
57 0 0 -12 0 -1 -12 0 0 
119 0 -1 -68 -1 0 -192 -1 0 
100 0 0 97 0 1 -204 -1 -1 
77 0 -1 177 0 0 70 0 -1 
51 0 0 56 0 0 -4 0 0 
84 0 -1 -23 0 0 115 0 0 
151 0 0 94 0 -1 -162 -1 0 
-8 0 0 -87 -1 0 57 0 -2 
27 0 0 -214 -1 0 199 0 0 
-147 -1 0 -229 -1 -1 -18 0 0 
26 0 -1 -201 -1 1 83 0 0 
45 0 0 -156 -1 -1 129 0 -1 
-184 -1 -1 -137 -1 0 -144 -1 0 
-179 -1 0 -67 -1 0 108 0 0 
78 0 0 140 0 0 248 1 -1 
84 0 -1 16 0 0 -184 -1 -1 
-13 0 0 -27 0 0 -11 0 0 
-115 -1 0 142 0 0 10 0 0 
54 0 0 -10 0 0 65 0 -1 
43 0 0 36 0 0 -11 0 -1 
7 0 1 -162 -1 -1 33 0 -1 
176 0 0 -214 -1 0 -126 -1 -1 
89 0 -1 
v 3 1000 double
-25.343249813 -29.442520427 -21.111323749 -88.37051499 10.974292955 -18.041271569 -436.1475467 3.6524707611 -20.02340134 
-68.073047958 10.95880314 10.794486274 -269.22674806 4.6894760156 12.576872093 -118.86916971 -0.13083676529 24.770986834 
-234.89038102 17.753841432 16.817489372 -475.40219875 9.7102817105 -4.9732034723 -196.93118995 17.564034259 21.753198978 
-148.9669469 3.7117625067 18.224460337 -376.5925557 8.8151209601 -20.165162123 -311.13559553 3.8724555438 -4.1610076019 
-161.53013284 -16.578604845 -21.415567879 -181.84425517 -28.597722267 16.799542317 -481.16521935 21.06130836 -2.3179598251 
-455.44322093 8.1183965688 22.338491437 -469.82780675 -1.8279601691 12.060180947 -325.00037898 12.310615028 8.3451283231 
-250.20513331 -14.175731983 -12.428437752 -359.013949 -10.852269316 -8.2216135507 -53.939509145 -13.52198073 -30.869777844 
-11.043258041 -9.152252532 -34.587976838 -31.754500612 -1.6136393557 20.767707935 -234.26029146 23.672735909 -17.592975671 
-223.3816523 -8.8790635541 6.0039674541 -170.50373421 -4.0492393073 14.737800221 -152.37278802 -8.9629253347 -25.989060124 
35.499389303 -11.377064583 -58.647189264 -207.29770707 18.117984081 5.3872118555 -38.438585473 -6.6121114682 9.3638838073 
-376.33971409 -25.251643731 -10.119166371 -373.64989041 -21.76007959 -20.534378892 13.948667426 -8.7365445257 7.6984755464 
-345.55561977 -15.552441579 6.0235782835 -250.31909155 12.923724234 -16.026978914 -335.24760079 -25.081957008 6.90591793 
51.300176708 -32.576478523 2.8819096709 -220.12892179 -24.534085096 -1.9264196115 -155.79742922 19.314561472 -4.1140814477 
-460.45107377 10.152738779 -12.093928391 -426.83817815 -15.659820898 -7.1999581028 -125.21449987 0.86052766698 14.997706539 
-538.85922662 15.11128319 -21.023901174 -58.42138971 -12.318259071 32.592290027 31.32917663 -26.009347695 -22.037361856 
-445.22529477 -0.1863946477 8.3457752241 -218.44235637 -0.087506459267 -9.2410448533 -155.11277818 -6.4622721319 4.5728991111 
-339.47944418 1.978882117 -8.4661156057 -50.724982174 1.4859111105 4.4248711337 -347.34553554 18.840217639 -2.6970578781 
-345.34961312 -2.5866721259 0.94658841051 -249.82413113 -7.6104896774 -7.0044472862 -165.82688992 -2.5561755348 4.7480047612 
-264.74970078 -7.1683851314 -4.8974748132 -152.00277369 10.851030561 -9.1217694611 -435.14735391 -21.204941449 6.2435386392 
-388.16445694 4.9627513278 -18.786283978 -317.04853197 10.147755728 3.3983121853 -442.34955849 -23.312369642 -3.597232368 
-172.34068607 -2.3101265442 -3.6295387938 -348.23878009 18.272155313 -4.3983938867 -198.90848316 -13.374384789 5.4431847901 
-250.63425735 9.8391975734 -2.7999843731 -372.68481772 -1.3451500008 11.809357075 -458.17302434 -20.861811258 5.7353420904 
-376.69136327 -14.938603239 -8.9444157365 -359.74608558 25.30244648 -18.542404594 -322.35443653 13.685501663 -21.539616638 
-402.50019418 -7.9184312284 -10.273379441 -175.40578199 6.4980902175 -0.41319784999 -405.65075015 -8.8512134463 -10.64888665 
-449.87214067 11.733757747 3.8303630676 -383.18835241 24.847990322 -6.0771944312 -11.790272854 3.2464954399 28.648670802 
-251.744808 -3.6827150221 1.7541746648 -315.46112924 11.109380608 7.9890804661 -160.44358036 2.8263864658 -2.023313705 
-54.350355066 2.6220663399 -7.6435119194 -237.13227006 31.817548013 19.812264388 -70.302306129 -26.863929039 13.163293796 
-152.74998498 -11.291326954 20.007374635 -60.377545036 -12.817779324 -10.733571143 -395.70494066 -12.776521406 27.804041642 
-32.050764611 -14.969811772 -8.2425977494 -22.667229046 -23.910339317 7.1563116303 -86.286945853 18.001915809 -0.15899221419 
-480.30517553 -2.1407524004 -10.130827007 -43.55267355 -17.378242563 -3.4878593067 -290.50279628 -0.79875135736 -5.710031264 
17.282521303 -8.9922349816 23.676909228 -429.97202897 -7.3307221816 0.46011412852 -378.32506912 15.402673687 -7.1928489269 
-250.13053676 7.2691187448 -29.309227965 -57.950597939 26.113878565 -8.8461577156 -193.26117654 -2.9649783152 -1.712410036 
-161.27604693 -9.6387514628 -25.931746015 -393.72396468 19.503872289 5.3230716423 -249.37109434 3.292751872 1.4905562921 
-289.92493638 -16.038514381 -11.815183693 -424.60102981 -4.645777314 -20.080366712 -289.46255894 15.854438633 -5.87996871 
-348.59077684 -26.204967188 11.627081165 -161.24301589 3.9280336983 35.373846472 -201.31484935 10.652231266 -48.664247396 
-438.13825731 -5.2456838308 -26.63116952 -49.936100266 13.849251291 -21.087962912 -147.23834389 -4.3571166208 -0.34479318579 
-160.81710846 -12.853982842 19.726713855 -422.34766456 -31.948660085 -1.7298528002 -475.16055541 3.5300568049 -15.750450982 
-278.27856745 19.920510496 15.473210226 -125.0824781 -0.7045030005 14.483260696 -304.46376132 -3.8348956968 17.088403713 
-138.99297608 -3.5513955239 -2.4840696308 -492.48417535 0.94497875804 -21.091670327 -447.20764307 -7.3608446469 18.66783692 
-326.3051754 9.4450999157 2.7294058401 -416.53032235 14.660285594 9.9962463953 -435.11096874 4.5088722017 30.790414686 
-188.32846699 -19.153727911 -3.0388139093 -263.94643346 5.54555676 -5.5499158746 -158.2352795 3.0441403798 4.3776129806 
-233.99131487 -12.271382604 -7.30042316 -301.60685518 -17.188288182 -6.1412206604 -338.57542983 9.0436052361 -2.2666450319 