# vtk DataFile Version 4.2
Generated by LIGGGHTS
ASCII
DATASET POLYDATA
POINTS 1000 float
0.260326 1.76616 0.908125 1.03963 1.66681 1.48976 2.27063 4.54666 1.33242 
4.29115 1.77409 1.84817 1.35614 0.842081 0.825751 2.16155 3.75715 0.0546548 
2.60721 1.59843 0.152959 2.54638 2.7008 1.67693 2.92115 0.69041 0.951452 
1.91696 1.78138 1.87604 1.83591 3.42754 1.24342 2.64249 3.35925 0.654901 
3.61338 1.178 0.125995 2.43362 1.59309 1.08921 4.43213 4.26177 0.436469 
2.29605 0.779692 1.6139 2.235 2.68026 1.18289 0.0447992 1.92742 1.84601 
2.17267 3.96801 1.97532 1.62478 2.33063 0.514988 3.85099 3.99981 1.31302 
1.23458 0.220303 0.314179 3.40655 1.6078 0.663979 4.16589 2.69103 0.498275 
3.40681 1.86536 1.52511 1.22388 3.70891 1.95361 1.89927 4.51496 0.332523 
1.08307 3.75352 0.899057 2.89909 4.73574 0.0524602 3.11999 4.36277 1.03918 
0.43522 3.79801 1.50419 2.94268 2.41597 1.878 4.33303 0.273712 1.11822 
0.353527 4.32863 0.158423 4.11754 4.84227 0.932079 3.82465 0.744672 0.798645 
0.114979 4.53015 1.11167 4.35691 1.83496 0.643787 3.5853 3.12927 1.51002 
3.56171 0.970041 1.60168 3.4738 4.01744 0.304037 1.48778 4.78864 1.4029 
3.18928 2.35203 0.732998 4.76141 0.811293 1.76087 4.46257 2.90307 1.47147 
3.48045 3.23902 0.665223 4.70045 3.85708 1.26152 2.80983 3.61921 1.50297 
3.00513 0.131924 1.70422 0.79055 2.69223 3.73938 0.838748 2.48099 2.0196 
2.55572 1.52555 3.36936 0.342249 0.629063 3.08244 3.31696 2.40201 3.01304 
0.371621 1.39233 3.30538 2.11628 2.9031 3.46628 4.52982 2.90889 2.46913 
2.67514 0.720728 3.53325 3.85624 0.606593 3.76667 4.74452 4.20141 3.40051 
0.921443 1.21661 2.41071 1.12178 1.96336 3.64753 1.59636 3.8547 2.74765 
2.32765 2.60821 2.61727 2.13923 3.32437 2.55695 0.938211 2.10987 2.83148 
2.58387 1.87444 2.54868 1.20278 0.204124 2.20632 3.28746 3.51509 2.31926 
2.07283 3.72737 3.4511 2.07189 1.01026 2.48081 0.137479 3.86376 3.51438 
0.637758 4.75675 3.36336 3.17383 4.8305 3.71975 2.73338 4.71849 2.61088 
2.60217 2.39512 3.52595 0.838104 4.60646 2.27618 3.27328 1.05011 2.95311 
0.0393533 4.52469 2.53277 0.315645 3.72458 2.61646 1.2593 4.34095 3.40835 
4.37178 4.38065 2.10024 1.70756 4.79319 2.59575 3.57791 2.33608 3.93543 
4.15201 4.85723 3.76571 0.120315 2.95632 3.16168 2.92762 3.77866 3.95599 
3.79932 0.697042 2.54628 4.67433 3.03244 3.81248 3.22041 4.29863 3.09238 
3.35973 4.38233 2.0479 3.83655 0.054781 2.18183 2.83616 3.45355 3.19371 
4.88963 0.478501 3.6364 4.93373 1.04344 2.59143 4.92748 1.44267 3.7233 
4.94886 0.219512 2.61991 4.24907 4.97561 4.98583 1.79449 0.530456 4.25209 
2.33293 0.48054 5.3168 2.47575 2.55841 4.3931 4.1017 0.757091 5.74123 
4.38888 2.21772 4.48739 0.94499 1.20848 5.64066 1.17934 3.95667 4.29211 
1.58416 2.5642 4.18459 0.408038 2.06369 5.26014 0.0182996 0.547814 4.97033 
2.16769 3.02165 4.95811 1.45935 2.24577 5.62783 0.838852 0.512314 4.54149 
4.67782 0.104821 5.81536 1.40207 1.2827 4.01055 1.00255 2.87713 5.60857 
1.90507 3.82563 5.3549 2.35867 1.48327 4.97649 2.47943 2.03984 5.86877 
1.50576 1.85192 4.80723 2.59469 2.95633 5.80849 2.2363 4.11975 4.23419 
3.46461 4.90117 4.5464 3.69086 3.98988 5.55416 3.48017 2.41642 5.45162 
0.763429 4.64517 5.26305 3.02565 3.84288 4.85349 1.36131 4.30664 5.18953 
4.75344 0.845952 4.72589 3.77073 3.2909 4.19018 4.79658 3.95247 5.64315 
0.590688 3.47718 5.0037 2.99455 1.38458 5.52669 3.09241 0.597886 4.32653 
2.55231 4.49215 5.19784 2.02282 4.7803 4.5406 0.573858 4.46454 4.29742 
3.16878 1.98077 4.6835 4.0273 1.2745 4.60438 4.68403 2.85476 5.17619 
4.72577 1.65086 5.13502 4.84093 4.49548 4.9616 4.91531 4.86795 5.83755 
0.725588 0.69832 7.48857 3.30316 4.85521 7.00098 3.7724 2.77318 7.65747 
0.0241386 0.801821 7.31287 2.73173 0.794583 7.42472 4.81607 2.60586 6.0455 
3.60453 3.58497 7.40493 2.57909 3.43491 7.55498 1.37233 1.28607 6.61758 
1.08687 2.9356 6.57777 2.21017 2.89037 6.78517 0.811621 2.20768 7.79618 
2.99687 3.96807 6.83604 0.284001 1.48509 6.39746 1.45018 2.073 7.16214 
2.31336 3.65817 6.14222 2.65156 0.915077 6.47301 4.89655 4.45101 6.97842 
4.58156 3.23737 6.11556 0.878929 1.9937 6.31236 2.74756 2.75577 7.9587 
2.17498 4.25495 7.57717 3.58988 0.573101 6.55334 1.56696 3.81656 6.73977 
2.20825 4.58133 6.20067 3.12791 4.52388 6.0538 1.28916 4.74228 6.03991 
4.12618 3.12781 6.87697 0.263176 4.70494 6.37497 4.80978 1.87665 6.6195 
4.01036 4.43757 7.81459 3.54511 2.97915 6.13236 1.37591 4.64391 6.83208 
4.55307 3.8198 7.61136 3.11419 2.61954 7.03743 0.125829 3.0022 6.8224 
4.46875 2.46386 7.28661 4.08952 2.23917 6.41416 4.28632 4.98901 6.93545 
3.47635 1.78691 6.95297 0.732517 4.61295 7.42873 3.78594 0.518102 7.5185 
1.29607 4.04184 7.80731 4.18554 3.93067 6.39303 4.34291 0.388279 6.86919 
3.64377 1.47694 6.03987 3.87217 4.57814 8.75769 1.77227 0.275742 8.88417 
1.32213 2.63608 8.56612 0.227426 1.33074 8.99827 2.94865 3.54667 9.4566 
2.70197 2.77891 9.90524 0.762533 2.82243 9.31085 2.37317 1.95011 9.31491 
1.71056 3.56254 9.28888 2.16467 2.97946 8.69064 4.51441 0.5546 9.18915 
0.0766309 0.753909 8.3332 3.08137 1.11867 9.45853 1.93684 3.71626 8.3384 
3.81509 1.37552 8.77944 4.13574 3.73955 8.57238 4.88186 2.45623 8.58894 
1.04335 1.76562 9.7175 1.01849 0.176562 9.4749 0.144666 2.09863 9.00119 
1.79986 1.19444 9.87827 2.44079 1.67159 8.3093 0.483787 0.722875 9.34652 
1.42455 1.02108 8.69772 1.75835 2.62434 9.55333 2.93547 4.31661 9.06334 
2.19199 4.63435 8.47974 0.972009 3.29632 8.23198 4.49085 0.557319 8.05141 
3.1786 0.364886 9.07438 0.291588 3.89513 8.13067 1.70104 2.15338 8.08539 
3.7508 4.0015 9.44595 0.0265108 3.47263 9.32021 4.30242 3.00622 8.65263 
3.17592 1.84232 8.87302 4.38879 3.55599 9.57684 3.95624 0.701673 8.60573 
1.21359 4.5881 8.97639 0.84804 3.72825 9.06749 0.113575 4.38683 8.92704 
2.09415 4.664 9.40155 3.17453 0.931203 8.23209 4.03716 1.8048 9.51992 
2.98626 2.88419 8.9839 2.94624 0.287303 9.96564 3.47286 2.70452 8.38669 
3.7984 1.9142 8.02432 3.56845 0.332592 9.98107 3.90949 4.76594 9.91444 
4.10673 2.65633 9.4891 4.65731 1.56135 8.28694 4.67109 0.0851306 8.47318 
4.72015 4.83674 9.11169 4.01946 0.00408385 9.79761 0.913802 3.54313 9.99782 
4.8851 1.04786 9.81019 4.86763 2.72233 9.85077 3.41154 8.27855 1.62403 
0.493908 7.91726 0.876797 0.803739 8.16673 1.73323 1.64118 9.78205 1.60558 
0.824469 8.94094 1.27207 4.60135 9.26127 0.214433 3.41975 8.60108 0.658821 
3.91351 8.04007 0.469776 2.25918 8.69583 0.514794 3.31455 5.98094 1.51982 
2.81295 6.88909 1.2818 2.57516 8.26521 1.27691 2.77105 5.31316 0.893415 
2.90417 9.18126 1.41271 4.29819 9.77848 0.14662 3.65842 9.23637 1.64807 
0.183639 8.57181 0.547687 3.33584 9.89243 0.8333 3.58944 9.35265 0.665479 
0.0321891 9.56948 1.53348 3.01764 7.59762 1.03939 1.20678 5.51912 0.929159 
0.610626 9.61603 0.861988 1.87175 6.6381 1.48493 4.30453 5.64171 1.15288 
0.363949 7.12365 0.775589 2.25723 7.67736 0.540353 0.238076 5.30065 1.63943 
0.866662 6.33809 0.195102 3.68846 6.98156 1.04385 1.10147 7.18757 0.296018 
0.676388 6.14564 1.83633 0.20296 7.42549 0.0366907 0.793033 6.99659 1.49882 
1.97309 5.4328 0.507087 2.37573 5.85095 1.42002 4.60751 5.28507 1.93743 
1.14618 9.00648 0.568157 4.19336 7.71957 1.53803 3.07488 7.02435 0.259666 
0.46835 5.69829 0.659764 2.33859 6.63082 0.406165 1.47191 8.5008 0.0196877 
1.67793 6.78924 0.731365 1.64692 8.84117 1.62335 4.59336 7.90635 0.749292 
2.28385 9.60962 1.10976 1.58528 7.98742 0.986022 4.18757 8.54187 1.64442 
3.97746 6.08647 0.676035 3.36738 6.22698 0.172605 3.56722 5.18644 1.70523 
4.38805 9.51804 1.10302 4.41747 6.51538 1.39101 4.81926 8.61399 0.222656 
1.00863 8.96112 2.33153 2.43389 5.22487 3.26782 4.6884 5.67541 3.99901 
1.57884 9.86882 2.94112 2.50132 7.71263 2.72524 2.81986 9.32505 2.2812 
2.23728 9.72057 2.26779 2.62755 7.36933 3.95136 1.6068 7.42537 2.45589 
3.26204 6.14718 3.3755 0.35926 9.19769 2.86434 3.70535 8.46944 2.55626 
2.40507 6.2228 3.89709 4.29391 7.09742 2.0204 3.37531 7.15904 3.08991 
1.82973 6.79449 2.64707 1.43701 8.36847 3.66095 4.84039 8.41866 3.99992 
3.1465 7.5065 2.17036 0.513558 8.43786 3.43427 2.06146 8.27286 3.04756 
2.76862 8.42615 2.20463 4.33137 8.39272 3.28223 -0.0447939 9.32994 3.74344 
4.20926 6.1072 3.31273 2.09437 9.0008 2.88684 3.09562 9.30046 3.75145 
0.990376 6.79928 3.07924 0.276243 7.28044 3.8596 4.23749 6.14137 2.29707 
3.37428 8.37707 3.49099 2.40591 6.51899 2.10358 1.92172 9.1323 3.86373 
0.675708 5.61549 3.47101 1.62995 6.1498 3.37145 0.815887 5.73555 2.6004 
0.0368651 6.20119 3.77135 1.85177 8.16109 2.12717 2.49506 9.82548 3.27533 
4.7806 8.62643 2.46922 0.0071738 6.71618 3.07545 1.60492 6.77428 3.95064 
2.44916 6.28803 2.98998 0.171137 7.63667 3.00915 1.55796 5.50423 2.10678 
3.49163 9.92064 3.12474 2.06749 7.64992 3.62741 0.552622 7.44979 2.16702 
2.71069 5.6615 2.38725 3.19999 9.01772 2.90334 3.38954 6.71495 2.01296 
4.11417 6.85622 2.8722 4.08021 7.77615 2.55014 4.20673 9.40758 2.24811 
4.23648 5.27213 2.79593 4.20101 9.34003 3.12249 4.78492 7.78489 3.19739 
4.86039 9.58621 3.90206 3.56489 5.15816 5.47327 2.48599 5.2962 5.38303 
3.01487 7.0197 4.91124 3.87651 8.10139 5.39519 0.126451 7.96819 5.42138 
1.37987 9.34953 4.72904 4.34003 8.00928 4.72591 4.29363 7.06698 5.73657 
0.120929 8.83909 5.08083 2.98178 9.15578 4.90651 3.85771 8.07578 4.13816 
0.333306 7.9099 4.42986 0.671927 9.68421 4.6544 0.221829 9.86818 5.47972 
3.29611 6.88972 4.05351 0.665807 9.18803 5.56864 0.89842 7.7927 5.91524 
2.26088 9.03084 5.47254 3.7776 8.8703 5.84583 0.551891 6.811 4.42887 
3.60299 8.73566 4.82444 1.88967 5.3978 4.51802 2.11932 6.81056 4.79727 
1.55517 6.26559 5.31323 0.325652 5.51975 5.89206 2.05562 7.53089 4.55407 
4.39551 5.4525 5.89432 -0.00965996 7.025 4.99644 1.136 8.44792 4.52783 
2.23972 9.52252 4.59342 1.67612 6.06769 4.50708 1.3842 5.52691 5.68952 
-0.00203457 5.99449 4.72326 0.428994 5.30315 4.94763 0.745438 6.1903 5.34565 
3.74184 5.75224 4.12039 1.46562 7.2453 5.4644 0.857844 7.77811 5.10471 
0.515792 6.92343 5.64411 0.323626 5.42743 4.0661 4.27818 6.00819 5.09038 
2.5348 8.35469 4.4241 1.21111 7.50561 4.12283 2.84735 7.80648 5.02581 
[...]
POINT_DATA 1000
FIELD FieldData 7
id 1 1000 int
431 316 473 203 196 779 774 579 205 
755 275 104 360 400 574 17 371 647 
18 849 659 718 323 279 249 430 71 
359 896 620 413 828 920 609 92 538 
171 865 807 276 982 817 974 826 517 
674 319 756 273 507 820 461 33 231 
804 523 697 298 266 905 886 21 867 
531 873 583 644 713 854 937 204 910 
95 678 6 667 773 543 675 668 245 
555 858 505 214 488 411 147 510 106 
872 145 416 346 899 25 20 527 708 
516 956 901 36 332 383 216 19 283 
503 944 805 107 539 743 725 654 229 
201 291 511 683 611 513 251 973 250 
852 941 962 514 509 730 930 522 366 
869 548 117 313 374 50 562 499 299 
762 640 924 232 951 241 766 921 190 
929 272 399 783 533 448 396 750 310 
563 274 876 168 152 890 565 331 406 
681 225 116 7 343 223 572 839 607 
43 838 809 97 658 908 38 860 242 
871 42 119 86 139 233 840 506 269 
278 754 544 376 846 56 495 798 637 
758 379 633 120 342 811 829 354 284 
795 608 79 638 30 819 368 772 740 
592 619 847 264 656 293 787 16 134 
265 35 739 339 842 226 347 306 677 
108 11 542 726 165 765 975 694 949 
578 73 254 419 367 582 733 803 960 
26 761 808 302 753 990 515 631 410 
22 660 158 350 75 397 696 634 833 
590 5 391 815 810 115 599 78 614 
906 84 292 126 853 182 407 330 919 
213 593 736 167 427 746 848 723 655 
490 884 175 164 553 290 98 453 114 
309 794 780 386 160 576 37 493 836 
465 337 200 981 244 415 385 610 277 
682 441 452 993 709 813 781 153 875 
420 994 112 879 892 394 528 462 897 
788 841 799 370 602 55 676 931 652 
443 744 345 72 684 472 958 549 412 
179 377 577 534 57 700 45 687 922 
556 893 938 29 955 792 464 122 184 
194 988 14 432 546 192 909 550 447 
433 978 942 902 58 286 424 436 178 
976 209 268 246 693 440 894 666 639 
953 445 9 325 749 946 349 444 547 
49 303 31 32 34 173 825 686 692 
861 558 912 801 732 837 477 181 287 
155 70 476 124 150 395 831 111 338 
177 834 790 648 724 356 757 823 295 
183 793 88 967 85 77 239 474 132 
483 791 311 735 118 685 954 551 285 
964 612 103 500 475 604 375 336 81 
438 979 996 622 702 748 238 492 745 
874 581 46 721 752 628 482 645 742 
625 141 632 508 591 176 128 294 135 
434 382 731 378 392 130 99 806 776 
864 984 364 101 775 388 777 800 125 
389 759 641 525 425 587 362 916 467 
485 267 224 138 763 882 903 380 814 
54 670 212 898 907 747 784 650 157 
636 136 859 585 932 100 559 598 530 
965 928 895 262 172 62 271 529 94 
456 187 704 789 943 680 518 764 257 
768 600 151 487 913 497 570 193 39 
519 228 717 15 13 280 616 999 328 
961 767 827 142 144 361 289 429 405 
208 240 734 159 885 67 796 968 778 
862 253 282 816 948 868 409 714 314 
437 428 771 900 259 260 129 47 340 
446 304 307 716 23 594 646 918 369 
263 629 256 785 995 573 457 863 358 
149 234 914 613 689 348 12 423 69 
554 454 418 247 635 498 352 786 206 
738 526 217 255 569 643 741 222 195 
653 564 459 662 911 127 66 198 679 
236 235 372 65 243 439 335 606 935 
220 822 148 237 568 146 737 318 584 
603 460 480 317 80 52 502 123 329 
185 408 351 442 566 672 540 315 27 
845 258 109 970 301 623 41 384 161 
642 888 835 308 373 760 770 597 83 
832 387 524 618 727 227 588 10 1000 
966 596 110 40 261 649 96 881 851 
870 567 393 665 270 60 802 363 661 
89 998 866 252 489 305 401 605 887 
821 535 889 545 541 663 426 64 957 
690 494 586 857 414 571 698 575 44 
390 248 624 532 878 484 923 891 455 
707 983 174 950 63 904 915 769 512 
959 552 917 210 617 3 162 169 421 
435 729 199 980 719 297 133 627 940 
207 496 470 945 712 936 691 422 186 
969 154 91 166 404 991 880 471 883 
463 90 333 925 341 357 699 156 751 
105 324 24 365 137 722 992 926 449 
163 520 521 952 218 450 933 971 830 
843 170 481 188 48 121 197 451 189 
4 466 705 669 701 322 68 59 417 
720 458 671 131 939 615 469 312 580 
1 824 221 601 850 877 657 51 715 
987 782 300 934 818 557 353 710 8 
856 651 402 202 140 695 855 997 334 
211 561 504 28 728 536 53 2 398 
630 326 320 344 180 711 143 215 76 
673 102 626 355 986 812 61 963 87 
621 479 703 589 93 478 989 560 501 
977 230 486 191 664 296 595 321 113 
381 327 491 972 688 219 947 403 797 
82 74 537 985 844 281 468 706 288 
927 
type 1 1000 int
1 1 1 1 1 2 2 2 1 
2 1 1 1 1 2 1 1 2 
1 2 2 2 1 1 1 1 1 
1 2 2 1 2 2 2 1 2 
1 2 2 1 2 2 2 2 2 
2 1 2 1 2 2 1 1 1 
2 2 2 1 1 2 2 1 2 
2 2 2 2 2 2 2 1 2 
1 2 1 2 2 2 2 2 1 
2 2 2 1 1 1 1 2 1 
2 1 1 1 2 1 1 2 2 
2 2 2 1 1 1 1 1 1 
2 2 2 1 2 2 2 2 1 
1 1 2 2 2 2 1 2 1 
2 2 2 2 2 2 2 2 1 
2 2 1 1 1 1 2 1 1 
2 2 2 1 2 1 2 2 1 
2 1 1 2 2 1 1 2 1 
2 1 2 1 1 2 2 1 1 
2 1 1 1 1 1 2 2 2 
1 2 2 1 2 2 1 2 1 
2 1 1 1 1 1 2 2 1 
1 2 2 1 2 1 1 2 2 
2 1 2 1 1 2 2 1 1 
2 2 1 2 1 2 1 2 2 
2 2 2 1 2 1 2 1 1 
1 1 2 1 2 1 1 1 2 
1 1 2 2 1 2 2 2 2 
2 1 1 1 1 2 2 2 2 
1 2 2 1 2 2 2 2 1 
1 2 1 1 1 1 2 2 2 
2 1 1 2 2 1 2 1 2 
2 1 1 1 2 1 1 1 2 
1 2 2 1 1 2 2 2 2 
1 2 1 1 2 1 1 1 1 
1 2 2 1 1 2 1 1 2 
1 1 1 2 1 1 1 2 1 
2 1 1 2 2 2 2 1 2 
1 2 1 2 2 1 2 1 2 
2 2 2 1 2 1 2 2 2 
1 2 1 1 2 1 2 2 1 
1 1 2 2 1 2 1 2 2 
2 2 2 1 2 2 1 1 1 
1 2 1 1 2 1 2 2 1 
1 2 2 2 1 1 1 1 1 
2 1 1 1 2 1 2 2 2 
2 1 1 1 2 2 1 1 2 
1 1 1 1 1 1 2 2 2 
2 2 2 2 2 2 1 1 1 
1 1 1 1 1 1 2 1 1 
1 2 2 2 2 1 2 2 1 
1 2 1 2 1 1 1 1 1 
1 2 1 2 1 2 2 2 1 
2 2 1 1 1 2 1 1 1 
1 2 2 2 2 2 1 1 2 
2 2 1 2 2 2 1 2 2 
2 1 2 2 2 1 1 1 1 
1 1 2 1 1 1 1 2 2 
2 2 1 1 2 1 2 2 1 
1 2 2 2 1 2 1 2 1 
1 1 1 1 2 2 2 1 2 
1 2 1 2 2 2 2 2 1 
2 1 2 2 2 1 2 2 2 
2 2 2 1 1 1 1 2 1 
1 1 2 2 2 2 2 2 1 
2 2 1 1 2 1 2 1 1 
2 1 2 1 1 1 2 2 1 
2 2 2 1 1 1 1 1 1 
1 1 2 1 2 1 2 2 2 
2 1 1 2 2 2 1 2 1 
1 1 2 2 1 1 1 1 1 
1 1 1 2 1 2 2 2 1 
1 2 1 2 2 2 1 2 1 
1 1 2 2 2 1 1 1 1 
2 1 1 1 2 1 1 2 1 
2 2 1 1 2 2 2 1 1 
2 2 1 2 2 1 1 1 2 
1 1 1 1 1 1 1 2 2 
1 2 1 1 2 1 2 1 2 
2 1 1 1 1 1 2 1 1 
1 1 1 1 2 2 2 1 1 
2 1 1 2 1 2 1 1 1 
2 2 2 1 1 2 2 2 1 
2 1 2 2 2 1 2 1 2 
2 2 1 1 1 2 1 2 2 
2 2 1 2 1 1 2 1 2 
1 2 2 1 1 1 1 2 2 
2 2 2 2 2 2 1 1 2 
2 1 2 2 1 2 2 2 1 
1 1 2 2 2 1 2 2 1 
2 2 1 2 1 2 2 2 2 
2 2 2 1 2 1 1 1 1 
1 2 1 2 2 1 1 2 2 
1 1 1 2 2 2 2 1 1 
2 1 1 1 1 2 2 1 2 
1 1 1 2 1 1 2 1 2 
1 1 1 1 1 2 2 2 1 
1 2 2 2 1 1 2 2 2 
2 1 1 1 1 1 1 1 1 
1 1 2 2 2 1 1 1 1 
2 1 2 1 2 2 1 1 2 
1 2 1 2 2 2 2 1 2 
2 2 1 2 2 2 1 2 1 
2 2 1 1 1 2 2 2 1 
1 2 2 1 2 2 1 1 1 
2 1 1 1 1 2 1 1 1 
2 1 2 1 2 2 1 2 1 
2 1 2 2 1 1 2 2 2 
2 1 1 1 2 1 2 1 1 
1 1 1 2 2 1 2 1 2 
1 1 2 2 2 1 1 2 1 
2 
i 3 1000 int
-12 0 0 -28 0 0 4 0 0 
-19 0 0 49 1 0 0 0 0 
-9 0 1 -2 0 0 -42 0 0 
-17 0 0 -4 0 0 -2 0 1 
-21 0 1 -9 0 0 -2 0 1 
-19 0 1 -4 0 0 -11 0 0 
-5 0 0 -5 0 1 -3 0 0 
-14 0 1 -11 0 0 72 1 0 
-19 0 1 -4 0 0 0 0 1 
-4 0 0 -1 0 0 -2 0 0 
-21 0 0 -11 0 1 -24 0 1 
-2 0 0 1 0 1 38 1 0 
-2 0 0 -11 0 0 -3 0 0 
-21 0 1 -2 0 0 -2 0 0 
77 1 1 29 1 0 -11 0 0 
-1 0 0 3 0 0 -6 0 1 
-27 0 1 -14 0 0 -13 0 0 
33 1 0 41 1 0 -16 0 1 
-50 0 0 -17 0 1 -7 0 0 
-28 0 0 -32 0 0 -4 0 0 
48 1 0 -37 0 0 -20 0 0 
-12 0 0 -7 0 0 -11 0 1 
58 1 0 -35 0 1 -5 0 0 
-4 0 0 -43 0 0 -13 0 0 
-2 0 0 -3 0 0 -6 0 0 
-31 0 0 -6 0 0 -20 0 0 
-1 0 0 -3 0 0 -11 0 0 
-6 0 0 -1 0 0 -11 0 0 
0 0 0 -37 0 1 -10 0 0 
-34 0 0 -6 0 0 -8 0 0 
-2 0 0 23 1 0 -10 0 0 
27 1 0 -18 0 0 -25 0 0 
-51 0 0 0 0 0 -32 0 0 
-39 0 0 -20 0 0 -14 0 0 
-29 0 0 -18 0 0 -3 0 0 
-20 0 0 -17 0 0 -30 0 0 
-12 0 0 -15 0 0 -22 0 0 
-23 0 0 -23 0 0 -10 0 0 
0 0 0 -27 0 1 -9 0 0 
-19 0 0 -11 0 0 -7 0 -1 
-1 0 0 -1 0 0 -11 0 0 
-3 0 0 -6 0 0 -4 0 0 
-29 0 0 -5 0 0 1 0 0 
-10 0 0 -17 0 0 -33 0 0 
-8 0 0 -4 0 0 -3 0 0 
-11 0 0 -19 0 0 -12 0 0 
-17 0 0 -1 0 0 4 0 0 
16 1 0 5 0 0 -11 0 0 
-28 0 -1 -21 0 0 -8 0 0 
-8 0 0 -1 0 0 47 1 0 
-5 0 0 -9 0 0 -9 0 0 
-1 0 0 -31 0 -1 -17 0 -1 
-9 0 0 49 1 -1 0 0 0 
-4 0 0 -20 0 0 -3 0 0 
-2 0 0 -21 0 -1 -1 0 0 
1 0 0 -3 0 0 2 0 0 
-4 0 0 1 0 0 -12 0 0 
-2 0 0 -8 0 0 -2 0 0 
-3 0 0 -3 0 0 -7 0 -1 
-7 0 0 -13 0 0 1 0 0 
-6 0 0 -1 0 0 25 1 -1 
-1 0 0 -2 0 0 -11 0 0 
-22 0 0 3 0 0 -30 0 0 
-3 0 -1 -19 0 0 -3 0 -1 
-8 0 0 -3 0 0 -8 0 0 
-3 0 0 -8 0 -1 -27 0 0 
39 1 -1 -10 0 0 -3 0 0 
-9 0 -1 -3 0 0 -6 0 0 
-7 0 0 -22 0 -1 -10 0 0 
-13 0 -1 -5 0 0 -23 0 0 
-22 0 -1 -4 0 0 0 0 0 
1 0 0 -3 0 0 -41 0 0 
-26 0 -1 -1 0 0 -2 0 0 
-2 0 -1 0 0 0 -5 0 0 
-5 0 -1 -8 0 0 -10 0 0 
3 0 -1 -1 0 0 1 0 0 
-1 0 -1 -17 0 0 -30 0 -1 
-18 0 0 -23 0 -1 -8 0 0 
-6 0 0 -22 0 0 3 0 0 
-1 0 0 -11 0 0 -13 0 0 
2 0 0 22 1 -1 -2 0 0 
-10 0 0 -7 0 -1 -45 -1 1 
33 0 1 17 0 0 29 0 0 
32 0 1 -44 -1 1 26 0 1 
10 0 0 8 0 1 6 0 0 
4 0 0 14 0 0 10 0 0 
48 0 0 15 0 0 30 0 1 
33 0 0 -20 -1 0 17 0 0 
24 0 1 21 0 1 0 0 0 
-33 -1 0 4 0 0 -2 0 0 
12 0 0 15 0 1 0 0 0 
6 0 1 7 0 1 6 0 0 
7 0 0 14 0 0 5 0 0 
4 0 0 0 0 0 0 0 0 
11 0 0 20 0 0 4 0 0 
3 0 0 6 0 1 8 0 1 
11 0 0 29 0 1 -49 -1 0 
19 0 0 6 0 0 14 0 0 
9 0 0 6 0 0 1 0 0 
30 0 0 4 0 1 -30 -1 1 
22 0 0 1 0 0 0 0 0 
-28 -1 1 7 0 0 -51 -1 1 
-24 -1 0 13 0 0 6 0 0 
8 0 0 -50 -1 1 35 0 0 
3 0 0 4 0 0 -50 -1 0 
9 0 0 34 0 0 -50 -1 0 
8 0 0 18 0 0 31 0 0 
-52 -1 0 33 0 0 29 0 0 
4 0 0 31 0 0 -38 -1 0 
14 0 0 -64 -1 0 3 0 0 
-48 -1 0 5 0 0 -35 -1 1 
-4 0 0 10 0 1 6 0 0 
8 0 0 25 0 1 47 0 0 
24 0 1 7 0 0 16 0 0 
8 0 0 12 0 0 0 0 0 
34 0 1 13 0 0 4 0 0 
0 0 0 40 0 0 3 0 0 
13 0 0 18 0 0 36 0 0 
-1 0 0 20 0 0 12 0 0 
26 0 -1 0 0 0 1 0 0 
7 0 0 15 0 0 18 0 0 
16 0 0 19 0 0 6 0 0 
28 0 0 -43 -1 0 -50 -1 0 
26 0 0 -43 -1 1 29 0 -1 
5 0 0 30 0 0 6 0 0 
24 0 0 11 0 0 6 0 0 
17 0 0 2 0 0 5 0 0 
13 0 0 4 0 0 9 0 0 
1 0 0 13 0 0 13 0 0 
-49 -1 0 17 0 0 -1 0 0 
4 0 0 -5 0 0 8 0 0 
1 0 0 13 0 0 6 0 0 
30 0 -1 9 0 0 6 0 0 
13 0 0 17 0 0 28 0 0 
2 0 0 4 0 0 6 0 0 
13 0 0 -33 -1 0 3 0 0 
54 0 0 11 0 0 7 0 0 
0 0 0 9 0 0 21 0 0 
6 0 0 -1 0 0 44 0 -1 
12 0 -1 -52 -1 0 4 0 0 
9 0 0 5 0 0 32 0 0 
5 0 0 9 0 0 21 0 0 
49 0 -1 40 0 0 27 0 0 
21 0 -1 8 0 0 22 0 0 
2 0 0 4 0 0 12 0 -1 
-52 -1 -1 -45 -1 1 -32 -1 0 
6 0 0 4 0 0 25 0 0 
0 0 0 9 0 0 5 0 0 
38 0 0 13 0 -1 0 0 0 
14 0 0 4 0 0 7 0 0 
16 0 0 7 0 0 -14 -1 0 
29 0 0 -39 -1 0 5 0 0 
30 0 0 50 0 -1 19 0 0 
2 0 -1 27 0 -1 3 0 0 
31 0 -1 17 0 0 25 0 0 
-36 -1 0 8 0 0 24 0 0 
11 0 -1 6 0 -1 3 0 0 
10 0 0 33 0 0 5 0 0 
17 0 0 0 0 0 31 0 -1 
13 0 -1 5 0 0 -1 0 -1 
-2 0 0 8 0 0 5 0 0 
7 0 -1 23 0 0 6 0 0 
10 0 -1 10 0 0 3 0 -1 
-1 0 -1 41 0 0 21 0 -1 
-30 -1 0 -43 -1 0 5 0 0 
12 0 -1 4 0 0 31 0 0 
33 0 0 2 0 -1 4 0 0 
12 0 0 10 0 0 7 0 -1 
3 0 -1 6 0 0 7 0 -1 
-37 -1 0 -26 -1 0 7 0 0 
3 0 0 15 0 0 -7 0 0 
-13 0 0 -14 0 0 67 1 0 
-13 0 1 -9 0 0 -6 0 0 
-2 0 0 -31 0 0 -16 0 1 
-6 0 1 22 1 1 -3 0 0 
-1 0 0 -29 0 0 -22 0 1 
-27 0 0 45 1 0 -32 0 1 
-9 0 0 -9 0 0 -5 0 0 
-20 0 0 -17 0 0 -10 0 1 
-11 0 0 -11 0 0 47 1 1 
-25 0 1 -34 0 1 -28 0 1 
-4 0 1 0 0 1 -2 0 0 
-2 0 0 -9 0 1 -21 0 1 
1 0 1 -3 0 1 47 1 0 
-7 0 0 -1 0 0 -42 0 1 
-21 0 1 -4 0 0 -3 0 0 
-18 0 1 -13 0 0 -14 0 1 
-8 0 1 -1 0 0 -3 0 0 
-42 0 1 -3 0 1 -6 0 1 
-5 0 0 -4 0 0 -34 0 0 
-30 0 0 -32 0 0 -7 0 0 
-34 0 0 -5 0 0 -10 0 0 
-2 0 0 -18 0 0 37 1 0 
-31 0 0 -7 0 0 -13 0 0 
-14 0 0 -21 0 1 -5 0 0 
-18 0 -1 0 0 1 -8 0 0 
-27 0 0 -1 0 0 31 1 0 
-20 0 1 21 1 0 -24 0 0 
-7 0 0 -32 0 1 -22 0 0 
-16 0 1 -21 0 0 -17 0 0 
0 0 0 -8 0 0 -2 0 0 
2 0 0 -12 0 0 -5 0 0 
-15 0 0 -7 0 0 -6 0 0 
-43 0 -1 -12 0 0 -7 0 0 
4 0 0 -28 0 0 -9 0 0 
26 1 0 1 0 0 41 1 0 
6 0 0 35 1 0 -45 0 1 
-22 0 0 -35 0 0 26 1 -1 
-4 0 0 23 1 0 -8 0 1 
65 1 0 59 1 0 -8 0 0 
-24 0 0 -5 0 0 -17 0 -1 
-6 0 0 -18 0 -1 -38 0 0 
-21 0 0 -21 0 0 -5 0 0 
-6 0 0 -9 0 0 32 1 0 
-21 0 0 -12 0 0 -12 0 0 
-6 0 0 -4 0 0 -6 0 0 
-7 0 0 -20 0 0 -9 0 0 
49 1 0 -18 0 0 -5 0 0 
2 0 0 -12 0 0 -3 0 0 
-1 0 0 -12 0 0 -2 0 0 
-2 0 0 -16 0 0 -4 0 0 
-26 0 0 -28 0 0 -13 0 0 
-10 0 0 25 1 0 -8 0 0 
-28 0 0 -29 0 0 55 1 0 
-5 0 0 -24 0 1 -12 0 0 
43 1 0 -17 0 0 -7 0 0 
-7 0 0 54 1 -1 -17 0 0 
-44 0 0 59 1 0 -15 0 0 
41 1 0 -1 0 0 -1 0 0 
-2 0 0 -44 0 -1 -7 0 0 
-4 0 0 -1 0 0 -3 0 0 
-15 0 0 -9 0 0 -8 0 0 
1 0 0 -8 0 0 -3 0 0 
-17 0 0 -12 0 0 -2 0 0 
40 1 0 -3 0 0 -5 0 0 
-6 0 0 -5 0 0 -2 0 0 
-4 0 0 -6 0 0 -5 0 0 
17 1 0 2 0 0 -8 0 0 
-7 0 0 -1 0 0 53 1 0 
-19 0 0 -19 0 0 -11 0 0 
0 0 0 -4 0 0 -3 0 0 
5 0 -1 36 1 0 -11 0 -1 
-42 0 0 -1 0 0 -15 0 0 
-10 0 0 -18 0 0 1 0 -1 
47 1 -1 20 1 -1 -5 0 0 
-26 0 -1 -12 0 0 -2 0 0 
-37 0 0 51 1 0 -3 0 0 
0 0 0 -8 0 -1 -8 0 0 
-14 0 -1 -6 0 0 16 1 0 
-6 0 -1 -21 0 -1 -9 0 0 
-1 0 0 -26 0 0 -13 0 0 
-1 0 0 -13 0 0 -13 0 -1 
3 0 0 -14 0 0 -2 0 0 
-3 0 0 -4 0 0 -10 0 0 
-5 0 0 1 0 -1 -16 0 0 
1 0 0 0 0 0 -8 0 -1 
0 0 0 -13 0 0 0 0 0 
-2 0 0 1 0 -1 -5 0 -1 
-5 0 0 -42 0 0 1 0 0 
43 0 1 14 0 0 13 0 0 
13 0 0 2 0 0 15 0 0 
33 0 0 29 0 1 -1 0 0 
30 0 0 12 0 0 13 0 1 
17 0 0 18 0 0 16 0 0 
-1 0 0 1 0 0 23 0 0 
2 0 0 16 0 0 4 0 1 
7 0 0 41 0 0 5 0 0 
2 0 0 -48 -1 1 4 0 0 
21 0 0 21 0 0 10 0 1 
7 0 0 1 0 0 4 0 0 
-67 -1 0 8 0 0 16 0 0 
7 0 0 16 0 0 7 0 0 
3 0 0 13 0 0 -4 0 0 
23 0 0 15 0 0 5 0 0 
25 0 0 21 0 1 22 0 1 
17 0 0 22 0 0 19 0 0 
-1 0 0 33 0 1 -56 -1 0 
28 0 1 23 0 0 26 0 0 
19 0 1 0 0 0 6 0 0 
30 0 1 41 0 1 13 0 0 
9 0 0 16 0 0 -1 0 0 
11 0 0 -54 -1 0 11 0 0 
16 0 0 1 0 0 0 0 0 
4 0 0 4 0 0 17 0 0 
16 0 0 10 0 0 2 0 0 
29 0 1 -1 0 0 3 0 0 
-1 0 0 10 0 0 -25 -1 1 
3 0 0 16 0 0 28 0 0 
8 0 0 7 0 0 38 0 -1 
-34 -1 0 -43 -1 0 -19 -1 0 
-31 -1 0 2 0 0 -3 0 0 
22 0 0 10 0 0 2 0 0 
10 0 0 16 0 0 0 0 0 
-1 0 0 15 0 0 21 0 -1 
3 0 0 14 0 0 19 0 -1 
6 0 0 16 0 0 35 0 0 
12 0 0 3 0 0 13 0 0 
-39 -1 -1 11 0 0 4 0 0 
-55 -1 0 3 0 0 2 0 0 
13 0 0 6 0 0 6 0 0 
1 0 0 2 0 0 2 0 0 
11 0 0 0 0 0 35 0 0 
22 0 0 0 0 0 33 0 0 
-41 -1 -1 -2 0 0 12 0 0 
5 0 0 13 0 0 48 0 0 
1 0 0 3 0 0 40 0 0 
10 0 0 25 0 -1 28 0 -1 
6 0 0 25 0 0 12 0 0 
25 0 0 20 0 0 -6 0 0 
-21 -1 0 10 0 -1 -34 -1 0 
23 0 0 36 0 0 10 0 0 
-31 -1 0 3 0 0 4 0 0 
16 0 0 15 0 0 1 0 0 
-1 0 0 6 0 0 -39 -1 -1 
3 0 0 1 0 0 8 0 0 
8 0 0 4 0 0 -4 0 0 
-1 0 0 2 0 0 16 0 0 
3 0 0 3 0 0 9 0 0 
12 0 -1 2 0 -1 0 0 -1 
6 0 0 15 0 0 8 0 0 
-36 -1 0 9 0 0 3 0 0 
0 0 -1 13 0 0 -29 -1 0 
11 0 0 4 0 -1 5 0 0 
15 0 0 8 0 0 1 0 0 
11 0 0 29 0 0 18 0 0 
26 0 0 4 0 0 9 0 -1 
12 0 0 6 0 -1 1 0 -1 
2 0 0 1 0 0 6 0 -1 
7 0 -1 3 0 0 5 0 -1 
4 0 0 4 0 -1 49 0 -1 
5 0 -1 12 0 0 24 0 0 
7 0 0 9 0 0 11 0 -1 
5 0 0 16 0 0 6 0 -1 
1 0 0 
v 3 1000 double
-283.16861931 1.7293795263 -8.5904416946 -279.98577144 -12.273108401 -4.5578927069 -18.207912945 12.997788363 -14.85353828 
-296.49132527 -5.6613818694 9.8987743468 -376.40400131 27.664316163 28.709114621 -53.056277438 -10.328354081 -4.1550377659 
-257.43469533 -0.73833912497 -3.6944476412 -193.01094025 17.819825176 13.185911512 -362.06604502 -6.5217567901 -3.769254518 
-270.77482826 -0.60713315245 10.248492116 -90.204516305 7.4718686911 11.952632528 -88.710966889 -2.8072430096 23.884404054 
-319.32084554 5.5983052565 -10.368448905 -277.58509138 2.2313530386 -5.7121690304 -63.786570085 5.9454384102 -4.2539234435 
-347.13357459 -18.086882466 15.571419626 -145.14164486 -32.315903834 -25.868110934 -285.70555358 8.753336109 1.1071307402 
-95.448111577 25.886648991 8.515961846 -192.37762582 -6.7948467105 2.1043389102 -78.857624493 -5.4296408469 5.0411541842 
-472.89975639 0.77923032738 -2.6482546963 -260.86820348 -12.075700098 11.401576342 -169.78540231 12.338543925 -2.1012021978 
-265.94981407 -10.591746591 -4.8702262848 -87.475768729 -2.9739092665 3.1478937917 -18.101597118 1.8738028212 18.735500094 
-90.244879918 9.3348182188 -1.4519491346 -3.9209171957 4.8405416161 -4.2800787698 -47.896744061 11.418757691 -5.3151948183 
-76.869658416 -6.1794856192 -6.0569627692 -207.92977053 0.10399602616 17.680906337 -467.11118079 6.3165447163 25.611890376 
-15.663902997 -1.1741306609 -1.2489614102 -35.361758213 5.3793060532 -0.20773739453 -365.52257363 10.66476391 6.1368574313 
-30.82371718 2.8206795104 2.779756067 -249.77960623 -9.8574466043 0.99428919332 -158.7425134 -7.3702421529 11.072862103 
-406.12048538 7.9844039971 -10.858880202 -68.222538656 7.9924966822 -15.003640048 -3.8874000237 -13.592457169 -9.7805549032 
-194.03106725 15.380515626 -7.0015947318 -396.24064168 -2.6663791645 -9.2109027075 -161.90375912 0.8112773861 11.656771658 
-113.91056535 2.1302653534 -13.889807479 -75.873036138 -2.9196667809 -4.2927190471 -120.74025231 14.006625355 -7.71253459 
-502.7687207 5.1616988308 -0.52073997213 -255.82972261 24.02927145 0.91505112363 -278.06420022 23.933712391 -41.415715872 
-345.31976614 -3.108629794 15.45463969 -446.60838505 -9.2762123823 -12.286091622 -321.62600962 18.972027644 -5.8810061811 
-382.59122546 38.225635719 4.9691977344 -231.40939856 0.24940587707 18.668736351 -174.07909211 -9.7797675419 13.424702723 
-384.91169303 -35.451970891 -5.2372359627 -395.16486527 -2.6226276417 4.6938375382 -62.091532466 -9.9958054019 -12.956985358 
-359.08189173 -1.0244099164 6.3137051779 -309.4257222 -4.7616492677 7.3677314192 -117.33951588 7.2632089662 -4.0076148039 
-228.35878946 -4.2705889296 8.8925960109 -155.25957788 0.84852409336 -0.61155458151 -309.64106485 9.9850958799 -11.952234366 
-289.63045685 -23.732662948 3.2349679623 -460.02851911 -2.2500865582 20.436597801 -142.03559149 -1.8255174459 12.857948589 
-136.86512949 14.472849233 1.911936167 -378.25335752 -12.826748212 19.877756545 -91.523135212 -7.4001023711 -1.1877231722 
-66.798978307 3.1884000234 -8.7252687738 -5.9013897448 -2.9482123001 -7.5235595984 -58.862152107 -0.72520692116 -21.099535548 
-263.90924111 -7.2349196501 28.30894957 -31.999533052 8.2078457361 -17.153827862 -414.8632166 23.105448572 6.3374859828 
-26.824061465 -0.46484522227 -10.683317645 -99.143529005 -17.876957022 -11.017885166 -63.363562386 2.9073626023 -0.41298378652 
-64.308000916 -2.735337782 -0.36277457779 -32.544768521 5.9342140428 5.7856170282 -259.63924383 11.580466118 4.5080192618 
-45.227187514 8.9503341617 12.090865333 -186.5756075 -16.125162033 -10.471098516 -110.83953856 7.4394804649 -0.20926445752 
-419.59376608 21.962469744 -9.4972656753 -155.02796336 -17.66603435 -33.990491168 -73.479752252 -7.2833601435 1.7528737806 
-65.530801668 7.6948265044 -7.6767972986 -493.95796266 0.60084062166 -15.375675769 -192.14976285 5.1854520065 -11.956613927 
-435.20508906 -9.6909758911 -6.9037076471 -396.09467489 22.660134806 -23.785457806 -318.50686672 2.3548778487 4.2072208474 
-521.61072659 13.463253642 -18.379144871 -6.0691993891 19.155088342 -21.033474552 -426.64953511 -4.7381792273 -14.258663108 
-421.30666972 -3.0401720013 1.8484984592 -214.55019928 6.3649766733 12.870813204 -383.19732795 -1.0881955352 -9.9645830329 
-242.31814424 6.3445234011 -18.700719715 -349.85709994 -0.34841173394 -4.7794265812 -49.723068801 -18.933555527 -5.2963314981 
-247.11290286 17.4602304 20.806962959 -276.04421746 15.589263048 6.7024201918 -437.63437517 -3.7196393107 -18.416037417 
-196.47014448 16.122548235 26.087250356 -235.02347171 -0.5213405915 -4.7561714348 -442.11397651 29.503105073 -28.544041107 
-429.69283384 -16.37876612 1.2404863883 -346.44422179 -16.598223638 -2.3330908199 -164.70820361 7.1504629679 12.427184749 
-57.640171147 -26.267174837 0.58895379077 -270.26119772 -18.664852656 -6.4071100195 -250.87166321 -3.3472564362 10.019150186 
-264.17533506 -18.604306739 -12.028352828 -137.95543933 -9.5098399835 5.9046659203 -76.52207244 -13.623438332 2.9844412988 
-3.051129321 -13.480834598 -14.759843624 -66.640497403 1.4613573951 -25.303799904 -228.28104259 6.3727634453 -14.895689854 
-26.379304139 -13.584871191 12.000364203 -84.252655925 -2.0889744572 1.3409650727 -41.036022113 -7.0302179507 -10.789685298 
-384.57367823 -23.886951756 -3.428480224 -134.67784011 -10.694688327 9.5558495289 -90.454399014 9.8856151923 -6.6514416791 
-127.97640482 11.921091498 -0.9734420867 -301.70987886 -14.45719469 -0.51588195987 -396.83207322 -17.924007051 15.91301597 
-66.494774179 15.562555485 7.4832384766 -14.634774284 -16.760059004 14.595493557 -51.022032752 18.030326936 -2.7458672209 
-261.03230302 -16.972828826 7.2755338864 -330.5317822 -12.215008274 -16.855773231 -175.15053964 8.0461244452 3.6581303937 
-324.00542184 15.190326345 13.063256855 -47.614758882 4.8697271019 -13.782362225 -8.010478916 -6.2083902268 -14.232188339 
-335.49700029 -16.610413553 17.525635782 12.533951516 -1.5989988322 7.798149176 -163.05451744 11.433962064 -5.9125491961 
-366.29227926 -36.185107955 -1.8331866057 -353.62317575 -13.878584574 4.769120859 -187.75571395 -14.935946284 -1.5018797488 
-84.34308307 16.34908652 5.9279987643 -58.227488828 -0.062610082027 -7.7072127849 -308.87102702 -18.544113306 -1.9443016445 