ITEM: TIMESTEP
44000
ITEM: NUMBER OF ATOMS
1000
ITEM: BOX BOUNDS xy xz yz pp pp pp
0 10 0
0 10 0
-0 10 0
ITEM: ATOMS id type type x y z ix iy iz vx vy vz fx fy fz omegax omegay omegaz radius 
802 2 2 2.46604 0.167286 0.811976 73 1 1 -451.827 -11.4492 -15.3394 -257.501 -1222.81 -357.789 0 0 0 0.5 
778 2 2 2.04335 3.60584 0.197698 -160 0 1 -142.913 -11.7351 4.54146 -2336.46 -1232.64 -1217.37 0 0 0 0.5 
918 2 2 2.57023 0.49351 1.79518 -125 0 0 -439.251 0.62985 -18.1116 -920.307 -86.9366 -1728.55 0 0 0 0.5 
357 1 1 3.16399 0.905335 1.08073 -269 0 1 -403.025 -19.801 -4.48512 -1309.84 3022.9 291.695 0 0 0 0.5 
868 2 2 3.11698 1.81248 0.859485 -103 0 2 -334.213 4.48457 -9.31028 1423.39 -1667.32 580.451 0 0 0 0.5 
21 1 1 0.312735 2.06533 1.25913 -99 0 1 -273.325 -4.83155 -18.2394 -3811.41 1487.54 1659.49 0 0 0 0.5 
794 2 2 4.53089 1.68569 1.57777 -12 0 0 -382.733 5.94398 11.2324 439.029 88.8459 -136.065 0 0 0 0.5 
722 2 2 3.78206 0.953478 0.330687 -133 0 0 -385.546 -1.19816 -21.3949 -1001.07 302.772 -365.81 0 0 0 0.5 
787 2 2 2.30964 1.75187 0.40786 -78 0 1 -319.255 -17.7032 -14.7573 -904.89 1172.77 -548.698 0 0 0 0.5 
447 1 1 2.79855 4.54545 0.222529 56 0 1 -84.8738 17.9619 1.48965 1463 -484.354 -451.25 0 0 0 0.5 
56 1 1 1.68893 3.10475 0.956053 -58 0 0 -189.144 -0.810237 15.5008 -479.643 2211.65 1906.2 0 0 0 0.5 
207 1 1 1.60684 0.912223 1.35469 214 1 1 -357.805 -12.951 11.5873 264.74 -62.7388 -177.575 0 0 0 0.5 
11 1 1 1.48814 3.82813 1.43532 -26 0 0 -134.369 6.78708 35.8336 -2110.24 699.566 422.845 0 0 0 0.5 
530 2 2 2.4073 3.77188 1.47171 -83 0 2 -152.82 21.6469 -11.4925 209.339 2855.51 -476.367 0 0 0 0.5 
850 2 2 3.59797 4.53535 0.842136 90 0 1 -56.0396 -4.9811 -3.41869 1643.38 -660.502 -806.567 0 0 0 0.5 
395 1 1 1.92358 0.809961 0.499867 142 1 0 -384.603 -1.20155 -13.6124 -1654.75 2005.13 -1121.75 0 0 0 0.5 
361 1 1 2.96169 3.81776 0.351059 -66 0 0 -167.494 -7.64206 27.5132 1810.91 -1892.34 -57.3504 0 0 0 0.5 
91 1 1 1.27885 2.96927 1.87154 -18 0 0 -217.075 0.0116994 -6.35708 833.152 -137.278 -113.787 0 0 0 0.5 
354 1 1 1.90484 2.38383 1.30908 -69 0 1 -220.277 -28.3606 -19.038 189.759 -1354.13 313.844 0 0 0 0.5 
582 2 2 1.13229 3.23745 0.374914 -13 0 0 -158.971 -4.45093 9.38595 -1780.84 1464.05 -811.56 0 0 0 0.5 
382 1 1 4.42085 4.64022 0.324979 -265 -1 -1 -26.8825 -9.9 28.3977 -1187.46 306.808 -2213.62 0 0 0 0.5 
307 1 1 2.30956 2.71429 0.512452 251 1 -1 -246.778 11.9917 -8.02729 540.533 -4333.3 -1282.96 0 0 0 0.5 
440 1 1 0.882726 1.03572 0.281014 -26 0 0 -387.902 -6.52561 11.054 872.33 -966.476 1123.95 0 0 0 0.5 
106 1 1 1.09708 1.73989 0.908798 -69 0 0 -338.312 9.8062 3.07844 3674.06 -2026.37 -2098.94 0 0 0 0.5 
810 2 2 0.391936 3.87612 1.31203 33 0 1 -113.207 -3.2321 11.5291 1082.96 -1405.22 191.203 0 0 0 0.5 
699 2 2 1.7694 4.29346 0.442164 25 0 -1 -80.9818 6.5314 10.9428 -430.515 2927.25 3.87987 0 0 0 0.5 
958 2 2 3.68579 1.24767 1.74679 217 1 2 -375.789 15.584 8.26181 843.038 -1401.33 -1113.97 0 0 0 0.5 
413 1 1 2.85783 2.61512 1.10734 -58 0 0 -295.95 12.9812 -4.66448 2319.13 -1339.89 967.502 0 0 0 0.5 
527 2 2 0.768615 4.51044 0.0839422 0 0 0 -63.9099 15.7967 1.06825 418.519 47.8896 -524.358 0 0 0 0.5 
735 2 2 4.80245 4.62006 1.17214 52 0 0 -51.7044 -12.4053 8.96519 169.339 255.536 1525.19 0 0 0 0.5 
439 1 1 2.95113 1.56823 1.79863 -87 0 0 -373.215 -2.02427 -9.6195 -1378.79 107.643 -481.379 0 0 0 0.5 
533 2 2 0.277731 3.44 0.456797 317 1 0 -165.157 -10.23 13.0093 -873.347 249.304 162.776 0 0 0 0.5 
644 2 2 -0.0210371 4.40187 0.387377 360 1 1 -77.2005 -7.36526 7.24682 672.775 568.076 160.76 0 0 0 0.5 
557 2 2 0.328727 2.9496 1.65902 196 1 0 -183.408 -9.95415 -2.57975 -396.802 -1458.8 -1906.33 0 0 0 0.5 
941 2 2 3.40747 0.0165428 0.727212 -49 0 0 -462.227 -2.71062 -4.20745 -867.092 -977.469 -896.294 0 0 0 0.5 
266 1 1 2.76489 3.14282 1.58845 -276 -1 0 -204.583 13.3279 9.52935 1679.13 -737.426 -644.017 0 0 0 0.5 
78 1 1 4.08266 2.92948 1.82308 -35 0 1 -249.022 12.7008 -3.01438 -329.603 480.522 -307.7 0 0 0 0.5 
768 2 2 0.836188 4.82853 0.921512 -142 0 -1 -48.9969 3.90092 5.904 1542.93 -3356.89 729.124 0 0 0 0.5 
877 2 2 4.0283 0.697326 1.17488 234 1 1 -419.889 -1.17394 -20.1056 966.418 -126.105 -150.208 0 0 0 0.5 
952 2 2 3.90674 1.99451 0.211183 -14 0 0 -359.35 25.6727 9.22145 -2074.26 954.399 1032.7 0 0 0 0.5 
912 2 2 3.10707 4.54138 1.66789 3 0 0 -43.427 -21.0087 2.60197 654.681 -625.692 -963.785 0 0 0 0.5 
623 2 2 2.79396 4.96217 1.04528 -55 0 1 -43.9422 -9.85929 -13.7607 -1507.27 902.36 1888.06 0 0 0 0.5 
940 2 2 4.57407 1.68845 0.208461 -23 0 -1 -368.976 15.5886 -8.00979 1975.39 -193.178 -251.116 0 0 0 0.5 
569 2 2 4.6426 0.25474 0.146301 244 1 0 -482.583 11.1864 -2.99928 -570.867 -883.295 -777.318 0 0 0 0.5 
263 1 1 4.66681 0.274763 1.55081 -109 0 1 -465.938 -1.68331 14.9776 -1319.63 1687.47 787.573 0 0 0 0.5 
904 2 2 4.69006 3.09175 0.0927457 186 1 0 -222.066 4.12057 -18.8699 -2143.34 1906.42 1793.1 0 0 0 0.5 
708 2 2 4.86798 1.23447 0.802822 -166 0 1 -413.096 -4.75222 20.1559 -1073.18 -546.764 -272.537 0 0 0 0.5 
251 1 1 1.75325 3.71422 2.68402 -88 0 0 -185.229 26.6659 7.49794 766.825 552.579 -58.6821 0 0 0 0.5 
712 2 2 1.5102 0.159654 3.5287 131 1 0 -470.49 -6.05303 -26.3518 244.944 475.026 1330.32 0 0 0 0.5 
364 1 1 1.89869 2.30112 3.26387 -65 0 0 -245.682 -0.490912 -30.3698 1873.41 -1309.24 -651.74 0 0 0 0.5 
661 2 2 1.41421 1.51952 3.99655 -84 0 -1 -344.948 17.6042 -0.50299 -125.743 469.21 -189.012 0 0 0 0.5 
217 1 1 2.42041 0.00410564 2.67084 -83 0 0 -467.138 -17.2228 -20.2778 -3127.17 819.105 -270.508 0 0 0 0.5 
939 2 2 4.122 3.219 3.34014 -55 0 0 -150.958 -14.488 -22.5329 -172.036 154.81 -650.2 0 0 0 0.5 
380 1 1 2.56298 4.90684 3.81245 -42 0 1 3.2681 3.09464 13.2899 -1632.63 1118.34 961.839 0 0 0 0.5 
327 1 1 1.39633 3.12749 3.3462 -62 0 0 -156.076 -13.3069 9.36617 -693.914 2220.23 -40.738 0 0 0 0.5 
61 1 1 4.60202 1.38873 3.73503 -148 0 0 -325.631 0.141968 1.37472 -1760.86 300.124 266.37 0 0 0 0.5 
629 2 2 2.17777 1.53292 3.48913 -177 0 -1 -324.946 -15.618 9.03668 -232.699 -1290.83 765.784 0 0 0 0.5 
961 2 2 1.25584 2.52229 3.85311 -23 0 0 -235.431 -30.0993 11.2527 -647.761 -394.318 505.898 0 0 0 0.5 
549 2 2 4.50791 2.30951 2.22007 -158 0 0 -280.396 -11.176 27.518 -741.031 1545.87 583.681 0 0 0 0.5 
459 1 1 1.73872 1.61695 2.68364 4 0 0 -320.83 -29.9413 -13.6873 -2401.02 1781.48 3123.84 0 0 0 0.5 
247 1 1 1.82908 2.14051 2.0458 -180 0 0 -304.356 -4.70022 1.84626 -555.011 448.766 -92.1674 0 0 0 0.5 
130 1 1 0.719347 2.42867 2.95957 -68 0 0 -246.461 -4.20941 12.9391 1707.35 -349.176 221.439 0 0 0 0.5 
189 1 1 2.28833 1.06883 2.28844 225 1 0 -362.085 -5.27721 -2.87355 413.158 1.66491 -602.393 0 0 0 0.5 
197 1 1 0.203501 0.265878 2.89957 139 1 0 -446.75 4.21591 -12.8223 3079.09 -3195.77 -73.4013 0 0 0 0.5 
844 2 2 0.366404 1.21745 3.10765 201 1 0 -350.024 -11.0042 -12.5401 1333.58 -540.328 225.147 0 0 0 0.5 
777 2 2 2.75774 0.292553 3.81205 -199 0 -1 -501.227 2.30261 -13.3996 26.6355 -2902.74 142.544 0 0 0 0.5 
526 2 2 0.184654 1.70083 2.39868 -143 0 1 -310.908 11.1131 -12.2116 1625.57 481.26 66.1778 0 0 0 0.5 
666 2 2 2.68177 0.754475 3.02105 0 0 0 -382.402 -6.92078 4.39351 -474.29 1004.78 -88.6526 0 0 0 0.5 
293 1 1 2.1513 3.17425 2.25155 -150 0 1 -234.111 -3.29059 -16.3666 -695.691 -515.395 -331.154 0 0 0 0.5 
506 2 2 0.400594 1.50079 3.8687 -115 0 0 -310.341 -10.1037 2.48443 -21.2046 -153.758 -300.969 0 0 0 0.5 
88 1 1 2.91516 4.70438 3.04144 61 0 0 -22.4675 -11.1452 12.6072 -158.216 -1215.6 -639.213 0 0 0 0.5 
975 2 2 1.98057 4.57729 2.81722 239 1 1 -42.9976 7.09775 -7.51443 410.759 353.224 507.544 0 0 0 0.5 
870 2 2 3.8676 4.54139 3.47561 -2 0 1 2.15774 0.357123 -27.6398 -1214.26 357.493 -644.065 0 0 0 0.5 
206 1 1 1.167 4.67349 3.31196 -47 0 1 -43.6977 6.59151 27.0744 2466.16 -3150.52 1215.12 0 0 0 0.5 
823 2 2 4.54526 0.528125 3.96182 249 1 -1 -391.78 -36.2009 -21.081 -2268.59 1835.04 -1351.77 0 0 0 0.5 
300 1 1 3.77373 0.699355 3.20249 139 1 -1 -433.403 -0.281377 10.6177 841.463 -1283.11 1372.33 0 0 0 0.5 
139 1 1 3.85151 1.64829 3.5666 -53 0 0 -316.683 -3.0589 -9.1938 210.498 -357.102 -173.465 0 0 0 0.5 
731 2 2 3.00349 3.63367 3.09739 338 1 0 -151.675 25.9219 -3.479 483.114 -60.555 -98.3825 0 0 0 0.5 
744 2 2 2.86803 3.09088 2.49845 200 1 0 -224.778 23.5025 -18.8849 1458.49 1414.39 1509.26 0 0 0 0.5 
620 2 2 3.46607 2.02289 2.84907 -36 0 0 -303.536 10.639 -8.01445 984.404 -307.035 -1095.81 0 0 0 0.5 
406 1 1 0.673164 4.14321 3.96997 -68 0 1 -120.539 20.5938 16.0788 872.816 1309.5 -650.291 0 0 0 0.5 
478 1 1 0.715022 3.94829 2.3217 -30 0 1 -133.716 4.18123 -1.00781 -88.1636 -232.56 -759.499 0 0 0 0.5 
556 2 2 3.40326 1.26426 2.5983 147 1 -1 -374.316 7.54847 13.2581 -586.8 -840.27 -3480.75 0 0 0 0.5 
909 2 2 4.45195 0.398776 2.50664 -115 0 1 -484.348 2.35364 -0.600719 73.9921 17.4424 709.059 0 0 0 0.5 
626 2 2 0.929737 1.0822 2.03366 -69 0 -1 -353.709 -18.1392 11.7709 -316.562 79.4698 317.431 0 0 0 0.5 
228 1 1 3.16194 2.62517 3.04048 -129 0 1 -263.4 26.8706 5.50647 1175.21 1688.56 -110.513 0 0 0 0.5 
400 1 1 0.0317656 3.1755 3.64047 -144 0 0 -194.024 3.09397 -6.70458 526.871 -1819.41 -1038.61 0 0 0 0.5 
358 1 1 3.2518 0.491499 2.31833 -81 0 0 -433.378 -0.991293 -14.213 1762.34 -410.787 -734.034 0 0 0 0.5 
828 2 2 2.73598 2.27118 2.16107 -69 0 1 -306.3 17.5474 16.2937 150.047 399.709 316.207 0 0 0 0.5 
741 2 2 3.29121 4.21976 2.44888 -120 0 0 -46.428 -21.7859 -4.79431 1033.5 -862.733 385.713 0 0 0 0.5 
674 2 2 2.76918 2.50866 3.64846 -62 0 0 -242.001 -7.10245 4.98276 178.917 -1497.14 36.0891 0 0 0 0.5 
896 2 2 0.86462 4.85582 2.49549 -20 0 -1 -5.72214 -11.2401 -18.0104 760.028 -757.574 -708.293 0 0 0 0.5 
562 2 2 0.965742 3.76649 3.18934 124 0 1 -155.601 5.80169 6.31845 -1829.56 1550.8 1090.74 0 0 0 0.5 
786 2 2 4.3736 1.51257 2.66166 -171 0 1 -355.873 6.58167 1.19033 -128.409 -1315.58 940.381 0 0 0 0.5 
450 1 1 2.96251 1.47252 3.44449 179 1 0 -307.962 8.97107 0.759343 -1643.51 -1535.46 1089.9 0 0 0 0.5 
792 2 2 2.54244 3.62757 3.78484 274 1 0 -148.135 3.8698 13.9218 -111.359 -26.1032 1162.03 0 0 0 0.5 
956 2 2 4.87706 2.14602 3.20945 -110 0 1 -328.003 16.0888 -19.8164 -1638.21 814.039 -325.64 0 0 0 0.5 
90 1 1 4.90888 4.17045 2.93848 49 0 0 -102.084 21.983 -33.14 -767.37 870.558 -1045.61 0 0 0 0.5 
40 1 1 4.50144 4.15033 3.99868 -45 0 0 -31.2003 -22.5509 -27.076 -678.164 -1313.73 -315.084 0 0 0 0.5 
763 2 2 2.59128 0.819869 4.06631 117 1 1 -418.737 19.3961 -8.56347 -412.714 4109.55 -508.879 0 0 0 0.5 
95 1 1 4.57688 2.67231 5.43094 -36 0 0 -206.566 10.284 -7.10687 992.812 90.252 45.0238 0 0 0 0.5 
154 1 1 2.29927 2.13219 5.5453 -1 0 0 -258.175 -17.5824 -2.07591 -2525.32 -1887.43 979.434 0 0 0 0.5 
178 1 1 1.53109 0.629939 4.31697 86 1 0 -401.029 11.7984 4.06519 -2241.25 1751.66 -1184.72 0 0 0 0.5 
211 1 1 1.75362 1.27526 5.33308 198 1 0 -379.421 2.57767 -9.73554 616.607 -718.662 -356.797 0 0 0 0.5 
951 2 2 0.529605 2.70337 4.82554 -50 0 0 -182.512 14.3899 4.14526 2215.52 -2850.65 1081.01 0 0 0 0.5 
848 2 2 0.378101 0.519895 4.25102 -232 0 1 -404.744 -3.36383 3.22082 28.8751 10.908 -189.235 0 0 0 0.5 
609 2 2 1.43993 3.07382 5.23772 -47 0 0 -144.081 0.782413 -30.8559 -1262.77 807.513 -288.559 0 0 0 0.5 
200 1 1 1.39794 2.00998 5.11164 -143 0 0 -288.896 8.06521 8.03576 -2028.99 4299.17 223.716 0 0 0 0.5 
989 2 2 0.822947 1.34123 4.71739 55 0 0 -328.512 -2.36025 14.7867 1222.02 2467.27 -347.552 0 0 0 0.5 
203 1 1 2.75809 1.64257 4.2767 -188 0 0 -296.397 13.1986 2.00631 1265.89 -156.452 -346.586 0 0 0 0.5 
190 1 1 2.00524 2.69189 5.43323 -49 0 1 -178.589 -6.11279 -15.3039 -119.291 373.556 -1158.57 0 0 0 0.5 
983 2 2 2.40141 0.938643 4.93703 -12 0 -1 -383.309 -20.4301 -3.62206 -811.525 -383.43 435.16 0 0 0 0.5 
428 1 1 0.275699 1.95081 4.55158 -96 0 1 -294.684 7.10014 7.36704 -1583.35 2795.04 646.344 0 0 0 0.5 
647 2 2 2.14323 1.83816 4.65909 -109 0 0 -315.07 5.71077 -15.4672 -927.444 -636.412 1542.3 0 0 0 0.5 
504 2 2 2.26137 3.4615 5.71778 74 0 0 -122.67 -3.65923 -13.031 -1158.94 1500.99 2293.22 0 0 0 0.5 
436 1 1 2.18073 4.11235 5.23777 71 0 0 -59.4197 3.85705 -15.9981 -2247.95 1947.19 548.233 0 0 0 0.5 
845 2 2 2.52807 3.20922 4.78722 -36 0 0 -143.88 1.09623 3.54415 -1628.81 1665.35 -199.414 0 0 0 0.5 
96 1 1 1.01058 0.678255 5.04332 -112 0 0 -385.92 12.1888 4.42259 839.821 -1917.78 1172.41 0 0 0 0.5 
308 1 1 0.229485 0.463753 5.22498 -100 0 1 -389.116 -41.4787 2.23291 -2144.71 -763.94 -694.4 0 0 0 0.5 
260 1 1 1.98802 0.699312 5.78672 -147 0 0 -389.867 -18.1878 0.544291 79.3947 -1992.96 243.195 0 0 0 0.5 
169 1 1 0.846738 0.357551 5.85336 251 1 0 -400.262 -3.33199 -17.8896 870.8 393.578 -524.763 0 0 0 0.5 
875 2 2 0.157934 2.24142 5.60484 -60 0 1 -264.433 3.04024 -12.2024 391.439 486.523 -820.75 0 0 0 0.5 
821 2 2 4.76624 2.4415 4.67337 224 1 0 -210.323 -22.7576 -8.59246 852.207 1057.83 -1211.09 0 0 0 0.5 
770 2 2 1.72569 3.50155 4.29033 -67 0 0 -146.396 -1.39013 25.7527 -43.5831 1994.28 -466.752 0 0 0 0.5 
640 2 2 2.11416 2.73608 4.04515 -135 0 0 -225.199 -1.89644 -8.40375 196.176 -346.316 2601.63 0 0 0 0.5 
667 2 2 4.97027 1.6138 4.82252 -50 0 0 -257.146 -14.2699 20.5143 -3563.29 -988.446 1333.88 0 0 0 0.5 
927 2 2 2.92613 2.94565 5.70023 8 0 0 -166.729 -13.3733 -33.9003 434.383 2034.9 -2002.98 0 0 0 0.5 
484 1 1 3.35369 3.76243 5.33 29 0 0 -85.9677 -6.80595 -11.8443 -3610.89 255.958 2285.85 0 0 0 0.5 
759 2 2 0.889919 3.61912 4.73699 -91 0 -1 -126.353 10.6964 8.35595 -3379.71 371.324 199.014 0 0 0 0.5 
641 2 2 0.211833 4.77918 5.90069 -30 0 0 26.9256 7.6851 8.93904 -273.187 -32.8564 925.505 0 0 0 0.5 
544 2 2 4.65186 2.15861 5.99617 -17 0 0 -280.422 -13.7864 19.2221 -2456.23 2986.26 -436.37 0 0 0 0.5 
780 2 2 3.17083 1.02745 5.03484 -174 0 0 -376.543 7.13316 5.81646 -263.658 -1179.2 -1298.33 0 0 0 0.5 
347 1 1 4.35423 3.01002 4.21787 -22 0 -1 -192.71 -13.5284 -11.4407 -2068.76 209.455 -591.663 0 0 0 0.5 
466 1 1 3.61989 0.549168 4.47742 129 1 0 -422.794 -1.50339 -41.1804 298.227 -296.28 -756.066 0 0 0 0.5 
919 2 2 3.37916 3.58884 4.30627 -189 -1 0 -104.63 -17.2295 -33.0089 488.152 -2419.24 -896.848 0 0 0 0.5 
292 1 1 4.10841 4.68947 5.48211 -367 -1 -1 -6.26773 -9.19278 -4.45049 1521.35 -2897.08 -393.082 0 0 0 0.5 
182 1 1 2.81834 2.60653 4.58025 41 0 -1 -196.593 -24.8609 3.42852 -1845.93 -1357.2 930.039 0 0 0 0.5 
892 2 2 1.27975 4.52839 5.03578 54 0 -1 -17.4312 -1.46552 13.9212 501.605 -1820.54 1105.2 0 0 0 0.5 
957 2 2 3.59509 2.29389 4.11579 30 0 0 -242.855 2.1146 15.8589 2347.83 -162.148 -700.027 0 0 0 0.5 
552 2 2 3.07091 4.49516 5.67665 73 0 -1 -35.4305 8.77443 -1.21222 1931.94 -1483.61 1003.18 0 0 0 0.5 
619 2 2 4.98106 0.821425 5.56074 -92 0 1 -412.189 7.74426 7.87538 -1753.69 953.25 639.205 0 0 0 0.5 
336 1 1 3.87418 3.10162 5.7318 98 0 0 -179.433 5.86584 34.8922 1060.89 -833.882 1378.65 0 0 0 0.5 
464 1 1 0.673993 3.12567 5.71845 17 0 0 -120.389 -16.7837 17.5039 -276.682 -340.426 30.202 0 0 0 0.5 
67 1 1 2.7993 4.03573 4.78604 290 1 1 -66.6027 11.9858 -17.6124 427.987 2206.73 -1301.62 0 0 0 0.5 
516 2 2 0.330504 4.37024 5.12943 -110 0 1 -34.8471 -5.90806 -6.74979 338.496 -209.063 -623.301 0 0 0 0.5 
614 2 2 4.79987 0.805316 4.71368 165 1 0 -392.654 -12.7432 2.85091 -1445.06 1176.71 -204.459 0 0 0 0.5 
944 2 2 3.22014 4.40734 4.14214 -88 0 1 5.75646 3.39018 -1.36837 366.521 1250.26 -385.657 0 0 0 0.5 
24 1 1 2.96011 1.76821 5.51838 210 1 -1 -310.652 -3.30455 -1.30594 4044.72 -611.302 1064.22 0 0 0 0.5 
631 2 2 3.23077 4.91087 5.00192 37 0 0 25.1343 5.69361 5.13081 -317.143 -248.928 -806.974 0 0 0 0.5 
788 2 2 3.98036 0.102539 5.16305 115 1 0 -483.675 -4.3676 7.1197 -3765.19 3261.39 -2815.1 0 0 0 0.5 
497 1 1 4.03445 4.6827 4.57504 180 0 1 9.49465 -13.0256 -12.5781 1951.29 -1905.02 1200.04 0 0 0 0.5 
532 2 2 4.05886 3.44666 4.82921 58 0 0 -127.175 7.19881 32.5961 2965.59 -1148 -876.513 0 0 0 0.5 
565 2 2 4.09659 0.978455 5.39539 -124 0 0 -411.954 9.63064 -11.8275 1583.77 -122.694 396.524 0 0 0 0.5 
791 2 2 1.7884 3.39035 7.57376 50 0 -1 -64.7721 -25.4037 -16.9329 -3431.86 231.143 1467.6 0 0 0 0.5 
204 1 1 4.1693 4.50071 7.97541 -143 0 1 -71.0991 -2.84775 -15.1408 -3193.58 121.212 -1871.27 0 0 0 0.5 
224 1 1 1.39429 0.298576 6.34243 -176 0 0 -452.328 19.4539 -8.39888 4232.98 -1091.4 1114.62 0 0 0 0.5 
314 1 1 3.91683 2.76145 7.05905 -107 0 0 -240.88 8.57478 -16.8277 3550.23 -2419.94 -1320.9 0 0 0 0.5 
970 2 2 2.51555 4.68293 6.9973 213 0 -1 1.707 8.98854 9.53551 -100.484 -606.07 -326.992 0 0 0 0.5 
167 1 1 0.49164 0.232497 7.70412 208 1 -1 -452.523 -2.98897 -3.17509 -1352.85 925.436 986.465 0 0 0 0.5 
721 2 2 2.54482 2.50979 7.39596 233 1 0 -230.097 9.29327 2.13655 177.028 -1337.12 1763.93 0 0 0 0.5 
225 1 1 0.749899 0.0815325 6.81868 -138 0 0 -460.584 -30.7094 7.6902 -379.926 -1544.32 2557.38 0 0 0 0.5 
415 1 1 2.42313 4.20179 6.22672 -6 0 -1 -50.5007 16.0234 -10.697 -1568.12 1252.97 -75.012 0 0 0 0.5 
671 2 2 1.41774 3.23312 6.41968 -29 0 0 -125.735 -2.78822 -1.86826 275.858 -533.092 -314.438 0 0 0 0.5 
938 2 2 0.41663 2.20284 6.63267 3 0 -1 -206.397 -22.1862 5.10516 66.1911 61.409 141.576 0 0 0 0.5 
136 1 1 2.66987 3.33205 7.72274 -4 0 -1 -127.373 -15.2472 16.982 1962.31 2589.76 -524.505 0 0 0 0.5 
375 1 1 3.03297 3.5853 6.29885 221 1 -1 -93.841 9.99639 -11.7339 285.288 -3436.63 -1547.06 0 0 0 0.5 
421 1 1 1.84248 1.68477 6.22103 216 1 -1 -334.867 -0.451905 -18.3389 1907.21 -3167.72 -82.8089 0 0 0 0.5 
487 1 1 1.63068 2.25449 6.79395 -135 0 -1 -246.972 28.9504 -4.33538 -327.587 2044.31 -168.484 0 0 0 0.5 
639 2 2 1.43431 0.322026 7.35483 120 1 0 -455.471 -31.2113 1.36564 -2072.2 113.383 1776.21 0 0 0 0.5 
645 2 2 2.19764 0.453339 7.26518 154 1 -1 -444.816 -6.11462 -12.9654 1317.31 -75.9604 251.583 0 0 0 0.5 
470 1 1 2.19074 1.11536 6.57198 126 1 -1 -364.628 -22.3826 7.93675 -763.677 -395.002 -1786.08 0 0 0 0.5 
270 1 1 0.220763 1.44708 6.21965 -117 0 1 -314.144 -11.3361 -3.55303 -2986.76 487.991 -767.328 0 0 0 0.5 
55 1 1 2.97171 0.945511 6.36718 157 1 0 -363.817 -1.26611 -3.13936 -446.746 4119.85 1885.05 0 0 0 0.5 
863 2 2 1.79721 2.44037 7.71385 -70 0 0 -233.007 2.46102 -12.9639 -178.917 -428.455 100.389 0 0 0 0.5 
751 2 2 0.184787 0.462026 6.20599 200 1 1 -375.971 -22.2725 17.081 -4584.02 2824.62 -1153.55 0 0 0 0.5 
646 2 2 0.886855 2.41129 7.48577 -59 0 0 -208.533 3.23361 3.16852 -1505.84 -773.727 406.723 0 0 0 0.5 
338 1 1 0.966621 1.10067 6.46275 143 1 0 -339.316 17.8986 -20.3883 892.134 1342.56 288.864 0 0 0 0.5 
17 1 1 2.41215 1.3187 7.35294 -131 0 -1 -358.497 2.7702 3.97748 2866.36 -897.816 -501.918 0 0 0 0.5 
611 2 2 2.31731 3.40174 6.84202 -49 0 0 -111.652 -13.6023 -14.6366 -1225.72 4607.47 963.53 0 0 0 0.5 
613 2 2 1.72652 1.69254 7.19593 -56 0 0 -312.153 4.29452 2.54855 -4272.24 -420.016 70.2548 0 0 0 0.5 
264 1 1 2.76498 4.18778 7.59576 -22 0 -1 -28.7349 -1.96559 15.1815 -934.987 -894.439 2304.16 0 0 0 0.5 
746 2 2 4.72706 1.17395 7.76498 -56 0 -1 -383.441 -9.1262 3.596 1083.52 -1434.85 -1172.95 0 0 0 0.5 
995 2 2 1.36024 2.49822 6.09779 -142 0 1 -213.711 -23.0908 -51.3176 -3034.35 4562 -1379.31 0 0 0 0.5 
241 1 1 0.433434 0.933476 7.02818 347 1 1 -346.086 -7.7969 20.0323 -3947.09 2088.63 -1198.04 0 0 0 0.5 
596 2 2 1.34304 0.981476 7.31635 -111 0 0 -377.375 -5.5223 -8.93005 3515.15 486.144 -1000.19 0 0 0 0.5 
410 1 1 0.893154 1.55222 7.67923 -66 0 -1 -322 -8.74217 14.2749 -1462.78 1666.4 734.123 0 0 0 0.5 
168 1 1 4.84561 0.624328 6.97837 92 1 0 -399.804 -21.7959 0.972919 -3742.21 3238.93 -852.723 0 0 0 0.5 
360 1 1 2.00731 4.40279 7.86981 -248 -1 0 -41.6752 -16.1224 2.93534 -236.303 -73.6404 593.124 0 0 0 0.5 
33 1 1 3.74244 1.50478 6.19415 282 1 0 -358.307 -8.67474 -23.433 439.34 -1206.67 -96.8104 0 0 0 0.5 
988 2 2 0.699066 3.92145 6.85436 5 0 0 -35.3923 2.83881 -25.374 -95.0181 -571.384 -789.69 0 0 0 0.5 
121 1 1 4.46829 2.06238 7.22523 266 1 -1 -287.857 -5.23405 6.73631 982.463 -1273.25 308.426 0 0 0 0.5 
501 2 2 4.17317 4.95964 7.09618 215 1 0 -14.4453 15.51 -7.20852 -842.608 971.126 -667.059 0 0 0 0.5 
935 2 2 3.48405 4.09819 6.99672 -80 0 0 -100.775 15.6789 7.98987 2295.57 -838.046 -2306.8 0 0 0 0.5 
917 2 2 1.52637 4.07817 6.29952 37 0 0 -45.7571 8.96474 -2.58964 -391.139 -1950.86 766.7 0 0 0 0.5 
673 2 2 2.78402 2.68523 6.4802 168 1 -1 -260.569 16.369 -9.59193 1739.64 -1959.75 -2425.09 0 0 0 0.5 
804 2 2 2.84686 1.954 6.9442 -178 0 -1 -278.082 -10.107 -22.4615 -362.806 -2381.4 -745.723 0 0 0 0.5 
672 2 2 0.614498 4.35935 7.58088 -19 0 -1 -1.8144 10.9978 -12.9684 -56.7263 656.235 -426.713 0 0 0 0.5 
452 1 1 0.5886 3.04199 6.88628 25 0 0 -133.342 -9.88427 -22.2064 -431.065 1353.05 -1259.34 0 0 0 0.5 
929 2 2 1.04739 3.69211 7.85202 -23 0 1 -40.9706 -26.4561 -20.5974 -2207.91 -55.2031 390.354 0 0 0 0.5 
64 1 1 3.60842 4.60383 6.3361 44 0 -1 -26.4307 24.0087 -5.2575 758.479 -515.679 1181.6 0 0 0 0.5 
960 2 2 3.80475 0.951789 7.04213 209 1 0 -404.305 -1.42597 -0.0176111 20.7455 2.27475 -75.5863 0 0 0 0.5 
245 1 1 4.75371 4.46745 7.31787 -23 0 0 -25.4408 -13.5756 4.33294 -3127.2 3966.18 1562.05 0 0 0 0.5 
910 2 2 3.3541 3.1984 7.16154 -61 0 1 -169.031 3.60395 -15.2453 -2793.48 3084.19 1351.7 0 0 0 0.5 
630 2 2 3.28621 0.0512418 7.0601 113 1 0 -521.8 6.81937 21.1418 0 0 0 0 0 0 0.5 
662 2 2 3.25787 0.308028 6.04419 -129 0 1 -507.856 3.62025 3.09271 1821.02 -3771.28 -2119.46 0 0 0 0.5 
115 1 1 3.51157 2.35185 6.24477 171 1 -1 -267.446 12.9538 -11.0711 3319.78 -1421.99 1574.12 0 0 0 0.5 
31 1 1 3.54908 1.87019 7.55155 189 1 0 -292.453 -19.231 -9.93269 1132.81 -2187.61 -413.991 0 0 0 0.5 
331 1 1 4.43601 3.47274 7.8239 -13 0 -1 -140.018 12.8012 -26.771 -3463.39 1500.75 1499.11 0 0 0 0.5 
289 1 1 1.25854 4.93583 6.00016 -271 -1 -1 37.1155 2.1743 7.83026 1384.01 -410.356 -3950.3 0 0 0 0.5 
388 1 1 2.34806 0.105585 8.1135 -214 0 0 -521.605 4.4096 -2.48175 462.413 -734.315 -7.5995 0 0 0 0.5 
214 1 1 4.44884 4.49428 9.35382 -26 0 -1 -71.16 -7.42821 24.2169 -1881.8 -3609.14 1288 0 0 0 0.5 
249 1 1 1.75205 3.2715 9.13495 -91 0 1 -169.03 -17.6912 19.5608 271.891 647.68 28.4023 0 0 0 0.5 
643 2 2 3.9396 0.19558 8.05165 34 1 1 -449.929 -33.4495 -3.28063 310.085 -520.295 142.569 0 0 0 0.5 
590 2 2 0.802726 2.71198 8.50066 -28 0 -1 -157.779 -12.9556 -1.72287 -3351.07 -2037.31 980.051 0 0 0 0.5 
911 2 2 2.22424 4.71923 9.66381 -275 -1 -2 -63.4071 18.9738 6.66471 964.565 -842.627 -1237.45 0 0 0 0.5 
713 2 2 0.839779 0.316873 9.78288 -220 0 0 -481.33 -25.52 9.7077 -871.846 -55.1887 251.206 0 0 0 0.5 
98 1 1 1.37819 2.273 9.20757 -57 0 -1 -285.732 -4.07146 -12.4843 -459.209 708.656 124.099 0 0 0 0.5 
254 1 1 0.917326 2.59338 9.76378 -15 0 -1 -243.59 -17.0422 28.1287 -241.347 -416.883 2187.29 0 0 0 0.5 
353 1 1 4.27785 1.75688 8.23126 157 1 0 -337.527 4.0167 3.14269 311.347 -835.109 -773.169 0 0 0 0.5 
926 2 2 1.36393 1.74574 8.48188 197 1 0 -309.61 -6.18588 5.36926 -251.786 531.048 -225.869 0 0 0 0.5 
738 2 2 1.60696 0.259181 9.48609 237 1 0 -471.989 0.907028 -15.155 -829.249 597.716 -1035.75 0 0 0 0.5 
162 1 1 1.71058 4.02498 9.44414 201 1 -1 -148.619 12.1004 10.7345 3391.28 -1140.58 1979.99 0 0 0 0.5 
383 1 1 1.05525 3.32547 9.40223 -88 0 0 -156.438 -20.2805 10.4742 -1786.4 281.647 715.367 0 0 0 0.5 
511 2 2 3.85163 4.01088 8.76004 -23 0 -1 -78.7738 12.6483 10.6964 153.774 836.703 -1937.84 0 0 0 0.5 
733 2 2 3.95951 0.562707 8.95625 104 0 -1 -441.984 -7.86024 -6.68832 -787.577 -127.854 -70.2215 0 0 0 0.5 
257 1 1 1.8697 1.00105 8.09245 -56 0 0 -393.646 -7.66698 -7.05545 1055.11 336.087 -1103.2 0 0 0 0.5 
767 2 2 2.31147 3.13585 8.92393 -109 0 0 -176.091 8.24607 10.5249 729.009 -61.6702 -2349.72 0 0 0 0.5 
316 1 1 2.2354 0.672596 8.80699 -151 0 -1 -415.537 -10.8224 12.2211 -1811.29 351.073 387.373 0 0 0 0.5 
298 1 1 0.97009 1.17887 9.28511 -152 0 -1 -390.244 5.39971 1.20682 23.5369 -162.197 -287.669 0 0 0 0.5 
865 2 2 0.535385 1.76534 9.97469 -120 0 -1 -351.608 -4.44816 -0.561038 1231.26 -972.193 453.391 0 0 0 0.5 
483 1 1 1.0384 0.708119 8.4502 194 1 -1 -389.719 -18.5517 -1.00933 -282.473 1633.18 -216.88 0 0 0 0.5 
311 1 1 2.10218 2.04346 9.11057 -31 0 0 -275.105 0.536323 -15.4402 334.838 -885.328 150.96 0 0 0 0.5 
980 2 2 2.12383 1.27546 9.51559 195 1 1 -361.144 -14.2887 20.833 -92.4591 612.76 492.91 0 0 0 0.5 
737 2 2 0.522024 1.90688 8.73724 -83 0 0 -308.061 -14.53 23.7641 706.144 1763.82 -36.9215 0 0 0 0.5 
971 2 2 1.57832 2.82306 8.3616 49 0 0 -172.259 -5.70903 8.26908 2436.85 1094.2 -671.782 0 0 0 0.5 
861 2 2 3.46592 1.72803 8.49354 -68 0 0 -320.412 -14.91 4.96817 -371.687 -129.135 -628.495 0 0 0 0.5 
710 2 2 2.74206 4.59471 8.4796 96 0 -1 -19.4606 24.9137 8.38476 575.515 1775.95 -1398.03 0 0 0 0.5 
843 2 2 3.06385 3.88896 8.48791 -37 0 0 -78.7036 -16.1067 14.3637 -2108.29 454.61 1909.76 0 0 0 0.5 
573 2 2 3.5415 0.922922 8.00132 -130 0 0 -414.846 8.47017 -3.33257 2605.22 -1432.86 -892.194 0 0 0 0.5 
277 1 1 2.61133 2.7118 8.45422 -152 0 0 -223.764 -5.49245 -29.347 -1175.56 -1370.34 -531.704 0 0 0 0.5 
284 1 1 3.74375 2.44056 9.39789 -110 0 -1 -283.745 15.046 -2.84921 933.198 666.176 -784.525 0 0 0 0.5 
694 2 2 3.90632 1.38921 9.28563 -239 0 0 -320.363 -0.269929 13.9059 54.8164 578.232 434.265 0 0 0 0.5 
577 2 2 4.88656 2.6664 9.30994 218 1 -1 -279.224 17.2326 -9.48747 925.805 365.107 -2186.43 0 0 0 0.5 
318 1 1 0.121761 2.55651 9.65854 -91 0 0 -241.051 -15.9017 11.1017 -2272.49 2902.48 -2403.26 0 0 0 0.5 
433 1 1 0.97658 4.77526 8.78229 251 1 -1 19.0647 2.56787 -15.6498 -3852.71 -349.688 -1201.44 0 0 0 0.5 
992 2 2 1.43367 3.7271 8.56579 -140 0 0 -54.9576 5.7976 3.97524 -1323.69 2453.56 -2346.42 0 0 0 0.5 
977 2 2 3.3542 2.58279 8.01443 160 1 -1 -221.272 -17.3416 -26.6454 209.78 1462.57 641.314 0 0 0 0.5 
163 1 1 2.96065 2.50087 9.93997 210 1 0 -281.513 -13.6307 -0.0205186 1211.6 -300.085 -1157.38 0 0 0 0.5 
581 2 2 3.97472 3.68416 9.63322 -31 0 0 -195.906 14.3879 21.7787 1286.96 719.245 -1306.92 0 0 0 0.5 
849 2 2 1.54206 4.90024 9.4537 42 0 0 -39.0712 3.41083 10.3944 -3127.85 4634.23 248.099 0 0 0 0.5 
148 1 1 2.95553 2.15551 8.92236 -39 0 0 -275.646 0.223211 9.10074 -246.588 112.771 2203.34 0 0 0 0.5 
607 2 2 0.804577 4.08892 9.33484 78 0 0 -103.077 4.34548 -11.1123 -2351.93 1386.46 -1303.63 0 0 0 0.5 
888 2 2 1.93561 4.71458 8.71592 421 1 0 -20.3385 5.20706 -1.79098 871.765 294.613 446.94 0 0 0 0.5 
446 1 1 3.42728 3.38831 8.10593 -48 0 0 -102.772 -3.75396 -2.12632 2163.5 -958.477 -1786.66 0 0 0 0.5 
761 2 2 3.30703 0.232937 9.73521 -161 0 0 -475.062 -1.42074 5.57536 1751.37 -1745.89 2726.04 0 0 0 0.5 
966 2 2 4.90082 1.20604 9.49443 -86 0 0 -393.574 -20.8209 4.61214 17.8405 -597.019 23.822 0 0 0 0.5 
140 1 1 2.92739 0.61139 9.1443 135 1 0 -418.132 11.3661 19.3228 -129.628 -555.359 -2044.61 0 0 0 0.5 
520 2 2 2.60436 4.01429 9.33347 69 0 0 -147.267 16.7181 -23.7514 679.022 205.316 -1747.94 0 0 0 0.5 
278 1 1 2.24935 1.88851 8.11246 234 1 -1 -300.045 -8.84499 26.478 -110.092 2031.18 -100.856 0 0 0 0.5 
173 1 1 3.0992 1.57685 9.87579 205 1 0 -315.447 -24.4961 -24.3237 -513.994 -420.165 -84.8048 0 0 0 0.5 
165 1 1 2.96086 3.26624 9.58475 20 0 -1 -224.053 10.9641 -16.1789 3437.08 -1352.52 3755.34 0 0 0 0.5 
147 1 1 1.82471 2.74984 9.88937 -132 0 -1 -234.267 -5.96222 -28.8255 1367.78 -2141.87 847.573 0 0 0 0.5 
201 1 1 4.08325 3.34359 8.78215 -83 0 0 -122.691 -32.1661 -0.828602 476.647 1546.57 4140.82 0 0 0 0.5 
753 2 2 3.98838 4.89781 8.73657 67 0 0 -28.4576 16.4037 -13.4853 1248.19 1659.52 373.455 0 0 0 0.5 
485 1 1 4.25617 2.6986 8.32846 -123 0 1 -219.879 -22.7341 -16.1478 1135.64 1495.98 -2499.41 0 0 0 0.5 
47 1 1 4.72664 0.037007 8.68404 -146 0 -1 -465.301 -10.6141 -16.2284 -2141.81 1493.55 2309.71 0 0 0 0.5 
252 1 1 4.73111 4.32751 8.27034 202 1 0 -81.5559 5.09401 5.35839 -1745.43 1281.49 1714.2 0 0 0 0.5 
595 2 2 2.76054 1.06385 8.00654 137 1 0 -400.429 4.60982 15.7754 1695.38 -3265.34 1722.25 0 0 0 0.5 
157 1 1 4.87959 1.86087 8.95489 -72 0 0 -347.228 1.14225 -6.67893 475.505 -220.225 1252.28 0 0 0 0.5 
655 2 2 1.23356 9.53412 1.90293 -255 -1 1 459.187 -2.20793 -4.85249 -344.04 169.42 -281.337 0 0 0 0.5 
129 1 1 0.255245 5.30022 0.497917 -241 -1 0 -25.0542 4.73717 -20.8166 -653.49 1335.17 -127.345 0 0 0 0.5 
517 2 2 3.61201 8.38174 0.0609412 8 0 1 341.319 2.18261 -14.1525 -335.115 3012.85 -74.8486 0 0 0 0.5 
588 2 2 2.82899 9.84319 1.55262 91 0 1 501.476 -24.8442 -18.6838 2145.44 -2679.55 490.118 0 0 0 0.5 
118 1 1 2.05946 7.32521 1.32759 185 0 1 234.44 6.80957 -9.01697 1217.26 787.213 -609.75 0 0 0 0.5 
750 2 2 1.63762 8.31784 0.0827174 -156 -1 1 320.117 7.4873 16.1391 325.761 845.86 -1497.06 0 0 0 0.5 
679 2 2 4.42445 6.38348 0.593498 1 0 0 161.087 -35.6655 4.49023 -485.364 104.676 841.776 0 0 0 0.5 
259 1 1 1.94144 8.33259 0.994664 -172 -1 -1 319.993 5.49279 14.7406 79.5917 -511.571 384.051 0 0 0 0.5 
962 2 2 3.93772 8.93992 0.722724 -170 -1 0 425.872 -3.25531 -7.31657 -1291.7 991.05 -711.473 0 0 0 0.5 
467 1 1 2.91616 5.49698 0.337095 360 1 1 0.460097 1.54116 -8.21021 -187.871 -274.07 67.7473 0 0 0 0.5 
772 2 2 1.84069 5.24518 0.236658 -58 0 2 -16.3117 13.4078 4.10042 -826.461 189.906 558.518 0 0 0 0.5 
26 1 1 2.99114 8.14713 0.957969 168 0 0 287.853 19.6491 2.33087 -514.484 773.642 1818.87 0 0 0 0.5 
637 2 2 3.10527 8.67587 1.74153 -134 -1 2 405.512 -4.80711 6.01014 2539.25 -1161.68 209.488 0 0 0 0.5 
837 2 2 2.63954 6.14056 1.96982 -249 -1 0 114.21 -34.0932 9.33738 630.673 -2252.69 -469.714 0 0 0 0.5 
615 2 2 2.4581 6.58186 0.369214 173 0 0 156.941 18.0432 25.6108 -10.2839 1782.11 1764.49 0 0 0 0.5 
151 1 1 -0.00690198 6.31465 1.11268 -1 0 0 103.626 16.3416 -25.0228 -220.821 864.074 -363.082 0 0 0 0.5 
340 1 1 2.60748 5.7639 1.20254 17 0 0 22.5134 18.5915 -7.79891 1043.2 -1785.33 -921.478 0 0 0 0.5 
455 1 1 3.89291 7.53656 0.297495 36 0 0 240.579 8.62027 -11.912 -303.98 -94.3545 1484.78 0 0 0 0.5 
651 2 2 4.07932 6.40501 1.51234 28 0 0 117.28 -13.1805 14.1566 2409.48 142.647 -1234.99 0 0 0 0.5 
857 2 2 4.05363 9.75837 0.842437 -43 -1 0 531.501 7.10168 6.8419 918.458 -828.313 332.669 0 0 0 0.5 
779 2 2 3.29867 6.22794 1.92973 5 0 0 121.131 9.57898 6.12525 1017.39 622.202 564.337 0 0 0 0.5 
226 1 1 0.388683 6.0811 0.160169 -198 -1 1 61.9358 31.4819 -27.1595 -112.671 -659.359 285.184 0 0 0 0.5 