# vtk DataFile Version 4.2
Generated by LIGGGHTS
ASCII
DATASET POLYDATA
POINTS 1000 float
1.56518 3.67379 0.372337 4.60007 4.09897 1.19311 1.77965 0.161306 0.482926 
2.2766 1.70518 0.949058 1.83752 1.04584 0.138333 3.28349 4.38366 0.891542 
2.55345 1.59895 1.83049 1.73176 1.02468 1.9847 2.95339 1.9857 0.277268 
2.02344 0.842322 1.12679 1.65576 2.61568 0.21043 1.74089 4.00478 1.29241 
2.78896 0.93177 0.191755 1.39482 2.3376 1.06409 1.03889 3.17303 1.11652 
0.580778 2.25507 0.472806 0.880152 1.66907 1.57431 1.43049 0.0997266 1.37336 
0.102836 4.14217 1.16463 1.09735 2.89947 1.95606 2.57049 4.18082 1.71643 
4.28787 0.207669 1.91328 2.80559 2.61243 0.991547 0.798351 0.23123 1.96232 
0.301814 4.07588 0.157073 3.87663 2.38898 0.964777 4.09332 4.88433 1.14176 
0.652835 3.37812 0.481065 0.849977 3.93246 1.54454 4.34933 4.36717 0.326213 
4.13659 2.85744 0.016374 3.32378 0.764115 1.25803 4.60265 1.2131 1.54145 
3.87886 3.50623 0.699021 3.81971 2.96345 1.6324 1.82405 4.56534 0.0309756 
4.60724 0.84077 0.327625 1.00589 4.79702 1.98834 4.46636 2.54892 1.97729 
1.88118 4.94611 1.38068 1.14037 4.38855 0.690885 2.23291 3.03916 1.7902 
4.02274 1.46673 0.740583 3.12778 0.196342 0.651066 3.09207 3.40972 1.44517 
4.85869 1.84072 0.657719 0.0843733 1.66681 3.06632 4.88385 1.94469 2.12906 
1.33222 2.1987 2.23383 1.34417 1.191 3.85414 1.69954 0.596491 3.45807 
0.819302 1.04824 2.31051 2.46198 4.62009 2.92555 1.45121 2.86257 3.44851 
1.81827 3.79891 3.2102 3.7596 3.96643 2.92296 2.0081 3.3087 2.56639 
1.90411 2.22753 2.87479 2.82609 3.03706 3.27032 2.61424 3.96214 3.80465 
2.04979 2.1317 3.70465 2.12259 1.30017 2.88651 2.37885 0.469448 3.70352 
2.28847 0.49737 2.69791 0.71959 2.64735 2.94276 0.185773 1.9211 2.121 
4.0317 0.160942 3.54881 4.70857 2.64578 2.8834 3.72466 4.33844 2.04383 
1.50821 4.22948 3.95364 0.930912 3.46501 3.66206 4.47888 4.31162 3.95836 
-0.00483249 2.51451 2.61622 3.37211 1.87349 3.43157 -0.0167868 4.27506 2.12045 
4.39425 2.02175 3.66861 4.57917 0.0213452 3.31263 3.18249 0.735932 2.855 
3.05152 1.46579 2.52067 3.36309 4.60963 3.14383 1.33071 4.54722 3.0764 
0.477443 4.90559 2.96651 0.303875 3.24456 2.0501 0.0687356 2.8552 3.54369 
3.82554 2.6304 2.9988 3.55565 4.0678 3.91327 3.67812 3.22115 2.40371 
3.69103 3.28593 3.59333 3.75247 0.721374 2.12833 3.7878 0.680625 3.2098 
4.53326 0.639796 2.66685 4.48565 3.82639 3.11445 4.7516 1.43207 3.01337 
4.68942 4.386 2.25601 4.77673 4.71872 3.13142 4.96106 3.48069 2.36283 
3.82035 1.15016 4.59086 1.13574 1.23983 5.38243 3.35596 4.3748 5.01397 
4.19284 3.74437 4.89653 4.23392 0.851765 5.43459 2.5844 1.3038 5.28385 
1.36232 2.08393 4.86911 2.28447 2.01586 4.62761 2.0661 2.92122 4.17505 
0.565339 1.92171 4.45201 2.56994 3.96418 5.65614 1.10754 2.08763 5.72982 
4.69979 0.26622 4.18445 0.720516 2.74499 5.79059 0.613021 2.71779 4.18637 
2.3782 3.0306 5.18847 1.47877 3.34396 4.70285 0.791283 0.313889 5.91483 
1.8669 0.761156 4.40346 1.82556 0.0527658 5.30188 1.61165 3.54389 5.63483 
4.72927 2.77285 4.29544 4.23662 1.96615 4.8014 1.79712 0.947249 5.30272 
0.163446 1.0684 4.57782 2.04021 4.50446 5.67852 0.756411 3.40659 5.0891 
4.48947 3.89644 5.93662 3.83127 4.90825 4.26092 3.12368 2.3366 5.76612 
0.165545 2.50629 5.2524 4.35302 0.590123 4.6746 4.73282 2.90511 5.50951 
2.62612 0.172535 4.77364 3.01739 4.88584 5.94409 0.944392 4.16796 5.73382 
3.00542 4.94577 4.3492 3.34082 0.867245 5.47316 3.35441 0.0369779 4.22249 
4.75863 2.10015 5.6196 3.78391 2.68855 5.18961 4.5398 4.73129 4.80876 
1.61401 4.40348 4.83141 3.01915 3.2209 4.49913 0.734982 4.65227 4.86579 
3.29287 3.42189 5.42696 3.73515 4.32622 5.91272 3.89491 2.87124 4.29871 
3.87987 2.08767 5.96232 4.03015 0.0914376 5.68425 2.79102 0.208171 7.30755 
2.52512 1.10233 7.36793 3.86997 3.08878 6.07645 1.11827 2.20781 7.3023 
1.47284 3.60634 6.5999 2.41155 1.68202 6.0962 3.09954 2.08829 7.53398 
4.38444 3.6766 6.88414 3.02117 1.15589 6.31978 2.46993 4.04095 6.72017 
1.93735 1.52959 7.0442 0.429924 1.05742 7.58545 1.33183 1.50231 7.36599 
1.38283 2.85436 7.84824 4.57136 3.07244 7.63053 4.16441 0.0545559 6.29496 
0.480748 1.54951 6.56287 1.31234 1.61486 6.41967 1.71515 0.589141 7.41765 
3.59936 4.19387 7.73519 2.41823 3.08846 7.9531 2.77159 3.31239 6.20251 
0.322057 0.738951 6.60923 4.10379 0.160081 7.32961 2.46058 2.49138 7.199 
3.38835 0.093489 6.63796 2.07657 3.15739 7.07306 2.67308 3.9358 7.79524 
0.426447 3.95659 6.67443 1.59884 3.68692 7.5823 3.21976 4.74867 7.06198 
2.11338 2.02378 7.99535 3.83061 1.45205 6.78575 3.00921 2.57311 6.6254 
3.72946 2.45709 6.79395 3.14592 0.50438 6.57985 4.81595 2.14257 7.85995 
2.18122 4.49002 7.29519 3.53539 0.756459 7.4654 3.59427 3.09068 7.76735 
3.32538 1.42658 7.26977 0.160244 2.91458 6.2574 1.5193 4.64014 6.45334 
4.61566 2.93674 6.64776 3.42547 3.52319 6.91266 0.996364 4.16726 7.83418 
2.42734 4.99229 6.51507 3.84734 0.308031 7.8884 4.14812 2.18739 7.28367 
4.11863 1.38399 6.01333 4.11064 4.65895 6.84895 4.22899 0.825858 6.68923 
4.83367 4.89161 7.76211 4.893 4.4462 6.49706 4.97644 0.59238 7.97637 
4.9599 2.17711 6.65593 4.91034 1.00711 8.81968 3.0998 1.9092 9.25004 
1.04549 0.155099 9.16294 2.00904 0.853999 9.14686 2.68577 3.71613 8.92892 
4.80002 0.200841 9.7262 4.51434 1.80747 9.8575 3.02043 0.560547 8.81069 
1.27203 3.02158 8.75503 0.834438 1.21133 8.33019 4.69147 2.6559 8.46413 
4.65613 1.28148 8.13995 1.89709 3.76357 9.42285 0.514633 0.881967 9.92787 
2.07443 2.8278 8.73638 1.76429 1.12578 8.26464 1.01137 2.85915 9.67101 
1.42144 1.93263 8.88466 1.99931 4.23894 8.26305 3.0993 4.90966 8.02162 
3.08034 2.76666 8.5113 3.77071 4.21373 9.53526 3.67171 2.14909 8.45928 
4.49442 3.33373 8.89328 2.32589 2.26417 9.65685 2.82803 4.28319 9.7331 
3.98535 1.57723 8.04078 3.69054 3.23944 9.38538 0.158241 3.16748 9.70833 
0.592023 4.6125 8.44136 3.8009 0.162362 9.17508 3.58061 3.73298 8.60546 
4.43447 4.05003 8.05612 1.964 4.6374 9.0502 1.10499 4.96637 9.60559 
0.480614 4.28422 9.23016 4.48323 1.67212 9.02731 3.68099 0.511827 9.62775 
1.21385 3.89005 8.71295 4.79263 0.373667 8.88952 0.460014 2.72111 8.93493 
3.42396 4.7619 8.91524 3.69814 1.74502 9.86832 0.316207 3.57472 8.48823 
3.59726 0.449471 8.42877 4.28207 4.76608 8.59975 4.94075 3.84398 9.53824 
4.96344 2.6578 9.8683 0.911686 9.18937 0.755092 3.71593 9.99153 1.12387 
0.687653 8.69666 1.43219 1.41664 9.43291 1.91923 3.54058 6.97111 1.57428 
3.80005 5.95992 1.08041 1.0243 7.25423 1.01784 3.08132 7.92813 1.5045 
4.59412 8.19919 1.20598 3.83664 5.33472 1.88832 3.74479 6.34401 1.94138 
3.47277 9.09649 1.12882 2.62361 6.71635 0.36006 3.51533 5.00162 0.192239 
2.86853 7.50652 0.568749 2.81758 9.60462 0.222265 0.757394 9.98538 0.858559 
2.83204 5.15973 1.06131 3.21958 8.87737 0.0759275 3.61228 6.85986 0.613786 
3.90583 8.67335 1.59419 3.96496 7.69026 0.0130324 2.44372 8.68843 0.269884 
2.78441 8.15245 0.681021 2.65236 5.90413 1.53278 0.0421426 9.80189 1.29376 
4.70675 7.65197 0.611462 0.872741 6.44553 0.553223 2.07509 6.06725 0.899675 
1.15284 8.01842 1.46753 0.0964509 5.06467 1.49141 4.53749 5.62844 0.203504 
1.35818 5.40162 0.646558 0.125934 7.08941 1.76224 1.69148 6.65535 0.901006 
0.50725 5.06619 0.602179 3.1648 5.89608 0.379856 1.94626 7.46561 0.316403 
3.79939 8.34621 0.583275 1.05666 5.86155 1.41032 2.04031 7.36367 1.36107 
4.59194 6.11664 1.62589 4.60638 9.88208 1.33615 1.7742 5.90942 1.8549 
0.308533 6.12964 1.41162 1.22496 7.95413 0.2889 2.26186 5.57326 0.272678 
2.94286 7.02863 1.18637 2.1292 9.83081 1.6533 0.259764 7.7032 0.251039 
2.67623 8.79688 1.11271 4.69649 7.0469 1.37062 4.85225 6.44604 0.639174 
2.69905 9.92433 3.7585 0.160172 8.00867 3.72509 1.66486 9.70758 3.14598 
1.6389 7.6437 2.12821 3.61107 5.40409 2.79121 3.13399 6.05242 2.7047 
2.96434 5.38748 3.5318 1.03712 8.92937 2.80606 4.79378 7.99696 2.01518 
2.99485 6.96521 2.3848 3.9299 8.22352 2.20055 4.16888 6.24281 2.62724 
4.77741 5.6009 3.09188 1.0337 9.74197 2.46334 3.55847 9.75818 2.63886 
2.64409 8.37461 3.63522 2.39953 7.57165 3.90249 4.05906 7.33547 3.9397 
2.82024 8.40705 2.56869 3.73096 7.07306 2.65549 2.50049 7.66724 2.15498 
2.44346 9.19995 3.45764 0.0985013 8.52835 2.33984 4.03059 5.51549 3.63655 
4.41214 7.86152 2.91304 4.47111 8.92577 2.73375 0.456671 5.94468 3.26741 
4.33899 8.5746 3.64283 2.85527 9.01766 2.92576 1.66546 5.4066 2.77126 
2.56063 9.84373 2.78161 1.26736 5.1516 3.98247 3.2795 7.4785 3.25131 
2.00255 7.55957 2.98241 1.80084 8.31489 3.52981 4.1354 6.64298 3.36907 
2.25161 6.61636 3.90164 1.15154 8.46494 2.13188 1.69485 8.28101 2.72054 
0.229756 6.21123 2.37384 0.0458003 7.65819 2.48231 2.82434 5.17335 2.19309 
0.0785634 7.25861 3.37285 3.85358 9.32528 2.09302 1.06143 5.98157 2.52809 
1.93649 9.10513 2.36734 4.35789 9.31155 3.98269 0.998162 7.1003 2.75394 
2.82223 6.31503 3.42583 1.54236 6.69676 3.30804 1.02513 8.67378 3.59864 
0.324882 5.18003 3.89661 3.64121 8.45139 2.97075 3.63143 9.21249 3.35937 
4.9152 7.11569 2.53947 4.82269 7.4483 4.55428 3.63557 9.2184 5.35179 
2.831 5.74134 4.8705 0.577725 8.57836 5.38909 4.55688 5.60716 4.70686 
3.02052 9.37153 4.89867 0.31162 5.51774 5.07016 2.16849 5.01521 4.14529 
0.327141 9.08811 4.74913 0.473269 6.92269 5.61196 3.58543 8.34781 4.04594 
1.3138 9.33091 4.63102 3.45869 8.46716 4.92738 2.39126 7.02823 5.58194 
3.04262 6.37907 5.59138 4.00075 6.04776 5.70182 2.55335 8.3959 5.7199 
2.74224 7.15747 4.63122 2.66042 7.76679 5.40862 3.82395 9.62653 4.47087 
4.53037 8.38531 4.69189 0.532605 9.48357 5.64632 2.45635 9.12717 5.72154 
1.32095 7.88223 5.31682 0.120736 7.58276 5.59337 0.306881 6.48667 4.88387 
0.897748 8.45218 4.41915 0.431136 6.88233 4.0262 4.18057 8.65531 5.68019 
1.85839 6.80739 4.82949 3.31688 6.48193 4.31325 4.1733 5.19827 5.49348 
1.42178 7.1433 5.84376 1.08399 6.16032 5.86715 2.86264 9.03575 4.13036 
1.74931 5.87488 4.65792 4.28611 6.30616 4.19978 4.19259 6.73788 5.02384 
0.949325 5.1385 5.72287 2.12127 5.34518 5.44134 2.82428 9.97679 5.59362 
1.73194 7.74103 4.45061 0.842712 6.13953 4.15077 0.919652 7.57403 4.47899 
2.00514 6.20699 5.6142 4.16617 7.62106 5.70597 4.89821 9.94032 5.88142 
[...]
POINT_DATA 1000
FIELD FieldData 7
id 1 1000 int
261 872 747 323 859 907 382 755 400 
848 583 364 258 136 864 393 431 159 
430 135 620 777 916 266 138 787 896 
18 529 622 380 821 316 650 371 130 
16 512 361 494 763 413 758 795 659 
828 204 389 680 423 212 249 158 523 
682 668 697 142 943 383 280 276 654 
798 999 392 200 636 928 522 767 905 
717 15 328 36 20 490 629 858 95 
675 6 898 865 678 369 519 21 107 
785 773 768 456 391 144 201 365 933 
827 852 901 216 313 263 518 679 956 
262 743 411 62 409 813 12 837 245 
714 234 789 52 348 127 408 913 594 
944 289 243 209 395 683 214 38 708 
47 921 914 149 546 876 554 146 930 
863 4 862 35 225 223 584 505 255 
320 992 148 222 606 399 819 572 692 
123 762 242 66 342 446 911 307 206 
402 565 681 343 563 161 227 247 190 
908 790 649 611 241 265 851 69 929 
839 352 802 80 653 372 437 331 727 
97 613 738 335 195 384 269 467 677 
797 672 888 379 267 597 656 903 764 
56 718 368 259 835 312 832 609 108 
840 434 100 270 579 86 315 736 846 
40 567 104 119 774 733 351 566 661 
308 585 344 814 829 139 849 617 970 
545 213 769 996 994 438 64 91 923 
133 532 71 906 463 285 600 655 985 
712 874 191 957 333 357 578 219 631 
541 990 752 605 950 403 866 590 483 
887 582 305 891 800 883 394 132 54 
407 126 753 542 386 82 346 969 879 
105 616 917 153 297 367 552 3 404 
961 33 826 902 55 884 841 707 63 
179 290 457 309 401 938 691 421 796 
538 746 122 58 687 164 534 85 788 
915 892 370 880 301 897 422 602 420 
175 792 958 112 780 794 698 29 676 
939 710 955 549 652 925 45 70 345 
160 875 686 50 188 31 942 952 385 
976 968 194 170 197 268 184 981 211 
978 156 926 477 143 799 432 452 324 
28 374 778 945 415 114 451 550 818 
192 468 657 72 811 230 987 57 481 
520 398 536 486 65 412 475 474 215 
557 137 751 831 460 482 558 721 334 
850 711 562 74 694 666 843 601 326 
948 700 877 834 499 221 728 185 953 
121 2 603 303 607 22 311 977 73 
306 639 492 24 964 660 330 861 920 
793 118 325 76 626 685 282 93 588 
347 967 673 287 847 632 115 625 989 
912 669 375 150 825 551 860 183 535 
997 593 560 92 706 975 284 612 809 
484 504 947 141 742 231 11 495 525 
596 784 776 770 120 670 627 264 731 
205 96 239 302 196 775 485 754 759 
941 806 756 517 674 273 621 641 531 
362 873 157 203 974 410 359 99 982 
587 965 279 807 90 882 13 761 101 
388 256 125 910 932 899 228 575 106 
405 39 804 867 187 530 918 416 559 
304 25 507 820 868 667 461 337 94 
257 510 716 172 734 644 514 19 250 
937 973 555 539 23 647 854 885 171 
886 543 224 332 429 487 117 318 737 
503 786 67 396 527 298 439 428 548 
147 573 509 314 469 533 750 894 689 
291 488 418 229 900 246 766 725 449 
895 646 151 995 251 283 459 931 817 
513 260 805 240 236 615 935 340 366 
448 502 732 869 237 329 217 662 845 
838 568 741 42 783 358 498 640 524 
855 526 540 226 816 41 544 511 220 
299 951 564 116 232 771 1 824 500 
317 354 658 740 43 924 516 8 856 
109 378 27 235 293 480 373 272 608 
363 134 406 79 569 506 633 327 619 
129 89 233 598 642 772 376 574 17 
570 360 823 637 274 1000 515 779 842 
7 643 871 623 30 464 618 425 10 
310 665 638 110 387 339 724 152 760 
722 635 103 102 726 815 281 791 592 
765 167 426 275 248 983 553 377 26 
455 32 44 878 808 491 610 960 719 
292 881 624 949 853 889 341 599 288 
84 286 321 75 663 182 857 473 145 
355 254 810 78 959 441 940 699 113 
154 528 165 419 586 993 904 496 723 
98 166 244 199 704 836 37 470 271 
174 390 162 458 556 427 909 208 414 
980 696 169 447 971 833 713 497 435 
453 893 319 991 465 207 919 690 984 
5 576 730 729 471 744 962 433 671 
180 462 68 198 450 472 193 701 14 
493 440 338 253 177 189 436 168 353 
684 443 186 936 508 163 417 988 693 
720 454 705 890 322 210 48 218 922 
695 178 131 547 277 521 49 954 479 
749 445 934 202 295 946 735 336 715 
466 986 577 124 59 60 424 688 757 
51 356 870 155 822 140 173 181 830 
589 927 476 966 478 349 591 252 34 
998 294 630 963 53 664 645 300 580 
88 703 61 581 238 442 745 83 77 
111 748 781 501 972 801 9 350 537 
782 176 803 628 444 595 648 571 979 
81 739 844 489 634 46 381 604 709 
614 278 397 87 702 561 128 651 296 
812 
type 1 1000 int
1 2 2 1 2 2 1 2 1 
2 2 1 1 1 2 1 1 1 
1 1 2 2 2 1 1 2 2 
1 2 2 1 2 1 2 1 1 
1 2 1 1 2 1 2 2 2 
2 1 1 2 1 1 1 1 2 
2 2 2 1 2 1 1 1 2 
2 2 1 1 2 2 2 2 2 
2 1 1 1 1 1 2 2 1 
2 1 2 2 2 1 2 1 1 
2 2 2 1 1 1 1 1 2 
2 2 2 1 1 1 2 2 2 
1 2 1 1 1 2 1 2 1 
2 1 2 1 1 1 1 2 2 
2 1 1 1 1 2 1 1 2 
1 2 2 1 2 2 2 1 2 
2 1 2 1 1 1 2 2 1 
1 2 1 1 2 1 2 2 2 
1 2 1 1 1 1 2 1 1 
1 2 2 1 2 1 1 1 1 
2 2 2 2 1 1 2 1 2 
2 1 2 1 2 1 1 1 2 
1 2 2 1 1 1 1 1 2 
2 2 2 1 1 2 2 2 2 
1 2 1 1 2 1 2 2 1 
2 1 1 1 2 1 1 2 2 
1 2 1 1 2 2 1 2 2 
1 2 1 2 2 1 2 2 2 
2 1 2 2 2 1 1 1 2 
1 2 1 2 1 1 2 2 2 
2 2 1 2 1 1 2 1 2 
2 2 2 2 2 1 2 2 1 
2 2 1 2 2 2 1 1 1 
1 1 2 2 1 1 1 2 2 
1 2 2 1 1 1 2 1 1 
2 1 2 2 1 2 2 2 1 
1 1 1 1 1 2 2 1 2 
2 2 1 1 2 1 2 1 2 
2 2 1 2 1 2 1 2 1 
1 2 2 1 2 2 2 1 2 
2 2 2 2 2 2 1 1 1 
1 2 2 1 1 1 2 2 1 
2 2 1 1 1 1 1 2 1 
2 1 2 1 1 2 1 1 1 
1 1 2 2 1 1 1 2 2 
1 1 2 1 2 1 2 1 1 
2 1 2 1 1 1 1 1 1 
2 1 2 2 1 1 2 2 1 
2 2 2 1 2 2 2 2 1 
2 2 2 2 1 1 2 1 2 
1 1 2 1 2 1 1 2 1 
1 2 1 1 2 2 1 2 2 
2 1 1 1 2 2 1 1 2 
1 2 2 1 2 2 1 2 2 
2 2 1 1 2 2 2 1 2 
2 2 2 1 2 2 1 2 2 
1 2 2 1 2 1 1 1 2 
2 2 2 2 1 2 2 1 2 
1 1 1 1 1 2 1 2 2 
2 2 2 2 2 1 2 2 2 
1 2 1 1 2 1 1 1 2 
2 2 1 2 1 2 1 2 1 
1 1 1 2 2 2 1 2 1 
1 1 2 2 1 2 2 1 2 
1 1 2 2 2 2 1 1 1 
1 2 2 1 2 2 2 1 1 
2 2 2 2 1 2 2 2 1 
2 2 1 1 1 1 1 1 2 
2 2 1 1 2 1 1 1 2 
1 2 2 1 1 2 2 2 2 
1 1 1 1 2 1 2 2 1 
2 2 1 2 1 1 1 2 2 
2 1 2 1 1 2 2 1 1 
1 2 2 2 1 1 1 2 2 
2 2 2 1 2 1 1 2 2 
2 2 2 1 2 1 2 2 1 
1 2 2 1 1 2 1 2 1 
1 1 2 2 1 2 2 1 2 
1 1 1 1 1 1 1 1 2 
1 1 1 1 2 2 2 1 2 
1 1 1 2 2 2 1 2 1 
2 1 2 2 1 2 2 2 2 
1 2 2 2 1 1 2 1 1 
1 2 2 1 1 1 2 1 2 
2 2 1 1 2 2 1 2 2 
2 1 1 1 1 2 2 1 1 
1 1 1 2 2 1 2 2 2 
1 2 2 2 2 2 1 2 1 
1 1 1 1 2 1 2 1 1 
1 1 2 1 2 1 2 2 1 
1 2 1 1 2 2 2 1 2 
1 1 1 1 2 2 1 1 1 
1 1 1 1 2 1 2 1 1 
2 2 1 1 2 2 2 1 1 
1 2 1 2 1 1 2 2 2 
1 2 2 2 1 2 2 1 2 
1 1 1 1 1 1 1 2 1 
1 1 1 1 1 1 1 1 1 
2 1 1 2 2 1 1 2 2 
2 1 2 2 1 1 1 1 2 
2 1 1 2 1 2 1 2 1 
2 1 2 1 1 2 2 1 2 
1 2 2 1 1 1 1 2 2 
1 1 2 1 2 1 1 1 2 
2 2 1 2 1 1 2 1 1 
2 1 2 2 1 2 2 1 2 
1 2 1 2 1 1 2 1 1 
1 2 2 2 2 2 1 1 2 
2 1 2 2 1 2 2 2 2 
1 2 2 1 2 1 1 2 2 
2 1 1 1 2 2 1 2 1 
2 
i 3 1000 int
-2 0 1 -1 0 0 -32 0 1 
-6 0 0 -6 0 1 0 0 0 
-8 0 0 -11 0 0 -4 0 0 
-19 0 1 -6 0 1 -1 0 0 
-12 0 1 -9 0 0 -2 0 1 
-5 0 0 -7 0 0 16 1 0 
-3 0 0 -3 0 0 -1 0 0 
-18 0 0 -7 0 0 -23 0 0 
-3 0 1 -15 0 1 -1 0 0 
-3 0 0 -3 0 0 -1 0 0 
-5 0 1 23 1 0 -23 0 0 
-2 0 0 -2 0 0 -5 0 0 
-16 0 0 -3 0 0 -3 0 0 
1 0 0 1 0 1 -19 0 0 
-8 0 0 -17 0 0 -1 0 0 
-6 0 1 -36 0 0 -5 0 0 
-7 0 0 -21 0 0 36 1 0 
-12 0 1 0 0 0 -13 0 1 
-3 0 0 -1 0 0 -4 0 0 
-10 0 0 -4 0 0 -2 0 0 
-10 0 0 -14 0 1 -21 0 1 
-14 0 0 -5 0 0 -5 0 0 
-28 0 0 -13 0 1 -2 0 0 
-3 0 0 -8 0 0 -3 0 0 
-17 0 0 -10 0 1 0 0 0 
-24 0 0 -41 0 0 -15 0 0 
-12 0 0 0 0 0 -1 0 0 
0 0 0 -4 0 0 -2 0 0 
-6 0 0 -2 0 0 -3 0 0 
-4 0 0 -30 0 0 -15 0 0 
37 1 0 -5 0 0 -10 0 -1 
-1 0 0 1 0 0 -3 0 0 
-13 0 0 -24 0 0 0 0 0 
-3 0 0 -21 0 0 -6 0 0 
-15 0 0 -11 0 0 -4 0 0 
-7 0 0 -1 0 0 -15 0 0 
-20 0 0 -7 0 0 -7 0 0 
-2 0 0 48 1 0 37 1 0 
-18 0 0 -21 0 0 -9 0 0 
42 1 0 -6 0 0 -24 0 0 
40 1 0 -3 0 0 -3 0 0 
-1 0 0 -1 0 0 -7 0 0 
-11 0 0 -33 0 -1 -5 0 0 
-23 0 0 -1 0 0 0 0 0 
0 0 0 -15 0 0 -24 0 0 
-17 0 0 -6 0 0 -1 0 0 
0 0 0 -4 0 0 0 0 0 
-7 0 0 0 0 0 -5 0 0 
-7 0 0 -28 0 -1 -14 0 0 
-14 0 0 -5 0 0 -4 0 -1 
-2 0 0 -6 0 0 -4 0 0 
-3 0 0 -23 0 0 -3 0 0 
45 1 0 -4 0 0 -12 0 -1 
-2 0 0 -4 0 0 12 1 0 
-13 0 0 -22 0 -1 -22 0 0 
-2 0 0 -2 0 0 -2 0 0 
-36 0 -1 21 1 0 -7 0 0 
-23 0 0 -2 0 0 -1 0 0 
-1 0 0 -1 0 0 -1 0 0 
-7 0 0 -23 0 0 -6 0 0 
-6 0 0 -6 0 0 -6 0 0 
0 0 0 34 1 0 -3 0 0 
-10 0 0 -9 0 0 0 0 0 
-10 0 0 -3 0 0 0 0 0 
0 0 0 29 1 0 -3 0 0 
-16 0 0 1 0 0 -17 0 0 
-1 0 0 0 0 0 30 1 0 
-12 0 0 -8 0 0 -6 0 0 
-18 0 0 35 1 0 -1 0 0 
39 1 -1 -8 0 -1 38 1 0 
-2 0 0 -26 0 0 -3 0 0 
-11 0 0 0 0 -1 -13 0 0 
-3 0 0 -7 0 0 -2 0 -1 
-13 0 -1 -2 0 0 0 0 0 
-3 0 -1 -1 0 -1 -5 0 0 
-2 0 0 -9 0 -1 -1 0 -1 
-6 0 0 0 0 -1 -5 0 0 
0 0 0 -19 0 0 -2 0 0 
-2 0 0 1 0 0 -1 0 0 
-2 0 -1 -5 0 0 37 1 -1 
0 0 0 25 1 0 -2 0 -1 
1 0 0 -3 0 0 0 0 0 
-13 0 0 1 0 0 -2 0 0 
-2 0 0 15 0 1 37 0 0 
23 0 0 22 0 0 10 0 0 
2 0 0 8 0 0 5 0 0 
14 0 0 0 0 0 6 0 0 
12 0 1 19 0 0 0 0 1 
7 0 0 21 0 1 21 0 0 
1 0 1 -39 -1 1 5 0 1 
10 0 0 8 0 0 21 0 1 
12 0 0 1 0 0 -13 -1 1 
5 0 0 4 0 0 2 0 0 
8 0 0 0 0 0 1 0 0 
2 0 0 5 0 0 3 0 0 
1 0 0 3 0 0 6 0 0 
11 0 0 9 0 0 10 0 0 
-1 0 0 36 0 0 1 0 0 
2 0 0 18 0 1 1 0 1 
7 0 0 9 0 0 17 0 1 
-31 -1 1 4 0 0 3 0 0 
17 0 0 11 0 0 24 0 1 
5 0 0 0 0 0 4 0 0 
5 0 0 19 0 0 8 0 0 
13 0 0 19 0 1 3 0 0 
2 0 0 31 0 0 18 0 0 
7 0 0 8 0 0 10 0 0 
14 0 0 -50 -1 0 12 0 0 
19 0 0 29 0 0 2 0 0 
5 0 0 7 0 0 3 0 0 
6 0 0 12 0 0 6 0 0 
27 0 0 0 0 0 8 0 0 
13 0 0 5 0 0 6 0 0 
3 0 0 10 0 1 9 0 0 
2 0 0 9 0 0 -1 0 0 
13 0 0 12 0 0 1 0 0 
-40 -1 0 12 0 0 6 0 0 
3 0 0 6 0 0 20 0 0 
0 0 0 -36 -1 0 27 0 0 
3 0 0 10 0 0 18 0 -1 
0 0 0 15 0 0 3 0 0 
-31 -1 0 1 0 0 -1 0 0 
17 0 0 5 0 0 12 0 0 
11 0 0 11 0 0 5 0 0 
4 0 0 5 0 0 14 0 0 
4 0 0 7 0 0 -36 -1 0 
7 0 0 27 0 0 -37 -1 0 
9 0 0 8 0 0 1 0 0 
7 0 0 11 0 0 9 0 0 
7 0 0 14 0 0 2 0 0 
3 0 0 2 0 0 28 0 0 
2 0 0 4 0 0 4 0 0 
-1 0 0 -1 0 0 -36 -1 1 
6 0 0 2 0 0 -34 -1 0 
2 0 0 9 0 0 16 0 0 
4 0 0 2 0 0 1 0 0 
8 0 0 0 0 0 20 0 0 
5 0 0 23 0 0 13 0 -1 
6 0 0 6 0 0 -27 -1 -1 
11 0 0 1 0 0 -37 -1 0 
5 0 0 5 0 0 2 0 0 
6 0 0 -31 -1 0 20 0 0 
10 0 0 2 0 0 9 0 0 
2 0 0 25 0 0 3 0 0 
8 0 0 11 0 0 7 0 0 
10 0 0 -32 -1 0 5 0 0 
2 0 0 3 0 0 3 0 0 
13 0 0 3 0 0 40 0 0 
5 0 0 4 0 0 8 0 0 
4 0 0 1 0 0 5 0 0 
29 0 0 0 0 0 10 0 0 
5 0 0 0 0 0 8 0 -1 
2 0 0 7 0 0 2 0 0 
14 0 -1 13 0 0 -31 -1 0 
31 0 -1 7 0 -1 9 0 0 
4 0 -1 1 0 0 -14 -1 0 
18 0 -1 24 0 0 7 0 -1 
6 0 0 -1 0 -1 3 0 0 
18 0 -1 2 0 -1 0 0 0 
2 0 0 23 0 -1 7 0 -1 
21 0 0 1 0 0 5 0 -1 
2 0 -1 1 0 -1 11 0 0 
8 0 -1 -41 -1 0 3 0 -1 
9 0 -1 15 0 -1 0 0 0 
3 0 0 1 0 -1 21 0 0 
1 0 0 2 0 0 4 0 0 
1 0 0 10 0 0 23 0 0 
-31 -1 0 4 0 0 14 0 -1 
5 0 0 0 0 0 2 0 0 
4 0 0 4 0 -1 -10 0 1 
-4 0 0 -4 0 1 -13 0 0 
-12 0 1 -14 0 1 -9 0 1 
-9 0 0 -15 0 0 -2 0 1 
0 0 0 -1 0 0 49 1 0 
-35 0 0 -3 0 1 -28 0 1 
13 1 1 35 1 0 -21 0 0 
-21 0 1 -5 0 1 -7 0 0 
-3 0 0 -26 0 0 -4 0 1 
-8 0 0 0 0 0 -18 0 1 
0 0 0 -3 0 0 -8 0 0 
-6 0 0 -5 0 0 -2 0 0 
-13 0 0 60 1 1 -2 0 0 
-4 0 0 0 0 0 -1 0 0 
-7 0 1 -4 0 0 56 1 0 
-1 0 0 -1 0 0 -1 0 0 
-16 0 0 -13 0 0 0 0 0 
-14 0 1 -5 0 0 -21 0 1 
-11 0 0 0 0 0 -11 0 0 
-27 0 1 32 1 0 -6 0 0 
-5 0 0 -19 0 0 -41 0 0 
-17 0 0 -12 0 0 -4 0 1 
-3 0 0 -6 0 0 -32 0 1 
-6 0 0 -20 0 0 -11 0 0 
-9 0 0 -5 0 1 -25 0 0 
20 1 0 22 1 0 -6 0 0 
-4 0 0 -4 0 0 -14 0 0 
-24 0 0 -6 0 0 45 1 0 
-7 0 0 -13 0 0 -4 0 0 
-3 0 0 -5 0 0 -5 0 0 
-16 0 0 -9 0 0 -8 0 0 
-3 0 0 1 0 0 -2 0 0 
35 1 0 -14 0 0 -18 0 1 
-12 0 0 -9 0 0 -20 0 0 
-9 0 0 -3 0 0 -3 0 0 
-8 0 0 -16 0 1 29 1 0 
-2 0 0 0 0 0 -20 0 0 
-2 0 0 -3 0 0 -12 0 0 
-25 0 0 -3 0 0 -12 0 0 
-4 0 0 12 1 0 34 1 -1 
-14 0 0 0 0 0 -15 0 0 
-8 0 0 -32 0 1 -3 0 0 
-6 0 0 -4 0 0 41 1 0 
-3 0 0 0 0 0 -2 0 0 
-27 0 0 -4 0 0 -4 0 0 
-12 0 0 -2 0 0 -23 0 0 
0 0 0 0 0 0 -2 0 0 
-7 0 0 -33 0 0 -15 0 0 
-20 0 0 -10 0 0 25 1 0 
-1 0 0 -4 0 0 -3 0 0 
0 0 0 -13 0 0 -36 0 1 
-7 0 0 -4 0 0 -6 0 0 
-5 0 0 -1 0 0 -5 0 0 
-1 0 0 -2 0 0 -37 0 0 
-13 0 0 -8 0 0 -2 0 0 
41 1 0 -15 0 0 -6 0 0 
-21 0 0 -9 0 0 -33 0 0 
-7 0 0 -2 0 0 -17 0 -1 
-2 0 0 -5 0 -1 29 1 0 
-8 0 0 0 0 0 -1 0 0 
-2 0 0 -7 0 0 -11 0 -1 
-33 0 -1 -2 0 0 -3 0 0 
-4 0 0 -2 0 0 -1 0 0 
-6 0 0 -4 0 0 -4 0 0 
-31 0 0 -6 0 0 -10 0 0 
1 0 -1 -6 0 0 -11 0 0 
-5 0 0 -25 0 -1 -5 0 0 
-5 0 -1 -26 0 -1 -1 0 0 
1 0 -1 -6 0 0 -8 0 0 
0 0 0 39 1 -1 -6 0 -1 
-16 0 0 1 0 0 -1 0 0 
-13 0 0 -2 0 0 -4 0 0 
-1 0 0 -29 0 0 -6 0 0 
-5 0 -1 -1 0 0 -13 0 0 
-14 0 0 -14 0 0 39 1 -1 
-6 0 0 -14 0 -1 -7 0 -1 
-24 0 -1 0 0 -1 -7 0 0 
-2 0 0 -12 0 0 -2 0 -1 
-2 0 0 0 0 0 1 0 0 
-1 0 0 -12 0 -1 -8 0 0 
-2 0 0 0 0 0 -1 0 -1 
-1 0 0 -16 0 -1 0 0 0 
-29 0 0 -3 0 0 -4 0 0 
-11 0 0 -21 0 0 -2 0 0 
1 0 0 25 0 1 5 0 0 
7 0 0 4 0 0 2 0 0 
19 0 0 13 0 0 11 0 0 
-4 0 0 -34 -1 1 4 0 0 
-39 -1 1 -31 -1 1 23 0 0 
2 0 0 40 0 0 3 0 0 
13 0 0 9 0 0 2 0 0 
2 0 0 21 0 1 15 0 0 
-35 -1 0 1 0 0 2 0 0 
20 0 1 1 0 0 -1 0 0 
7 0 0 1 0 0 5 0 0 
20 0 1 23 0 0 4 0 0 
4 0 1 11 0 1 8 0 0 
1 0 0 3 0 0 14 0 0 
2 0 1 3 0 0 15 0 0 
3 0 1 15 0 0 6 0 1 
2 0 0 1 0 0 0 0 0 
0 0 0 -1 0 0 9 0 0 
1 0 0 14 0 0 5 0 0 
5 0 0 33 0 1 3 0 0 
0 0 0 3 0 0 -49 -1 0 
-42 -1 0 27 0 0 20 0 0 
-40 -1 0 8 0 0 -24 -1 0 
10 0 0 2 0 0 13 0 0 
0 0 0 11 0 0 0 0 0 
0 0 0 3 0 0 11 0 0 
22 0 1 4 0 0 17 0 0 
2 0 0 12 0 0 2 0 0 
-26 -1 1 21 0 0 -1 0 0 
2 0 0 1 0 0 3 0 0 
11 0 0 2 0 0 23 0 1 
0 0 0 -1 0 0 12 0 1 
-2 0 0 24 0 0 -24 -1 0 
26 0 1 6 0 0 9 0 0 
1 0 0 24 0 -1 1 0 0 
1 0 0 31 0 0 7 0 0 
-1 0 0 -1 0 0 3 0 0 
11 0 0 1 0 0 -2 0 0 
26 0 0 4 0 0 4 0 0 
-26 -1 0 11 0 0 7 0 0 
1 0 0 0 0 0 18 0 0 
14 0 0 4 0 0 7 0 0 
-1 0 0 -24 -1 0 15 0 0 
2 0 0 15 0 0 7 0 0 
0 0 0 16 0 0 3 0 0 
1 0 0 1 0 0 17 0 0 
10 0 0 12 0 0 1 0 0 
6 0 0 3 0 0 8 0 0 
25 0 0 -25 -1 1 0 0 0 
3 0 0 10 0 0 10 0 0 
-39 -1 0 -2 0 0 3 0 0 
19 0 0 12 0 0 2 0 0 
6 0 0 16 0 0 33 0 0 
6 0 0 9 0 0 20 0 -1 
29 0 0 3 0 0 0 0 0 
0 0 0 1 0 0 26 0 0 
2 0 0 3 0 0 0 0 0 
-1 0 0 -3 0 0 27 0 0 
21 0 0 1 0 0 15 0 -1 
7 0 0 1 0 0 3 0 0 
3 0 0 3 0 0 6 0 0 
-17 -1 0 37 0 0 30 0 0 
-31 -1 0 11 0 0 7 0 0 
5 0 0 2 0 0 4 0 0 
5 0 0 21 0 -1 26 0 0 
1 0 0 -16 -1 0 -25 -1 0 
2 0 0 -20 -1 0 5 0 -1 
3 0 0 9 0 0 16 0 0 
2 0 0 16 0 -1 18 0 0 
0 0 0 4 0 -1 -39 -1 -1 
34 0 -1 3 0 0 20 0 0 
15 0 -1 3 0 0 8 0 -1 
2 0 0 3 0 0 8 0 0 
19 0 0 3 0 0 6 0 0 
3 0 0 2 0 0 4 0 0 
8 0 -1 9 0 -1 22 0 0 
1 0 0 2 0 0 17 0 0 
3 0 0 29 0 -1 3 0 -1 
2 0 0 32 0 0 8 0 0 
2 0 0 5 0 -1 6 0 -1 
6 0 0 
v 3 1000 double
-79.554315126 -10.083333827 3.3541343872 -45.849973067 -8.5939877953 -3.4068297488 -472.98172464 6.8655329183 6.7545890968 
-258.38769476 15.515218002 -23.915277815 -374.71750369 19.897441828 -3.6135738026 -18.429739403 -30.512263804 -17.582604817 
-301.92002364 18.974211808 10.549561008 -305.39857924 -3.339233066 18.017048286 -208.39695608 -4.5784603172 6.040107313 
-364.00359763 -3.3663538925 -1.9753320441 -156.09021568 7.6630651568 7.8030547064 -59.476892666 -6.5580225935 10.059814936 
-368.57140109 13.139629253 -9.7065485825 -167.01581973 -15.068526498 0.63117180363 -127.27191445 5.0645629173 12.248272726 
-174.65306264 2.2096230691 1.6857681805 -246.99604423 -15.746404312 -21.911467775 -511.22622397 20.467957807 -17.218022942 
-52.571730318 -2.4416569899 -6.1737525831 -153.62383895 14.629149219 -0.63442465389 -69.520594092 19.234198504 -16.155965666 
-416.36426792 -11.873144857 -20.55437455 -169.46676678 12.331833422 6.4650874056 -472.73427147 11.875992189 -0.16935973644 
-30.280732267 0.64302594698 4.4784421779 -205.1664887 8.4669200515 -13.40459841 -23.087118538 16.989171644 -26.553577188 
-83.098113624 -12.360027498 -2.8610855649 -68.305894772 0.51513868111 24.205872048 -2.4867981199 -9.2328290534 -11.875882125 
-100.76585275 -22.827108445 4.80202724 -409.33073167 24.954350271 20.338303872 -293.94228351 -4.4416628268 6.1962779373 
-80.479656198 -3.3416580539 -2.4049700444 -105.16163929 -4.9526980643 -19.904347308 -13.082027935 -0.68081582066 -5.9488379102 
-350.10809073 -10.471269749 -25.563602724 -37.690109761 12.586512488 -0.71099862452 -131.07227866 7.3625408572 16.213683754 
-14.660757571 15.404903629 11.548875699 -25.347233118 -5.5155556228 -1.0962943949 -130.28511006 -5.4305144766 -54.336498516 
-249.73910288 -15.861742258 6.2963844871 -478.56881093 7.3194047913 -4.5479930512 -100.78095328 5.5445712751 -3.468779435 
-243.56191867 18.030922884 23.009542001 -266.79787033 -20.518723608 -24.898435442 -237.84842916 1.1447124986 -0.98313195955 
-254.16952113 -18.63230587 -11.672721 -353.19024243 17.655286509 -10.372882244 -403.78792943 -11.29367813 -13.679511912 
-314.75995922 5.9432837196 23.898825107 -21.65169367 -4.6542417955 -5.623461325 -164.43537057 9.7182789275 7.1728319154 
-77.435365746 -2.42383191 21.873419154 -91.763925396 -6.9023756332 -9.8196898176 -106.72793753 -11.480635802 -10.958390081 
-269.01754069 18.988039172 -4.0280037499 -132.06290659 -13.707655139 -18.826050662 -82.251719343 -0.71440410782 15.760340455 
-245.54478124 -10.912731392 2.914108936 -313.43666357 7.5064049766 24.700670208 -397.20149443 14.835667463 5.6318372246 
-414.08266573 1.3586419002 -9.5434609162 -167.49941092 2.9940014948 -7.899672461 -241.63881922 -17.51477031 -24.679949089 
-460.84284815 -20.698885807 27.984103647 -163.12596228 -1.3132179313 -2.1433601829 -57.956253197 -0.37167189725 -22.135693475 
-52.678769296 6.2918569736 16.493175282 -135.68192855 27.371573043 1.9806102822 -72.211769956 1.566154016 1.8901146685 
-186.25467758 -14.182076155 -13.257319377 -220.97727215 -18.475893048 -7.8335213775 -43.605446632 -3.2868319892 4.8409616888 
-232.46888477 10.244959485 -1.8403433023 -467.33602802 -17.430877559 -24.784331257 -405.53077215 -8.6372137577 6.8879758274 
-301.80978303 29.460115046 18.883273598 -37.300242486 5.647032468 25.065562163 -21.6887909 4.0569443989 -11.325836813 
-18.761105913 0.33095667567 -11.423768004 -140.42508431 7.2912972098 31.100910704 -141.74628909 0.072388298176 -11.640040194 
-168.81642604 -33.117413352 1.8077444439 -80.60048739 8.8361052454 15.793330957 -130.2970908 -0.10336979339 -18.639576394 
-129.26320034 -5.4899650566 -7.5417200947 -404.27215656 18.657791377 -5.1806941204 -398.1234013 28.136775436 12.684004258 
-428.89050852 14.909457054 -21.106142143 -110.94536214 0.97279910142 -19.969564292 -282.46037077 -0.14455269671 22.221535061 
-59.98032375 4.4139819763 -6.1052934158 -29.407829558 -5.1434149184 0.5531188273 -90.702443597 -11.68221048 4.8033260623 
-396.08161664 24.420007052 4.0743258905 -357.01415575 -4.1112718015 -0.3527130897 -14.444817667 -8.1713762991 16.454999536 
-96.854141525 -10.765690471 -5.9667216964 -375.23471568 7.6348740797 5.5583937504 -355.23875239 19.405543423 -26.719516742 
-257.55273742 16.504259918 -16.230179308 -251.72830061 -1.0847056211 2.7607573449 -148.90184223 11.655210767 -7.6286014714 
-260.31271909 -20.063524829 -2.3379622028 -69.624202134 2.9028985591 1.1675316577 -237.89230935 4.8803696804 1.970867211 
-423.40537154 -14.604311638 1.315117883 -189.53389915 39.550750296 5.5422117942 -167.7957349 16.149044971 19.697870964 
-130.81050995 -10.859849939 3.7798795722 -125.52169101 10.160198767 -3.0129443485 -464.00505087 10.572070805 -10.92757252 
-409.49558625 2.9231733057 -3.2126184732 -485.56130152 -8.2950091888 24.892697722 -82.775486152 -6.9129106809 -12.023522046 
-152.45089031 -6.688978448 -16.576075463 -228.9210265 -12.960759271 -19.326668837 -342.60576809 -11.460990805 -13.98254134 
-364.92950972 14.570834046 10.662222366 -41.490133657 -2.2155965004 4.3721587314 -114.7388714 -12.776680015 -6.979439596 
-69.490916892 -18.954959471 9.3418604302 -13.75009032 13.275074367 15.060348569 -200.95504452 -10.359491531 -2.7537397989 
-176.04953808 -6.2790904911 -12.29120856 -409.97828683 -5.7372642599 19.127725287 -179.92795489 8.9965772272 3.0220057021 
-493.77789442 17.807799251 12.989397499 -20.328996319 22.091691772 -19.190368077 -46.65105191 -7.5051961157 7.3351209738 
-6.4684007763 0.048140835944 10.087059135 -377.62592096 -7.6513475855 -2.784881181 -482.55785596 23.965538248 13.374501366 
-245.42577621 -0.40705587975 -0.42035167768 -170.90500365 -2.1192943778 10.836630724 -29.182065334 -3.2253629036 22.959610002 
-24.680353651 -1.9654339258 6.0900410126 -151.25085736 -2.7375163803 2.1432308939 -16.588484765 3.6157517169 -0.14537008927 
-129.74258707 21.612551288 -4.9872654571 -54.323195751 -4.1449741155 3.7401506234 -158.36951922 -12.330853513 4.1224915282 
-235.14435062 16.492480953 -10.825606798 -506.9192806 -15.236728163 -21.119809092 -390.03558425 -31.560483094 4.5728795709 
-325.19680634 -15.472178693 21.672484308 -171.83690195 2.180970796 16.263822575 -158.72464922 5.3752380318 -8.8653697971 
-87.238495058 4.701660198 -8.6145075734 -299.65431028 21.720179728 -13.792622433 -160.9551458 8.3975084234 9.5217619287 
-98.503691035 29.715684445 15.869694944 -336.08056392 11.025843154 -8.8742775909 -82.829337053 3.8373800281 6.0764715575 