# vtk DataFile Version 4.2
Generated by LIGGGHTS
ASCII
DATASET POLYDATA
POINTS 1000 float
2.23418 3.97829 0.271087 3.00002 1.92569 0.282462 2.27117 0.68806 0.184141 
1.01266 1.30832 0.239525 2.53201 3.11674 0.794571 1.83994 2.03233 1.86505 
2.35917 4.61719 1.04915 4.46754 4.51697 0.316972 1.81355 1.44042 0.318533 
1.74338 2.31894 0.184246 2.17093 3.59272 1.50835 0.427675 2.48971 1.1195 
0.557119 1.6221 0.910867 4.58329 2.80045 1.99321 3.81359 3.62363 1.17896 
0.876589 1.98618 1.73655 2.66105 2.87999 1.83389 1.32107 3.90279 1.45129 
2.00072 0.863656 1.60244 0.645751 2.49713 0.288471 1.55486 4.57423 0.091623 
4.08177 1.53018 0.796046 4.54981 3.45424 0.743015 2.1486 2.18447 1.06431 
4.06819 2.24762 1.3686 2.80431 0.279605 0.59536 4.46324 2.59141 0.611236 
3.00362 1.63091 1.82379 4.49347 3.51755 1.97766 4.20088 4.43539 1.19511 
0.196222 3.48097 0.0692053 2.8423 0.642153 1.70196 2.96519 1.19652 0.938098 
0.672462 4.03938 0.899355 3.28945 2.67766 0.878516 3.63029 2.92826 1.74579 
4.52075 1.43246 1.69906 0.353667 2.96037 1.7501 3.276 4.3657 0.812695 
0.3788 3.79232 1.72696 3.76743 3.77728 0.26799 4.19404 4.6399 1.98836 
0.53422 4.92163 0.601021 4.94608 4.8423 1.66421 0.368471 0.292472 2.23896 
2.10174 0.260922 2.38448 0.410997 0.638524 3.44715 4.71763 4.29651 2.4007 
1.93357 3.36754 2.73106 4.11473 2.64364 3.10162 2.0102 4.12214 2.94487 
3.35164 2.55839 2.49953 0.314803 2.52857 3.41288 1.23787 3.08808 3.11439 
1.2208 3.25606 2.15717 0.627987 1.75115 3.4316 3.7585 4.74826 3.34071 
1.94334 0.181624 3.56838 1.87321 3.4116 3.74824 1.33686 2.48786 2.46301 
1.256 0.0798235 2.93201 1.17905 0.977509 2.91584 2.0636 4.42161 2.0294 
1.11288 2.63087 3.86069 1.64483 0.86109 3.86165 3.40264 0.0324326 2.92569 
1.59783 1.72834 2.705 1.8095 2.41781 3.3121 3.53239 3.61889 2.9446 
0.396033 2.34007 2.48076 1.15934 1.39645 3.8231 3.00124 0.106171 3.7595 
3.91148 1.93725 3.97584 4.40566 3.62853 3.07597 1.65251 4.07628 3.70528 
0.0478051 3.33649 2.5055 3.30626 4.03583 3.75383 0.574258 3.93163 3.03338 
0.288661 4.57075 2.98607 3.42429 0.955274 3.21418 1.05406 4.28367 3.83373 
0.856999 4.69754 2.04743 2.84515 0.905302 3.54367 4.08077 4.40739 2.85612 
3.80086 3.83903 2.0852 3.59903 3.04696 3.56283 0.984818 3.97525 2.3396 
2.71663 4.49886 3.74883 2.53771 2.86126 2.76309 2.29371 4.84678 3.16872 
3.12675 1.7707 3.36074 4.53535 1.31154 2.67277 2.87803 3.9096 2.10357 
4.51285 0.445293 2.05273 2.73547 3.23633 3.56658 3.7382 1.82057 2.57383 
0.821917 3.446 3.3724 2.81521 2.20767 3.83803 2.88383 0.548994 2.59253 
2.89217 1.43137 2.69228 0.614382 0.351 4.15044 3.88189 1.5283 5.29532 
0.108082 1.83505 4.37137 1.96703 0.196177 5.95825 1.32353 3.09635 5.4956 
4.6669 1.70225 4.98934 0.387824 2.67932 4.44886 2.31613 2.28968 5.12172 
0.569152 0.72934 5.78478 3.83552 4.62758 4.64267 3.92139 2.79067 4.13249 
4.69448 4.21992 5.09265 1.29109 2.13412 4.62043 2.12019 3.15617 5.14015 
1.75208 1.53593 4.58965 0.559086 1.47999 5.11191 1.5337 3.65293 4.59857 
1.59024 2.14383 5.56289 2.95747 0.326177 4.89085 2.09509 4.48028 4.34331 
1.67365 0.992066 5.62369 1.9235 0.0178457 5.09611 1.10331 1.17906 5.00272 
0.789669 0.183769 5.03609 0.308475 1.77024 5.76996 1.23191 2.83944 4.77931 
2.32978 0.96396 4.8369 0.491888 1.18253 4.25028 2.7377 0.773973 5.63086 
3.55513 0.110113 4.47 3.01551 2.20615 5.5942 2.42737 4.267 5.62741 
1.4555 4.49841 4.81686 3.03041 4.05366 5.03966 1.05243 4.9045 5.906 
2.82682 3.7311 5.95975 2.50919 4.79133 5.03313 -0.022115 4.26033 4.95436 
2.54515 2.87866 4.36518 4.03809 0.294747 5.67423 4.6602 3.78746 4.1741 
3.25402 3.57516 4.44866 4.12038 4.27931 4.00818 0.299833 3.49135 4.12636 
0.951323 3.82314 5.33542 -0.00431888 4.87766 4.34775 3.07346 2.22216 4.61742 
0.406186 3.92159 5.86169 3.84287 2.43063 5.57271 3.82767 4.06708 5.60765 
4.88273 1.3484 4.12245 4.96351 0.914652 5.04505 2.30831 3.34178 7.65778 
2.11773 1.28764 7.01023 2.7746 0.0112191 6.96681 2.15818 1.41092 7.83577 
4.8997 0.992161 6.06935 1.31882 0.414348 6.54578 4.67129 4.73925 6.89957 
1.81641 4.0913 6.36387 2.54217 3.84879 6.87191 0.759162 1.51624 6.54316 
1.74191 3.88139 7.36872 0.253972 0.920235 7.16275 0.49182 2.6921 6.45535 
3.40008 3.88562 6.66504 1.25516 3.2433 6.2202 1.96385 2.14077 6.92945 
1.12242 2.31774 6.13506 0.388617 2.21046 7.29901 1.54311 1.39724 6.29842 
3.53793 1.40906 6.23243 2.56915 4.5968 7.69106 1.7879 3.06622 6.88079 
1.32235 2.36653 7.50523 4.50015 0.577326 7.92079 0.378283 0.140012 6.62545 
3.84878 1.85032 7.21786 2.60703 1.22135 6.3175 0.890813 0.295539 7.98884 
4.1462 3.93507 7.2809 2.27751 1.96627 6.05518 3.77961 2.3319 6.44984 
4.01346 3.26598 6.06582 0.691235 4.56273 6.74912 1.65979 4.89654 7.40101 
4.40874 4.66468 7.87217 0.623711 3.57858 6.75416 3.73699 4.81691 6.59437 
4.2017 1.01623 7.15326 3.09071 0.934244 7.10683 0.671718 3.26283 7.62741 
4.37643 2.8193 7.24606 3.96729 0.159358 6.65444 0.321677 3.98921 7.70934 
2.94965 4.75731 6.84305 3.18176 3.83992 7.59001 2.88276 1.37207 7.9005 
3.22399 2.96188 6.17519 3.26703 0.227 6.079 3.41112 2.73472 7.14016 
4.4081 1.59408 7.9999 4.78562 3.1171 9.66114 2.08393 1.54955 9.39873 
0.270443 1.65415 9.78092 2.45795 2.33094 8.08401 1.82065 2.60662 8.66629 
1.05205 2.67439 9.39338 4.93848 3.91087 9.4189 0.153 1.0263 9.03408 
0.291348 0.277497 8.92903 1.34456 0.628443 8.78879 2.04421 3.63526 9.35971 
4.50329 0.355934 9.5121 4.41628 4.0509 8.74067 1.5203 1.64034 8.90805 
4.22355 3.20189 8.91519 3.36144 0.45142 9.83203 1.30408 3.074 8.20064 
2.66412 3.27625 9.90047 2.2484 2.63482 9.39838 0.264574 2.63844 8.19039 
3.73583 1.42289 9.86678 3.09388 4.18395 9.85102 3.90045 2.34411 8.03241 
1.04133 3.79341 9.32913 2.8446 0.683667 8.30721 0.674406 3.57041 8.50988 
3.88252 3.42521 8.0195 4.31828 1.613 8.96229 3.36508 2.58129 8.2978 
3.80686 2.29973 9.22743 3.16006 1.76972 8.72323 3.35182 3.6413 9.07563 
3.72864 4.36258 8.35824 0.117582 2.80805 9.09468 4.07545 3.00489 9.91902 
0.553226 4.40792 9.69469 4.27326 0.858799 8.76766 0.1482 4.63169 8.78841 
2.91006 4.11334 8.62602 2.8208 4.98321 9.89105 3.37242 2.95806 9.63259 
4.29448 4.64751 9.31978 2.24622 4.4932 9.03378 2.87462 3.25953 8.3151 
2.71894 0.274046 9.11797 2.70088 1.14143 9.34978 3.21836 0.0693372 8.24949 
4.64538 2.43398 9.0315 4.83943 2.27819 9.9883 4.90934 3.31837 8.1449 
4.96718 0.94385 8.83855 2.30924 9.77235 1.28577 3.82589 7.22664 1.44002 
0.300657 9.49837 1.07321 1.71949 9.95709 1.28092 4.04466 5.10986 0.73774 
3.46374 7.27969 0.766036 3.85121 5.74662 0.101285 3.92987 8.81703 0.163337 
4.62999 7.25416 1.90647 1.07363 9.47924 1.7867 2.98074 9.57926 0.819015 
0.388102 8.23849 0.325643 0.88073 9.95894 0.353418 3.28158 6.30097 1.87373 
2.75833 5.40416 1.59156 3.72994 5.02792 1.6268 3.70051 9.71009 1.39109 
2.78261 8.33148 1.59734 0.822759 8.88108 0.87791 0.252164 8.64458 1.60788 
2.82574 7.26754 0.193442 4.66472 5.9673 0.493257 1.18732 9.30643 0.130098 
3.85803 5.82949 1.22471 2.69147 7.67578 0.98828 1.49937 8.52572 1.34209 
0.955348 7.78989 0.0626747 1.47474 5.01655 0.983036 1.82413 6.53935 1.53422 
1.48916 7.44571 0.474512 1.79123 5.5974 1.75575 0.712664 6.59208 0.179781 
0.00104143 5.12353 1.39598 2.1758 8.68592 0.672465 1.00178 7.00918 1.45259 
0.127499 6.56078 0.94149 0.15458 5.76101 0.743266 3.99578 7.65566 0.149392 
0.697517 5.64586 0.0212014 0.807451 5.2447 1.63719 -0.0636447 6.96898 1.7931 
1.59696 6.81043 0.76305 1.12661 5.89669 0.761226 1.83239 6.10504 0.31797 
4.27376 6.70323 1.10725 0.766846 6.08602 1.5798 2.24975 9.04693 1.68005 
1.91868 7.75074 1.4254 1.95292 9.29676 0.0276218 4.52438 9.46576 1.63173 
4.62104 8.21533 0.775705 4.59068 9.84034 0.331373 4.63967 6.61798 0.294024 
4.83121 8.76785 1.513 4.83052 9.0504 0.516313 4.865 6.12505 1.90585 
4.86937 5.28933 0.855866 2.2409 5.40901 2.50168 0.80902 5.04095 3.86824 
3.65066 9.35968 2.37746 2.62884 7.9251 2.90422 3.90552 6.93704 3.47067 
0.2239 9.30745 2.1941 4.67776 9.30477 2.55582 0.284237 8.73785 3.89058 
0.257494 9.08434 3.15117 4.10336 9.96042 3.21275 0.997766 9.17721 2.64876 
3.52649 7.72908 3.66893 2.69586 5.30469 3.87029 3.09161 7.19477 2.99428 
0.169179 9.89271 3.09529 0.765432 9.74863 3.7769 4.20853 6.19282 3.00681 
2.88988 6.37622 2.77168 1.12543 9.17354 3.82921 0.0234337 7.68137 2.21669 
2.15562 6.36506 2.39769 4.20606 5.34297 2.56927 1.5169 8.11831 2.62145 
4.74324 9.26734 3.82981 2.2841 9.7003 3.15466 1.7384 7.55559 3.38637 
4.15338 8.19825 2.13578 4.67221 6.38382 3.98606 3.33 5.33407 3.09551 
2.14762 8.4535 3.32918 1.51723 6.65948 3.69432 2.55351 9.13364 2.77698 
0.958524 7.01985 2.3576 0.652701 6.70088 3.73171 2.35061 6.2907 3.62382 
0.31657 7.65172 3.04842 0.319356 5.76112 3.61058 0.584082 5.59389 2.57998 
3.34364 5.16764 2.30848 2.31921 7.05481 3.17541 2.55741 7.50058 3.91145 
1.86207 7.01556 2.33766 1.3876 5.33986 3.09366 2.63106 9.7455 2.13439 
2.51846 8.56168 2.37143 2.9845 8.42718 3.75326 3.05657 9.24776 3.48894 
3.12157 5.9627 3.39697 3.16049 6.60814 3.84557 3.20593 7.85668 2.27824 
3.26848 7.126 2.0368 3.94658 7.36196 2.67913 3.87313 5.48701 3.80056 
4.11375 8.28384 3.06693 4.15471 6.25247 2.01688 4.90777 8.061 3.46479 
4.90914 5.2174 2.61113 3.38974 8.89304 4.85406 4.05139 7.14291 4.49001 
3.04046 5.35164 4.65104 4.25148 8.94022 5.35177 0.361432 6.14579 4.50225 
2.232 9.92503 4.3488 1.20117 6.69757 5.44055 3.42442 6.52066 5.11816 
2.66597 5.8811 5.53927 3.45607 9.12323 5.89508 4.20794 5.55735 4.60943 
1.95029 7.96188 4.2563 3.15702 7.68962 5.47373 3.82664 6.2116 4.29343 
2.54769 8.25653 5.49952 4.34046 9.59208 5.98554 1.79913 8.49342 5.46935 
3.22106 7.0687 4.35651 3.89322 9.52166 4.04781 2.84188 8.1202 4.61392 
1.6741 9.27112 5.60469 4.86932 7.05574 5.12956 0.792198 9.28273 4.7663 
-0.0846103 9.35133 4.46679 4.34658 9.80555 4.88641 3.73605 8.62084 4.04014 
0.456799 9.43762 5.76609 2.62278 7.20119 4.76906 -0.0057945 5.66021 5.24814 
0.99486 8.39742 5.8498 4.14096 8.23423 4.69386 4.26156 7.57266 5.33185 
1.17937 8.31126 4.22174 1.46359 7.05443 4.49304 2.00088 8.82341 4.5649 
2.12579 5.6354 4.64237 3.20788 9.59028 5.25865 0.926704 7.11573 5.97838 
[...]
POINT_DATA 1000
FIELD FieldData 7
id 1 1000 int
864 487 233 526 886 110 351 839 769 
142 787 531 79 265 380 966 213 91 
804 201 983 431 241 106 21 222 661 
775 1000 149 495 282 318 677 584 865 
618 767 755 288 898 409 941 627 919 
842 538 921 725 228 175 456 743 625 
9 731 579 172 364 875 1 259 217 
748 394 507 159 428 742 846 186 421 
514 828 889 641 910 331 693 322 620 
784 258 206 566 524 404 340 19 391 
756 346 930 272 208 416 214 359 313 
7 798 786 33 145 39 137 17 147 
480 988 434 621 406 326 925 23 437 
691 606 893 975 83 703 111 737 789 
483 541 200 332 476 890 472 361 936 
350 220 860 780 290 658 321 896 354 
792 728 277 794 509 672 626 25 263 
708 970 171 96 43 46 660 869 399 
845 502 169 56 389 250 80 69 530 
173 632 478 383 559 240 948 375 418 
800 284 996 746 97 752 646 396 894 
781 207 785 501 918 239 271 539 303 
722 402 439 572 903 270 16 613 141 
876 242 196 118 998 74 750 826 675 
592 283 586 833 281 829 65 180 644 
190 372 688 734 923 902 674 916 323 
881 883 616 51 823 369 590 830 42 
403 438 158 71 754 523 138 67 343 
492 477 520 614 549 408 109 791 490 
885 690 398 645 307 638 319 716 450 
334 328 965 128 164 852 854 698 373 
252 335 452 500 955 136 570 297 683 
788 986 444 268 494 305 928 892 927 
135 392 726 712 176 29 160 911 401 
266 777 938 764 950 942 143 710 457 
275 262 255 521 815 295 622 929 150 
821 659 455 634 505 695 720 103 209 
336 469 915 562 564 574 54 643 108 
849 81 631 855 667 405 153 994 238 
174 871 133 701 170 163 971 553 578 
197 248 882 664 991 362 460 744 799 
449 542 739 724 985 810 735 673 897 
630 489 151 122 569 540 808 580 831 
101 610 443 601 379 181 615 917 952 
183 825 499 481 221 10 624 395 528 
479 678 560 371 58 732 491 817 657 
525 537 878 705 700 959 519 388 486 
273 442 276 753 50 694 870 982 114 
93 285 382 862 669 713 535 115 302 
188 441 642 230 301 891 198 751 704 
13 904 292 253 451 3 412 663 227 
202 41 26 576 454 390 60 113 310 
419 556 353 92 246 508 194 532 36 
440 629 229 696 144 836 475 797 668 
747 811 649 963 872 459 377 552 52 
426 496 436 628 59 920 116 84 468 
993 655 760 237 766 280 857 656 662 
358 234 130 339 612 210 374 901 765 
820 680 835 905 226 548 670 510 587 
598 18 95 352 467 329 770 647 342 
597 529 843 707 516 461 783 772 565 
582 225 759 909 400 995 999 907 947 
506 727 980 987 308 12 943 333 72 
603 193 15 807 609 555 204 433 298 
289 623 868 78 954 679 327 730 427 
370 853 596 446 407 937 482 216 738 
858 62 445 244 776 293 803 933 619 
666 650 121 585 47 967 806 112 637 
939 249 513 844 568 762 771 245 243 
951 635 278 2 493 251 773 805 827 
653 187 863 134 932 410 511 958 75 
741 611 465 102 692 600 185 636 543 
347 665 267 895 311 38 687 49 232 
602 148 729 534 345 583 944 671 768 
485 189 877 912 778 89 992 887 424 
824 608 924 652 717 192 522 972 139 
926 880 366 261 689 547 94 98 795 
205 355 816 420 913 291 260 14 935 
984 384 908 819 264 287 61 648 212 
236 316 157 348 35 269 960 861 31 
968 536 640 156 840 488 812 702 956 
581 219 740 40 654 127 761 146 594 
126 66 721 974 940 685 257 314 86 
745 946 822 447 32 99 554 599 4 
682 386 976 906 841 589 945 179 484 
571 796 969 385 48 779 304 152 518 
551 990 131 758 349 100 37 873 368 
850 462 63 90 888 979 413 341 859 
962 736 312 639 337 545 595 832 162 
129 763 30 53 607 256 363 215 561 
961 274 884 934 851 430 20 749 458 
178 814 429 224 473 563 802 309 503 
195 684 617 448 376 593 123 117 471 
357 558 423 55 235 818 425 132 557 
381 977 44 182 879 464 466 203 517 
633 254 605 325 378 286 848 367 801 
715 714 68 211 105 24 931 699 22 
184 733 119 64 949 124 432 296 191 
989 757 900 681 546 914 5 838 504 
544 231 866 177 834 874 247 813 140 
320 550 338 344 76 360 34 922 120 
515 953 577 223 527 498 709 856 790 
847 70 306 315 997 393 676 575 782 
82 154 837 356 397 417 567 317 300 
324 166 604 45 299 88 387 686 651 
591 87 719 899 11 723 28 414 809 
107 199 711 697 27 422 294 8 497 
793 167 77 573 85 512 973 533 964 
6 57 463 155 165 470 161 73 706 
453 867 957 168 435 415 978 588 411 
718 981 125 774 218 365 279 330 104 
474 
type 1 1000 int
2 1 1 2 2 1 1 2 2 
1 2 2 1 1 1 2 1 1 
2 1 2 1 1 1 1 1 2 
2 2 1 1 1 1 2 2 2 
2 2 2 1 2 1 2 2 2 
2 2 2 2 1 1 1 2 2 
1 2 2 1 1 2 1 1 1 
2 1 2 1 1 2 2 1 1 
2 2 2 2 2 1 2 1 2 
2 1 1 2 2 1 1 1 1 
2 1 2 1 1 1 1 1 1 
1 2 2 1 1 1 1 1 1 
1 2 1 2 1 1 2 1 1 
2 2 2 2 1 2 1 2 2 
1 2 1 1 1 2 1 1 2 
1 1 2 2 1 2 1 2 1 
2 2 1 2 2 2 2 1 1 
2 2 1 1 1 1 2 2 1 
2 2 1 1 1 1 1 1 2 
1 2 1 1 2 1 2 1 1 
2 1 2 2 1 2 2 1 2 
2 1 2 2 2 1 1 2 1 
2 1 1 2 2 1 1 2 1 
2 1 1 1 2 1 2 2 2 
2 1 2 2 1 2 1 1 2 
1 1 2 2 2 2 2 2 1 
2 2 2 1 2 1 2 2 1 
1 1 1 1 2 2 1 1 1 
1 1 2 2 2 1 1 2 1 
2 2 1 2 1 2 1 2 1 
1 1 2 1 1 2 2 2 1 
1 1 1 1 2 1 2 1 2 
2 2 1 1 1 1 2 2 2 
1 1 2 2 1 1 1 2 1 
1 2 2 2 2 2 1 2 1 
1 1 1 2 2 1 2 2 1 
2 2 1 2 2 2 2 1 1 
1 1 2 2 2 2 1 2 1 
2 1 2 2 2 1 1 2 1 
1 2 1 2 1 1 2 2 2 
1 1 2 2 2 1 1 2 2 
1 2 2 2 2 2 2 2 2 
2 1 1 1 2 2 2 2 2 
1 2 1 2 1 1 2 2 2 
1 2 1 1 1 1 2 1 2 
1 2 2 1 1 2 1 2 2 
2 2 2 2 2 2 2 1 1 
1 1 1 2 1 2 2 2 1 
1 1 1 2 2 2 2 1 1 
1 1 2 1 1 2 1 2 2 
1 2 1 1 1 1 1 2 1 
1 1 1 2 1 1 1 1 1 
1 2 1 1 1 2 1 2 1 
1 2 1 2 1 2 1 2 2 
2 2 2 2 2 1 1 2 1 
1 1 1 2 1 2 1 1 1 
2 2 2 1 2 1 2 2 2 
1 1 1 1 2 1 1 2 2 
2 2 2 2 1 2 2 2 2 
2 1 1 1 1 1 2 2 1 
2 2 2 2 2 1 2 2 2 
2 1 2 2 1 2 2 2 2 
2 2 2 2 1 1 2 1 1 
2 1 1 2 2 2 1 1 1 
1 2 2 1 2 2 1 2 1 
1 2 2 1 1 2 1 1 2 
2 1 1 1 2 1 2 2 2 
2 2 1 2 1 2 2 1 2 
2 1 2 2 2 2 2 1 1 
2 2 1 1 1 1 2 2 2 
2 1 2 1 2 1 2 2 1 
2 2 1 1 2 2 1 2 2 
1 2 1 2 1 1 2 1 1 
2 1 2 2 1 2 2 2 2 
1 1 2 2 2 1 2 2 1 
2 2 2 2 2 1 2 2 1 
2 2 1 1 2 2 1 1 2 
1 1 2 1 2 1 1 1 2 
2 1 2 2 1 1 1 2 1 
1 1 1 1 1 1 2 2 1 
2 2 2 1 2 1 2 2 2 
2 1 2 1 2 1 2 1 2 
1 1 2 2 2 2 1 1 1 
2 2 2 1 1 1 2 2 1 
2 1 2 2 2 2 2 1 1 
2 2 2 1 1 2 1 1 2 
2 2 1 2 1 1 1 2 1 
2 1 1 1 2 2 1 1 2 
2 2 1 2 1 2 2 2 1 
1 2 1 1 2 1 1 1 2 
2 1 2 2 2 1 1 2 1 
1 2 1 1 1 2 2 1 2 
1 2 2 1 1 2 1 1 1 
1 2 1 1 1 2 1 1 2 
1 2 1 1 2 1 1 1 2 
2 1 2 1 1 1 2 1 2 
2 2 1 1 1 1 2 2 1 
1 2 1 1 2 1 1 1 1 
2 2 2 2 2 2 1 2 2 
2 1 2 1 2 2 1 2 1 
1 2 1 1 1 1 1 2 1 
2 2 2 1 2 1 2 2 2 
2 1 1 1 2 1 2 2 2 
1 1 2 1 1 1 2 1 1 
1 1 2 1 1 1 1 2 2 
2 1 2 2 1 2 1 1 2 
1 1 2 2 1 1 1 1 1 
2 1 1 2 1 2 2 2 2 
1 1 1 1 1 1 1 1 2 
1 2 2 1 1 1 2 2 1 
2 2 1 2 1 1 1 1 1 
1 
i 3 1000 int
-25 0 1 -72 0 0 -48 0 1 
-67 0 1 159 1 0 -30 0 1 
-19 0 1 -32 0 1 11 0 1 
-70 0 0 -38 0 1 -41 0 0 
-54 0 1 -44 0 1 -31 0 1 
-30 0 1 115 1 1 -5 0 0 
-96 0 0 -62 0 1 14 0 0 
-54 0 0 167 1 1 -33 0 0 
-84 0 1 140 1 1 -35 0 0 
-83 0 0 -72 0 0 -5 0 0 
-50 0 1 120 1 0 -44 0 1 
-17 0 1 -44 0 1 -44 0 -1 
-28 0 1 -48 0 1 -49 0 0 
-5 0 -1 -38 0 0 190 1 1 
-4 0 0 -17 0 0 -43 0 0 
-65 0 1 149 1 0 -51 0 1 
-28 0 0 -76 0 1 12 0 0 
-12 0 0 -38 0 0 -4 0 0 
141 1 0 197 1 0 -21 0 0 
-111 0 0 -27 0 0 -1 0 1 
-129 0 -1 -76 0 -1 -21 0 0 
105 1 -1 66 1 -1 -65 0 0 
130 1 0 -44 0 1 10 0 -1 
-36 0 1 66 1 0 95 1 0 
-47 0 0 -30 0 1 2 0 0 
-8 0 0 -22 0 1 5 0 0 
34 0 0 33 1 0 5 0 0 
-62 0 1 -57 0 1 -48 0 1 
147 1 1 -23 0 1 9 0 0 
-13 0 0 -51 0 0 -13 0 0 
-34 0 1 116 1 0 -13 0 0 
-92 0 0 4 0 0 -62 0 0 
9 0 0 -26 0 0 -85 0 0 
-34 0 0 -107 0 0 -86 0 1 
140 1 0 94 1 0 -70 0 0 
-116 0 0 -67 0 0 -78 0 0 
-57 0 1 34 0 0 -55 0 0 
6 0 0 -50 0 1 -15 0 0 
36 1 0 -70 0 0 -71 0 0 
75 1 0 -82 0 -1 6 0 0 
108 1 1 91 1 0 -97 0 0 
55 1 0 -27 0 0 -69 0 0 
71 1 0 70 1 0 -106 0 0 
-94 0 0 -25 0 0 -22 0 0 
19 0 0 -22 0 0 5 0 0 
66 1 0 161 1 0 -15 0 1 
-115 0 0 92 1 0 -26 0 0 
7 0 -1 -6 0 -1 -16 0 1 
86 1 0 24 0 0 -102 0 1 
47 0 0 -57 0 0 -21 0 -1 
-15 0 -1 -83 0 0 -22 0 0 
-82 0 0 126 1 -1 -6 0 -1 
-53 0 0 -64 0 0 90 0 0 
28 0 0 -30 0 0 -77 0 -1 
-18 0 0 -90 0 0 111 1 0 
-27 0 0 -33 0 0 -33 0 0 
-19 0 0 -45 0 0 -32 0 1 
82 1 0 23 0 -1 6 0 0 
-37 0 0 -88 0 0 -85 0 0 
131 1 0 78 1 -1 -66 0 0 
150 1 -1 -85 0 0 -8 0 -1 
-6 0 0 4 0 0 5 0 -1 
-37 0 0 -26 0 0 9 0 0 
88 1 0 105 1 1 173 1 0 
63 1 0 -58 0 0 -152 -1 0 
-50 0 0 -78 0 0 91 1 0 
-79 0 0 -108 0 0 -20 0 0 
-47 0 0 -25 0 -1 -57 0 0 
-83 0 -1 -27 0 0 -11 0 0 
-27 0 0 -155 -1 0 131 1 -1 
103 1 0 -119 0 0 30 0 0 
-71 0 0 150 1 -1 -25 0 0 
-16 0 -1 -93 0 0 124 1 0 
19 0 -1 16 0 -1 -15 0 0 
-16 0 0 23 0 0 180 1 0 
-21 0 0 -69 0 0 3 0 0 
-38 0 0 70 1 -1 120 1 0 
-18 0 -1 -46 0 -1 -108 -1 -1 
-8 0 -1 2 0 -1 -20 0 0 
4 0 0 135 1 -1 -31 0 0 
6 0 -1 120 1 -1 -52 0 0 
-1 0 -1 26 0 -1 4 0 0 
39 1 0 -61 0 0 -64 0 1 
-33 0 0 138 1 0 -17 0 0 
-103 0 0 69 0 0 52 0 0 
52 0 1 -93 -1 0 -4 0 0 
16 0 0 33 0 0 -89 -1 0 
19 0 0 53 0 0 45 0 0 
49 0 0 119 0 0 20 0 -1 
-6 0 0 -43 0 0 51 0 0 
33 0 0 26 0 0 17 0 -1 
24 0 1 34 0 0 -93 -1 1 
-3 0 0 34 0 0 -65 -1 0 
94 0 1 -53 0 1 21 0 0 
11 0 1 11 0 1 -11 0 0 
-126 -1 1 95 0 0 15 0 0 
39 0 0 44 0 1 27 0 1 
31 0 0 11 0 0 54 0 0 
-6 0 0 37 0 0 14 0 1 
-8 0 0 -16 0 0 86 0 0 
58 0 0 37 0 1 62 0 0 
58 0 0 -119 -1 -1 50 0 0 
-93 -1 0 -90 -1 0 12 0 0 
-45 0 1 17 0 -1 13 0 0 
47 0 0 71 0 0 9 0 0 
-52 -1 0 -98 -1 0 -53 -1 1 
-17 -1 1 73 0 0 60 0 0 
21 0 0 -16 0 1 57 0 -1 
102 0 0 -44 -1 0 8 0 0 
58 0 -1 -80 -1 0 41 0 0 
17 0 0 8 0 0 -128 -1 0 
70 0 0 89 0 0 36 0 0 
95 0 1 4 0 0 -10 0 1 
26 0 1 -25 0 1 -84 -1 1 
6 0 1 25 0 1 15 0 0 
-141 -1 0 -50 0 0 6 0 0 
27 0 0 45 0 0 -129 -1 0 
51 0 -1 -9 0 0 87 0 1 
38 0 0 83 0 0 97 0 0 
48 0 0 -158 -1 1 54 0 0 
49 0 0 -148 -1 0 -19 0 0 
35 0 0 58 0 0 17 0 0 
-7 0 0 76 0 0 101 0 0 
-9 0 0 -139 -1 1 5 0 0 
-125 -1 0 43 0 0 44 0 0 
31 0 0 80 0 -1 21 0 0 
54 0 0 66 0 -1 -30 0 0 
57 0 0 142 0 -1 -125 -1 0 
69 0 0 105 0 0 49 0 0 
-41 -1 0 35 0 -1 49 0 0 
44 0 0 -70 -1 0 45 0 0 
98 0 0 19 0 0 38 0 0 
51 0 -1 71 0 -1 20 0 0 
65 0 -1 55 0 0 -86 -1 1 
24 0 -1 48 0 0 36 0 -1 
49 0 0 -6 0 0 36 0 0 
-35 0 0 38 0 -1 -139 -1 1 
50 0 -1 19 0 -1 43 0 0 
-117 -1 -1 78 0 0 91 0 0 
-56 -1 0 50 0 0 85 0 0 
-48 -1 -1 -93 -1 0 92 0 0 
-105 -1 1 7 0 -1 -95 -1 0 
60 0 0 15 0 0 -143 -1 0 
11 0 0 3 0 -1 -148 -1 -1 
61 0 -1 83 0 -1 -91 -1 -1 
-33 0 0 -160 -1 0 -122 -1 1 
83 0 0 47 0 -1 77 0 0 
17 0 0 36 0 0 -129 -1 0 
76 0 0 66 0 -1 28 0 -1 
-20 0 0 104 0 0 79 0 -1 
2 0 -1 47 0 -1 -175 -1 -1 
-121 -1 0 2 0 0 45 0 0 
-132 -1 0 45 0 0 -66 -1 0 
67 0 -1 -108 -1 -1 97 0 -1 
54 0 -1 111 0 0 48 0 -1 
23 0 0 33 0 -1 1 0 0 
54 0 -1 65 0 -1 66 0 0 
13 0 0 125 0 0 -151 -1 0 
-149 -1 -1 30 0 -1 -108 -1 -1 
20 0 0 -98 -1 -1 -61 -1 0 
18 0 -1 5 0 -1 101 0 -1 
18 0 0 116 0 -1 -10 0 0 
-118 -1 0 9 0 0 14 0 0 
55 0 0 -4 0 -1 15 0 0 
-134 -1 1 55 0 -1 135 0 0 
55 0 -1 95 0 0 42 0 0 
25 0 0 43 0 -1 -103 -1 0 
9 0 0 90 0 0 11 0 0 
20 0 0 -136 -1 0 -48 0 1 
-46 0 1 -48 0 1 -64 0 0 
-2 0 0 -55 0 1 -35 0 1 
-19 0 0 -61 0 0 -16 0 0 
-38 0 1 4 0 1 92 1 0 
-16 0 1 -61 0 0 116 1 0 
-64 0 0 -76 0 0 -18 0 1 
-25 0 0 -62 0 1 -69 0 1 
-16 0 1 -36 0 0 -26 0 1 
-28 0 1 -22 0 1 -11 0 0 
-48 0 1 165 1 1 -62 0 1 
-42 0 0 -54 0 0 -22 0 1 
-51 0 1 -7 0 0 0 0 1 
-207 -1 0 -83 0 1 139 1 0 
-26 0 1 -50 0 1 -44 0 1 
9 0 0 -41 0 1 -33 0 0 
-25 0 1 -75 0 0 -77 0 1 
-17 0 0 -47 0 0 20 0 1 
-62 0 0 -46 0 1 91 1 1 
83 1 0 -32 0 1 -71 0 0 
-44 0 0 -2 0 0 104 1 0 
103 1 0 103 1 0 -60 0 1 
-32 0 0 -24 0 0 -23 0 0 
-97 0 1 85 1 -1 -68 0 0 
-119 0 -1 -37 0 1 -60 0 1 
12 0 1 105 1 0 -22 0 0 
-26 0 0 -85 0 0 -5 0 0 
-9 0 0 76 1 0 -42 0 1 
-28 0 1 21 0 0 -17 0 0 
19 0 0 -70 0 1 140 1 1 
-11 0 0 -37 0 0 -15 0 0 
-194 -1 0 -67 0 1 -85 0 0 
101 1 0 -18 0 0 -31 0 1 
24 0 0 -22 0 0 121 1 0 
-64 0 1 -55 0 0 94 1 -1 
-67 0 0 -9 0 0 -48 0 1 
-23 0 0 -59 0 1 -56 0 0 
69 1 0 -36 0 0 -73 0 0 
-72 0 0 -37 0 0 -37 0 0 
-30 0 0 -157 -1 0 119 1 -1 
-10 0 0 129 1 0 -25 0 0 
-40 0 0 -71 0 -1 -38 0 0 
145 1 0 -62 0 0 -25 0 0 
-49 0 0 -31 0 0 -23 0 0 
-18 0 -1 108 1 1 91 1 1 
-89 0 0 -21 0 0 -3 0 0 
1 0 -1 99 1 0 -24 0 1 
12 0 0 -72 0 0 -79 0 0 
-10 0 0 49 1 1 -102 0 0 
-67 0 0 -10 0 0 -52 0 0 
83 1 0 -4 0 0 -48 0 1 
92 1 0 -15 0 0 110 1 1 
32 0 0 93 1 0 -55 0 1 
-67 0 0 -1 0 0 -92 0 -2 
-69 0 1 97 1 0 127 1 0 
19 0 -1 -110 0 1 -49 0 0 
-103 0 0 73 1 -1 3 0 0 
10 0 0 -26 0 0 -38 0 0 
6 0 0 -40 0 0 23 0 0 
-13 0 0 25 0 -1 -28 0 0 
38 1 0 28 0 0 -15 0 0 
-7 0 0 -51 0 0 66 0 0 
-18 0 0 -13 0 0 -55 0 0 
-104 0 -1 73 1 0 -6 0 0 
6 0 0 6 0 0 -67 0 0 
-86 0 0 11 0 0 -29 0 0 
92 1 0 -34 0 0 -53 0 0 
-34 0 0 -12 0 -1 96 1 0 
-92 0 0 123 1 0 124 1 -1 
-72 0 0 -67 0 -1 -32 0 0 
-9 0 0 -91 0 1 -93 0 0 
110 1 0 -13 0 0 83 1 0 
131 1 0 -104 0 -1 -85 0 0 
25 0 0 -16 0 0 -78 0 1 
41 0 0 104 1 0 -58 0 0 
-7 0 0 16 0 -1 -46 0 0 
-11 0 0 -60 0 1 -59 0 0 
-86 0 0 -7 0 0 -64 0 0 
99 1 -1 -18 0 0 108 1 0 
215 1 0 22 0 -1 24 0 0 
-26 0 0 -52 0 0 -20 0 1 
-4 0 0 34 0 0 -30 -1 1 
50 0 1 131 0 0 -69 -1 0 
-76 -1 0 35 0 0 -101 -1 0 
-6 0 0 46 0 0 50 0 0 
50 0 0 38 0 0 32 0 1 
49 0 0 76 0 0 25 0 1 
18 0 1 16 0 0 66 0 0 
-124 -1 0 48 0 0 -18 0 0 
-66 -1 0 11 0 1 -104 -1 0 
-4 0 1 3 0 0 47 0 0 
-17 0 0 36 0 0 -9 0 0 
-178 -1 0 -73 -1 0 -16 0 0 
64 0 1 101 0 0 50 0 0 
26 0 0 193 1 1 60 0 1 
-42 0 0 24 0 0 -110 -1 1 
-53 -1 0 -151 -1 2 -10 0 1 
38 0 1 91 0 0 86 0 -1 
71 0 1 -32 0 0 66 0 0 
-89 -1 0 19 0 1 9 0 0 
5 0 0 47 0 1 -14 0 0 
15 0 -1 42 0 0 46 0 0 
-2 0 0 -105 -1 -1 32 0 0 
20 0 0 -99 -1 0 -24 0 1 
-131 -1 0 -119 -1 1 33 0 0 
15 0 0 -100 -1 1 -21 0 0 
-84 -1 1 10 0 0 7 0 1 
-3 0 1 31 0 0 -23 0 0 
-96 -1 1 42 0 0 42 0 1 
-4 0 1 -85 -1 0 25 0 1 
-39 0 0 -88 -1 0 48 0 0 
-149 -1 1 26 0 0 -111 -1 0 
56 0 0 -21 0 0 95 0 0 
-83 -1 0 64 0 0 86 0 0 
23 0 0 59 0 0 27 0 -1 
54 0 -1 107 0 1 18 0 0 
47 0 0 -91 -1 0 -22 0 0 
-95 -1 1 4 0 0 14 0 0 
58 0 -1 -93 -1 0 59 0 0 
-120 -1 1 55 0 -1 -137 -1 -1 
97 0 0 201 1 0 64 0 0 
68 0 0 65 0 0 103 0 -1 
23 0 0 25 0 -1 64 0 0 
44 0 0 97 0 -1 -9 0 0 
52 0 -1 73 0 1 84 0 0 
25 0 0 35 0 -1 81 0 0 
58 0 0 58 0 0 -61 -1 0 
18 0 0 10 0 0 4 0 0 
25 0 -1 6 0 1 34 0 0 
9 0 0 -33 0 1 9 0 -1 
48 0 0 34 0 0 55 0 0 
-106 -1 0 119 0 0 79 0 0 
29 0 0 38 0 0 41 0 0 
35 0 0 67 0 0 -104 -1 0 
112 0 0 25 0 0 -93 -1 -1 
-122 -1 -1 59 0 0 90 0 -1 
-9 0 -1 22 0 0 145 0 0 
64 0 0 -99 -1 0 -87 -1 0 
19 0 0 50 0 0 74 0 -1 
18 0 0 22 0 0 19 0 -1 
83 0 -1 74 0 -1 67 0 -1 
31 0 -1 2 0 0 -116 -1 0 
27 0 0 51 0 -1 53 0 0 
14 0 0 -13 0 0 63 0 -1 
62 0 0 14 0 -1 52 0 1 
58 0 0 -17 0 0 46 0 0 
-109 -1 -1 27 0 -1 31 0 -1 
-133 -1 0 4 0 0 103 0 0 
-81 -1 -1 -22 0 -1 63 0 -1 
30 0 -1 79 0 -1 100 0 -1 
-113 -1 0 -150 -1 -1 48 0 -1 
-28 0 -1 -62 -1 0 -165 -1 -2 
61 0 0 29 0 0 128 0 0 
96 0 -1 99 0 -1 98 0 0 
-68 -1 0 59 0 0 33 0 -1 
-32 0 0 169 1 -1 41 0 -1 
2 0 -1 95 0 0 102 0 0 
29 0 0 54 0 -1 52 0 -1 
-2 0 0 48 0 0 48 0 0 
37 0 -1 0 0 -1 44 0 -1 
7 0 0 25 0 -1 2 0 -1 
24 0 -1 30 0 0 -33 0 -1 
-104 -1 0 45 0 -1 -122 -1 0 
-74 -1 0 24 0 -1 -101 -1 -1 
227 1 -1 38 0 -1 -1 0 0 
42 0 0 
v 3 1000 double
-24.218244152 -15.56142725 24.685207092 -346.86241175 17.899725565 -15.877141352 -406.71657742 -3.6093736273 4.7298393379 
-327.95524914 -16.531446467 -15.377791704 -166.63939799 0.14126730365 6.0570272445 -263.33451442 -10.687057676 -4.929971337 
-25.128168943 0.3731245376 10.665334796 9.7626586219 -36.555113919 -24.268941387 -353.17354428 15.30913544 27.99667488 
-258.72557561 11.145264547 4.3807729689 -148.01369901 15.018895169 13.841736889 -246.05188247 5.2250226439 -10.647462258 
-306.49501356 -17.472858195 6.4592288288 -238.93992704 -5.918722922 29.017079798 -121.85506801 -21.023530823 3.0176708458 
-270.75405138 -15.650683329 8.5579927666 -170.85152835 -20.068253808 5.2953740467 -145.33643179 15.731324031 -0.46000115296 
-400.82821252 6.9093565587 4.9351755955 -250.23920877 11.973619443 -10.824994223 21.504248279 -10.923438534 -15.177907991 
-350.48296874 0.19139128342 -15.134004985 -145.90441715 8.2381758275 9.007573356 -205.30000181 -16.297887001 -8.7410952992 
-221.1439463 -21.451788234 28.625899345 -427.5142095 -0.027794708556 -10.963914066 -237.5853263 -6.2442899126 36.835351086 
-366.37433948 21.947462681 -17.371438163 -156.10900105 10.473437977 -1.3089039159 -33.773302214 -23.79346627 -13.27405381 
-149.29845715 5.5172132326 6.8246734486 -421.61410651 4.0605178665 -8.9652602972 -374.5858101 9.3216593094 -16.428389659 
-87.925018485 7.6780118394 -5.1369866269 -175.21079598 -16.884712079 -1.5960849606 -175.823727 -6.9048538757 0.88756231177 
-326.73369877 -6.9948039007 -1.980790621 -184.38236093 -8.9878992162 3.1664160266 -28.685742809 -1.126740375 0.73030739285 
-114.03289589 1.9547675949 -12.633489568 -127.69448088 9.8573340885 -13.758470316 -12.25483082 -4.6212058869 21.457334472 
25.968322623 -8.8180808553 1.533643357 -26.796045539 1.1235926146 9.8812535296 -433.62162286 -4.7457942927 -12.938023386 
-456.24311594 -8.0906335098 14.843727693 -412.98833137 8.3423209858 -7.3842184281 -70.544286733 -3.1371314433 13.711006313 
-182.22585397 7.9679303248 -5.1205139859 -231.33779941 -6.6589154697 -7.3889243955 -89.948924627 3.9494590408 -13.686494534 
-244.6931861 0.98288636782 -5.6831028557 -249.11613126 14.290978609 15.669547993 -152.04487801 -17.991098083 -2.12148719 
-176.17245718 -0.97503470275 -20.873710386 -352.54522039 2.4321263277 -33.091605377 -44.68274292 -1.971305565 30.608575663 
-497.6628036 3.4635810562 4.6832788573 -145.69252293 -23.037693247 23.25438854 -259.44621847 -0.67632837054 -1.4960643188 
-493.52638311 -17.247253845 -19.128070839 -421.87235137 -0.87205481108 -11.569470209 -133.4557218 26.947295392 -14.920551839 
-262.57552393 7.3948395763 -1.4467135624 -450.77063572 8.3663504745 -1.1715249311 -529.03848838 0.12766225687 -10.199635324 
-314.91948932 -11.931589026 8.1125939927 -232.34355429 1.3846766437 11.119063525 -166.51579067 -3.0514574247 -12.643178824 
-256.88144749 -3.5653798071 23.321488205 -398.42394292 29.988419095 -16.61537737 -510.49103145 9.8383492093 -4.2891656882 
-341.24757584 -2.3657913603 12.573131468 -163.66693183 -1.601526265 2.0222496735 -60.898339271 3.8680727973 -4.2701326025 
-92.641362281 -37.939454534 1.066965757 -80.087924449 -15.749052954 -8.5711704666 -112.3096656 5.3873901179 6.1629359889 
-57.2757501 38.256261957 -4.1379334217 -424.3092235 18.049655634 15.985701227 -68.434792872 -15.086036459 8.5150727738 
-43.49275448 -3.3427640297 7.1844156751 -441.96136965 3.3094983914 35.88865557 -78.364431351 -3.9107126524 4.8366732911 
-130.83206323 -1.2378105699 8.0918437938 -198.5367064 1.4293651889 10.081116763 -115.02867225 24.383469858 9.6980102712 
-62.724142919 -6.7900796519 1.6159117576 -218.99406191 -9.5504433584 11.743279235 -7.1094897351 14.752500345 -3.6948724642 
-273.18454071 0.17919282842 0.92023174523 -354.19813995 5.1859315738 23.97231877 -129.16073804 4.7882067132 0.44688157562 
-407.07150386 -13.587762826 2.296287382 -166.82708892 9.9356491191 -0.33466327373 -343.08401085 14.639401282 0.68365831186 
-140.86020047 -9.2036844621 36.092513547 -264.34367721 -4.9439636394 3.0174646917 -469.75682394 24.218465525 8.9358560795 
-362.78355349 0.67474792355 -17.075792021 -453.27377418 5.094597619 17.543303838 -394.42002714 -10.146080774 -3.371727617 
-348.72710318 13.050807273 -10.609901542 -445.15623926 -24.547122923 25.553929435 -221.85196561 -3.6937421411 3.9464564873 
-403.70488012 42.047464425 -16.261119336 -229.11711751 4.683747111 9.3606539546 -322.87834046 0.21633456667 -9.9492663112 
-416.41101244 -10.721971686 10.737131161 -47.478623264 11.581844414 14.508674719 -220.71179581 13.499066118 30.116751419 
-91.132715598 1.3313248036 19.517015066 -321.83741452 -5.7297734159 15.12578672 -229.69113764 29.467283841 -4.7631869479 
-407.6582507 16.297214374 -22.633926623 -377.42201739 4.6216865307 4.1433915486 -157.29252024 7.7904905894 3.8884058535 
-319.35825584 -8.7668426907 -19.342934844 -510.78987337 20.68867679 -10.269179682 -68.76160631 12.947701266 -4.291425182 
-397.19938078 -7.9299109485 -14.268594902 -509.8307844 3.3226884755 6.0968137182 -390.51894486 -16.236571651 -4.2765719452 
-497.3954439 11.21234832 19.334370913 -323.63149973 1.5506371765 49.78125422 -237.84662584 7.8734148906 3.5295900399 
-445.95810369 6.0786258414 -6.0227942068 -398.59054034 -10.853938757 -1.8920291504 -472.3882895 15.576142931 -9.2060440912 
-512.27163407 24.562064782 4.851280328 -332.79181953 8.6968578118 2.3813218255 -121.11421325 0.25288913735 6.5262538717 
-64.585223761 -0.67823713265 27.365220318 -98.24523674 2.1378643167 -1.9479133941 -20.493824649 3.0100105183 19.019754056 