# vtk DataFile Version 4.2
Generated by LIGGGHTS
ASCII
DATASET POLYDATA
POINTS 1000 float
1.70707 2.57904 1.77919 0.1757 1.28732 1.59854 2.38872 2.44285 1.07004 
1.76905 3.17319 0.967681 3.95093 3.436 0.131803 2.03273 4.0457 0.714759 
4.12409 0.676749 1.36861 0.513255 1.76506 0.213855 0.502584 0.797844 1.26328 
0.800944 3.82589 0.0102318 2.60783 4.74458 1.27746 3.92062 1.05655 0.438125 
0.732788 0.0694285 0.099373 1.07674 2.57055 0.471168 0.632547 0.416385 0.77668 
1.01784 3.10448 1.49078 0.725367 2.05238 1.16739 1.57547 0.827068 1.37605 
1.32359 1.47422 0.646645 0.514298 2.28878 1.66098 0.615216 1.44555 0.749681 
4.63682 4.62933 0.400231 1.12321 3.97468 0.93912 0.499457 3.09953 0.516977 
3.07592 1.66797 1.28943 4.1718 0.287065 0.421084 0.999993 3.96457 1.87523 
3.47357 2.41176 0.630162 4.70469 3.26606 1.12928 0.865182 4.78835 0.187671 
0.0140579 4.2063 1.65014 3.07136 0.913666 0.707769 3.18332 4.17159 1.45756 
3.16624 3.02695 1.05854 0.338149 3.44631 1.32057 4.0364 1.68898 1.41205 
0.263063 4.15594 0.744354 4.63566 2.68539 1.84182 4.2435 2.09158 0.462289 
4.85564 2.18421 1.20265 4.18887 0.0332892 1.988 3.08625 0.528404 1.63105 
3.9764 4.67759 0.83212 3.18737 2.51353 1.77024 4.52635 4.09296 1.32804 
3.79402 3.76099 1.24836 2.56505 4.54495 0.123895 2.77794 3.65534 0.735641 
3.00537 3.05519 0.110269 4.79865 3.0593 0.235086 4.91683 3.86201 0.0118486 
2.32415 1.75006 2.2612 0.268498 0.294802 2.02835 0.666348 0.879248 2.69934 
1.5072 1.36051 2.05418 2.26234 0.776762 2.23591 2.09657 3.49671 2.16845 
2.50688 3.27035 3.93619 2.38909 4.26644 3.2678 3.73521 1.78979 2.22968 
0.280376 1.64065 2.54139 3.07587 2.04587 3.39386 0.968178 0.767998 3.94172 
0.949419 1.82865 2.22403 0.248552 1.77559 3.33319 0.848168 2.75604 2.36159 
3.52816 3.59912 2.35108 1.31336 0.416544 3.341 1.67919 3.25419 3.34143 
4.74257 1.81223 2.09938 2.77323 1.00529 3.32405 1.28284 1.62391 3.16122 
0.299793 0.532471 3.85919 0.438665 0.043509 3.11008 2.06282 1.37692 3.00384 
1.34296 2.47753 3.07879 2.18846 1.47154 3.97311 4.48656 3.8885 2.65829 
2.27892 2.75469 2.61922 1.94453 4.95719 2.03431 0.247794 3.89142 3.21044 
1.17736 3.68044 2.73388 1.76247 4.40418 3.82009 4.56392 2.54809 2.82018 
3.46381 2.43187 2.57557 0.786585 3.29102 3.41583 4.09489 3.54496 3.88234 
4.71392 1.17483 2.6518 4.73331 0.147489 3.6 3.70183 4.86007 2.72128 
2.6617 2.48923 3.89652 3.87319 0.324235 2.79287 2.94924 0.238806 2.48886 
2.94696 4.20293 2.33721 0.32624 3.38559 2.54242 2.7677 3.59991 2.93904 
3.97419 3.03154 3.04072 0.66788 4.39733 2.36179 0.891781 4.66565 3.75366 
4.76461 3.37978 3.43721 3.85805 1.9598 3.48379 3.49294 1.17981 2.91391 
3.31127 3.21048 3.42305 4.16296 0.915712 3.37858 4.20489 3.22062 2.08904 
4.28889 4.43417 3.16487 4.27945 4.65905 2.09908 4.3967 4.37585 3.97538 
4.2329 2.495 4.15703 3.30619 2.88397 5.64527 4.61943 1.68661 4.48221 
4.86978 2.7661 4.82599 2.30616 2.91918 5.77402 0.7423 2.3296 4.49248 
0.205953 0.111143 4.74915 3.81104 1.20401 4.11121 1.89624 1.74445 5.16063 
0.737749 1.7024 5.86599 1.02343 2.12063 5.16669 0.239972 0.879942 5.82579 
1.38574 2.91791 5.23401 1.69719 3.33736 4.15087 1.67332 2.4473 4.157 
1.23058 1.1036 4.78069 0.572783 1.36647 5.03112 1.90343 2.49398 4.9956 
0.669967 1.59774 4.12081 2.11646 3.76193 5.39823 4.51201 1.03199 5.11156 
2.74079 0.292907 4.22547 1.55293 3.64866 4.891 0.976459 0.289648 5.01956 
4.12261 4.84752 4.45847 0.428377 2.93148 4.17202 0.607155 3.07723 5.19313 
2.46899 4.96668 5.52981 3.74004 0.396217 5.63025 4.38424 2.33945 5.86344 
4.78455 0.338709 5.6203 3.92857 3.03429 4.63349 3.20308 1.83003 4.52624 
3.51372 1.85463 5.82807 4.22871 0.308434 4.63146 3.36485 0.901996 4.87812 
1.42882 4.49105 4.90884 1.1142 3.84658 4.11466 4.48921 1.40339 5.85725 
0.542874 4.96034 4.99558 2.75091 3.63277 4.81296 2.67114 1.36843 5.29239 
0.500028 4.02235 4.63956 4.14571 4.32973 5.20954 3.07492 2.87355 4.69297 
3.6372 4.99761 5.41898 0.855486 4.02779 5.54686 2.73167 4.43565 4.53803 
2.97498 3.77903 5.78107 4.06741 2.26557 5.11468 1.36716 2.59366 7.12026 
0.818844 2.37813 6.19987 1.34776 1.51218 6.16711 3.17115 2.23429 6.5629 
3.79471 0.316776 6.97547 1.13386 0.0372617 7.46666 1.67005 3.63205 6.06453 
3.59107 4.65962 6.2937 1.64035 3.50473 6.89311 4.80241 2.58295 7.37159 
0.98872 1.9584 7.86741 0.428689 3.00158 6.17334 1.54598 3.43458 7.79987 
0.78983 0.38996 6.62742 4.27475 4.95113 6.92045 0.231518 1.55441 6.85193 
2.49525 3.37032 6.59481 4.63107 3.64243 6.15553 0.505673 0.607082 7.65647 
3.84014 3.96595 6.12377 1.85993 0.970385 6.10315 3.21003 4.62883 7.11913 
2.56501 2.08639 7.32487 3.83787 4.89074 7.80215 2.49173 3.18288 7.5461 
4.64871 2.01395 6.63301 0.448994 1.01248 6.9998 0.761339 3.33644 7.27915 
1.31163 1.31647 7.03668 2.6752 1.34235 7.93106 3.37642 3.18509 6.73148 
4.17015 1.59795 7.56337 2.58619 0.791057 6.05015 1.67623 4.30495 7.27356 
3.00893 0.211433 7.57741 4.61259 3.59171 7.11761 2.70135 4.45373 6.2634 
0.504385 4.18634 7.58296 2.56371 0.873239 7.26009 3.93881 1.44136 6.58738 
2.43873 4.91915 7.68034 4.49789 1.12303 7.289 1.8206 4.56349 6.29852 
0.31615 4.94449 7.31463 3.52775 2.01007 7.40277 2.67876 0.112046 6.64573 
4.86374 4.41861 6.81234 0.586742 3.77062 6.456 1.12546 4.82947 6.7842 
1.76911 1.65786 9.46695 4.74475 1.21936 9.98113 1.55055 2.31125 9.72145 
0.811208 0.636203 9.1355 0.764294 1.43434 9.49652 2.18961 4.90582 9.51969 
2.0769 1.07398 8.87595 3.40176 4.36614 8.53161 1.34203 0.285015 8.66214 
2.36784 3.03774 8.4359 0.379446 2.58511 8.33159 4.897 1.78386 8.22419 
0.0589172 2.11474 9.98314 1.71268 1.35082 8.22415 1.03599 0.944536 9.97596 
2.44073 2.59185 9.20373 3.1763 1.85831 9.20053 4.45275 0.792284 9.12541 
0.7237 1.92347 8.77487 2.08838 3.39741 9.30431 3.70829 2.78612 8.92919 
3.06303 1.08995 8.66467 3.27341 4.24451 9.7873 1.5695 0.496128 9.62284 
2.18198 0.208863 8.31106 1.72661 3.93421 9.85721 2.31676 4.45917 8.61068 
3.80092 0.898365 8.22374 1.31574 3.0785 9.68663 2.34995 0.836598 9.5089 
1.39635 3.16651 8.7429 0.136684 3.84245 9.18984 0.696334 4.20087 8.42692 
0.441324 3.0074 9.53313 3.60558 3.69146 9.12572 4.01581 1.61523 9.58012 
1.45553 4.4776 9.35933 3.02546 2.29612 9.82164 4.60501 2.54984 8.4064 
3.88072 3.72656 8.02028 0.745628 3.41452 8.72575 2.69004 4.17208 9.09308 
1.47966 4.25621 8.19817 0.11492 4.85359 9.48728 2.86032 2.29297 8.27124 
4.61884 3.86092 8.52641 4.91335 4.59196 9.55723 0.446362 0.00028415 8.51584 
1.28292 8.95101 0.670069 2.59219 9.82866 0.955437 4.02811 8.44851 0.557246 
3.88247 5.16094 1.61388 0.331191 5.88449 1.71103 0.748192 9.94014 1.40747 
3.00087 6.84405 0.38909 2.38211 7.67825 1.19604 -0.0635524 8.20829 1.83229 
1.68994 5.03544 1.03082 0.312196 8.55844 0.205631 4.62106 9.33643 0.095006 
1.60352 9.65067 1.27014 4.74157 6.7046 0.155341 4.4105 7.26534 0.672331 
3.69363 5.95867 0.666562 0.639611 6.61281 0.146745 1.3363 6.0921 1.98367 
0.295925 9.35313 0.740161 4.43869 5.9518 0.350849 0.00754953 9.12059 1.71927 
2.70976 6.40848 1.04796 0.528286 8.65278 1.21725 3.93945 9.36096 0.770321 
3.06098 5.6581 1.06506 3.53809 8.33107 1.46027 2.19417 6.66804 0.131495 
1.38234 9.83184 0.336062 4.14046 6.72146 1.34533 2.07591 6.74163 1.52027 
2.24268 5.41514 0.362505 0.802507 8.17602 1.98191 3.51835 5.74429 1.915 
0.683872 5.62901 0.626976 3.38317 5.07941 0.520643 2.14143 7.5274 0.226503 
0.576807 7.89562 0.52283 2.67434 9.09684 1.7634 2.31267 5.99323 1.92348 
0.864895 5.05018 1.5121 0.436213 6.74576 1.23933 3.03287 7.6595 0.0268283 
0.74701 7.68421 1.28368 1.46953 6.54587 0.681002 4.40709 5.93408 1.28385 
4.38786 8.31158 1.52551 4.85531 8.18581 0.57861 1.85833 9.5072 3.33546 
4.64908 6.57174 3.71534 1.06659 5.24357 2.40281 0.964357 8.46811 2.86531 
4.60672 6.64111 2.83613 4.35168 9.27507 3.81228 3.80629 5.8459 3.76844 
0.452634 9.63097 2.4408 -0.0181273 9.66612 3.94807 0.491421 8.39839 3.64106 
4.32391 5.22398 3.56773 3.43985 7.63004 2.61414 2.78353 7.86395 2.13769 
-0.0571978 6.528 2.27709 4.04567 8.29419 3.79306 1.77464 7.78029 2.47741 
1.57273 8.01584 3.39195 2.81701 9.83412 3.34638 1.97204 6.93092 2.48165 
2.34391 8.86946 3.73853 3.07698 9.3218 2.5859 1.10829 9.76522 2.61724 
2.97529 6.89727 2.0682 1.24773 7.16881 3.80794 2.65787 7.41462 3.17402 
4.15446 7.46468 3.02549 0.917068 9.41573 3.55881 4.23401 8.45317 2.88645 
2.98641 5.3933 3.75373 1.11728 9.07086 2.0464 3.99087 9.44903 2.92793 
4.17629 5.70755 2.71403 3.11333 7.55309 3.90366 1.1886 6.35735 2.97961 
2.23314 6.43977 3.33375 1.44746 5.59885 3.3006 2.00995 5.02946 3.00846 
3.89809 6.65223 2.22295 3.85246 6.51741 3.18595 3.79244 9.13206 2.01195 
0.416989 5.67918 3.26537 2.79448 5.0477 2.5049 4.91509 7.25829 2.42627 
4.89507 8.71794 3.99947 3.35805 5.24949 4.5915 3.49427 6.89432 5.0432 
1.93452 9.70151 4.72126 1.72024 9.91958 5.66196 4.20931 7.8232 5.96791 
0.163697 8.46811 5.32897 4.06912 6.13069 4.97265 3.19728 6.00196 5.8456 
0.806846 9.41688 5.39878 4.47647 5.94586 5.69782 0.522542 6.08717 4.47092 
1.11872 7.70127 5.3019 0.926552 9.52715 4.44773 3.03191 8.31525 4.00321 
3.21622 6.06377 4.62406 1.32097 6.993 4.72943 0.751737 6.41614 5.51797 
4.16773 9.19147 5.6498 3.68076 8.15433 5.71867 4.83357 7.81304 5.62748 
0.485375 8.6301 4.50338 3.29764 9.31266 5.50974 1.29903 5.02537 5.65866 
0.0926382 9.48911 5.82136 0.217779 7.74405 4.84532 1.38655 6.18564 4.50887 
3.85566 8.67395 4.83856 3.6403 6.85628 4.05755 2.25979 6.86095 4.12367 
2.36053 5.98288 5.66752 0.404521 7.75025 5.91183 3.13855 9.19763 4.43591 
1.27477 8.88043 5.50788 2.40643 5.93658 4.10471 1.418 5.94529 5.57609 
2.05707 5.97253 4.90733 1.29931 8.3255 4.21201 0.237081 5.20809 4.12471 
2.05954 7.66122 4.1163 2.33917 5.14377 4.60719 4.60227 7.03408 5.23398 
4.65704 5.28141 5.12509 4.67952 8.68956 5.48701 4.73817 7.50929 4.35261 
4.76012 6.69533 4.46809 4.79929 9.94556 4.46778 3.08521 6.60661 7.05119 
2.67503 7.62605 6.41288 3.90828 6.46613 6.88302 3.01446 8.77426 7.94638 
0.762877 9.51261 6.46541 4.70754 5.81865 6.58383 2.73747 7.75223 7.78482 
0.364186 8.63145 6.12457 4.449 8.2816 7.37357 -0.0343745 7.87041 7.26997 
[...]
POINT_DATA 1000
FIELD FieldData 7
id 1 1000 int
697 21 903 531 66 587 703 400 388 
581 103 800 182 898 463 943 506 425 
32 461 373 342 102 538 224 17 530 
819 772 982 881 920 415 583 637 559 
796 275 293 770 808 360 871 579 517 
650 40 758 134 755 882 228 421 606 
273 212 932 869 257 623 316 548 954 
434 513 416 974 277 391 774 836 39 
761 297 382 784 653 756 785 208 675 
828 370 12 231 773 369 629 193 6 
764 729 730 555 759 644 939 914 889 
689 147 159 430 902 62 465 682 420 
948 243 973 271 69 806 454 944 751 
771 716 719 439 358 646 204 539 19 
304 854 216 289 714 200 178 80 245 
746 67 568 79 956 654 235 497 498 
408 451 262 942 511 234 611 909 679 
529 616 641 658 291 198 260 329 668 
303 547 737 152 661 888 738 565 727 
837 524 220 846 890 387 503 259 263 
876 116 862 314 4 237 272 270 225 
754 129 326 797 65 424 476 313 227 
927 282 347 53 924 437 288 217 930 
42 562 820 323 842 317 34 403 41 
619 241 766 760 226 749 865 899 120 
526 354 935 372 849 376 306 783 835 
908 662 267 232 308 672 106 110 27 
30 339 839 56 258 567 446 857 11 
822 840 979 248 879 242 104 620 655 
362 160 712 161 230 203 20 685 350 
426 82 435 337 92 486 244 114 172 
817 723 589 545 788 981 739 552 175 
866 928 969 699 199 90 136 833 575 
791 5 441 3 782 821 471 457 133 
698 959 405 853 210 615 494 179 470 
978 469 48 553 145 491 878 515 815 
810 884 131 483 213 496 218 614 753 
156 971 915 994 322 999 309 186 960 
546 590 690 209 925 122 345 126 140 
324 711 338 540 824 617 926 856 68 
440 398 8 818 477 436 481 274 816 
577 976 883 1 841 268 331 855 169 
215 334 432 728 26 154 143 98 197 
910 45 550 443 799 381 844 664 76 
744 870 325 724 732 561 50 752 695 
107 537 688 356 996 246 848 965 748 
180 793 508 912 74 499 320 652 628 
377 947 588 31 189 977 681 843 475 
651 445 478 778 211 626 77 321 845 
394 281 501 649 468 634 532 239 642 
825 125 571 544 891 963 790 970 707 
946 344 305 673 986 295 87 599 612 
484 71 607 990 713 718 591 625 694 
706 312 726 972 850 397 636 826 485 
907 196 127 598 627 787 108 1000 91 
487 264 804 680 10 318 392 130 359 
78 86 118 15 138 574 621 747 933 
731 585 431 864 16 95 789 100 490 
779 319 921 455 677 96 142 254 249 
886 35 919 600 101 151 36 346 803 
361 371 493 554 901 720 523 473 659 
365 389 298 807 678 805 814 18 519 
280 429 937 427 905 507 157 163 667 
112 340 279 488 868 222 717 767 613 
348 521 206 94 364 722 827 594 514 
374 409 418 428 741 708 240 366 584 
873 918 299 543 123 743 705 725 522 
867 750 510 7 146 411 236 456 383 
25 385 858 149 895 256 564 117 33 
586 900 307 38 247 951 643 795 278 
23 823 929 467 557 396 352 399 573 
648 968 861 448 569 734 509 460 47 
190 384 608 863 195 251 860 148 2 
351 233 966 896 527 327 829 449 502 
284 187 250 962 379 852 740 406 516 
201 813 229 809 89 269 762 832 572 
9 580 633 775 265 647 413 802 776 
368 139 958 533 566 786 656 255 495 
335 609 311 838 46 310 992 995 563 
597 343 596 380 872 592 223 52 745 
402 674 480 916 99 135 618 777 302 
285 535 765 88 798 885 423 390 462 
162 85 949 386 812 328 518 605 983 
115 83 407 113 541 292 763 70 166 
60 578 165 330 512 904 582 570 859 
604 13 144 781 794 923 22 301 663 
37 632 452 665 709 704 906 980 121 
733 880 266 417 676 221 595 75 61 
897 984 410 378 194 576 542 466 357 
173 917 192 528 401 404 202 913 593 
696 692 450 975 419 341 109 153 158 
631 602 520 988 887 81 684 54 936 
691 349 922 938 961 991 167 164 536 
505 453 952 710 715 333 993 549 433 
769 940 72 987 603 780 290 283 875 
792 137 214 830 59 556 55 332 29 
834 742 458 286 686 534 700 84 683 
24 300 464 693 945 671 188 931 472 
736 124 474 184 893 57 941 701 412 
14 500 261 49 43 253 989 438 207 
111 801 630 657 504 181 185 955 28 
287 669 170 150 660 191 395 459 93 
479 105 51 177 422 635 666 670 155 
363 353 132 336 953 847 964 934 735 
894 551 831 601 877 355 967 638 985 
44 997 128 768 205 252 610 238 874 
176 97 525 702 892 721 276 640 294 
296 447 492 393 482 375 851 141 119 
757 442 58 73 811 639 64 168 950 
998 622 174 957 171 687 315 183 558 
219 444 560 911 624 645 367 489 414 
63 
type 1 1000 int
2 1 2 2 1 2 2 1 1 
2 1 2 1 2 1 2 2 1 
1 1 1 1 1 2 1 1 2 
2 2 2 2 2 1 2 2 2 
2 1 1 2 2 1 2 2 2 
2 1 2 1 2 2 1 1 2 
1 1 2 2 1 2 1 2 2 
1 2 1 2 1 1 2 2 1 
2 1 1 2 2 2 2 1 2 
2 1 1 1 2 1 2 1 1 
2 2 2 2 2 2 2 2 2 
2 1 1 1 2 1 1 2 1 
2 1 2 1 1 2 1 2 2 
2 2 2 1 1 2 1 2 1 
1 2 1 1 2 1 1 1 1 
2 1 2 1 2 2 1 1 1 
1 1 1 2 2 1 2 2 2 
2 2 2 2 1 1 1 1 2 
1 2 2 1 2 2 2 2 2 
2 2 1 2 2 1 2 1 1 
2 1 2 1 1 1 1 1 1 
2 1 1 2 1 1 1 1 1 
2 1 1 1 2 1 1 1 2 
1 2 2 1 2 1 1 1 1 
2 1 2 2 1 2 2 2 1 
2 1 2 1 2 1 1 2 2 
2 2 1 1 1 2 1 1 1 
1 1 2 1 1 2 1 2 1 
2 2 2 1 2 1 1 2 2 
1 1 2 1 1 1 1 2 1 
1 1 1 1 1 1 1 1 1 
2 2 2 2 2 2 2 2 1 
2 2 2 2 1 1 1 2 2 
2 1 1 1 2 2 1 1 1 
2 2 1 2 1 2 1 1 1 
2 1 1 2 1 1 2 2 2 
2 2 1 1 1 1 1 2 2 
1 2 2 2 1 2 1 1 2 
2 2 2 1 2 1 1 1 1 
1 2 1 2 2 2 2 2 1 
1 1 1 2 1 1 1 1 2 
2 2 2 1 2 1 1 2 1 
1 1 1 2 1 1 1 1 1 
2 1 2 1 2 1 2 2 1 
2 2 1 2 2 2 1 2 2 
1 2 2 1 2 1 2 2 2 
1 2 2 2 1 1 1 2 2 
1 2 2 1 1 2 2 2 1 
2 1 1 2 1 2 1 1 2 
1 1 2 2 1 2 2 1 2 
2 1 2 2 2 2 2 2 2 
2 1 1 2 2 1 1 2 2 
1 1 2 2 2 2 2 2 2 
2 1 2 2 2 1 2 2 1 
2 1 1 2 2 2 1 2 1 
1 1 2 2 1 1 1 1 1 
1 1 1 1 1 2 2 2 2 
2 2 1 2 1 1 2 1 1 
2 1 2 1 2 1 1 1 1 
2 1 2 2 1 1 1 1 2 
1 1 1 2 2 2 2 1 2 
1 1 1 2 2 2 2 1 2 
1 1 2 1 2 2 1 1 2 
1 1 1 1 2 1 2 2 2 
1 2 1 1 1 2 2 2 2 
1 1 1 1 2 2 1 1 2 
2 2 1 2 1 2 2 2 2 
2 2 2 1 1 1 1 1 1 
1 1 2 1 2 1 2 1 1 
2 2 1 1 1 2 2 2 1 
1 2 2 1 2 1 1 1 2 
2 2 2 1 2 2 2 1 1 
1 1 2 2 1 1 2 1 1 
1 1 2 2 2 1 2 1 2 
1 1 1 2 1 2 2 1 2 
1 2 1 2 1 1 2 2 2 
1 2 2 2 1 2 1 2 2 
1 1 2 2 2 2 2 1 1 
1 2 1 2 1 1 2 2 2 
2 1 2 1 2 2 1 1 2 
1 2 1 2 1 1 2 2 1 
1 2 2 1 2 2 1 1 1 
1 1 2 1 2 1 2 2 2 
1 1 1 1 2 1 2 1 1 
1 2 1 1 2 2 2 2 2 
2 1 1 2 2 2 1 1 2 
1 2 1 2 2 2 2 2 1 
2 2 1 1 2 1 2 1 1 
2 2 1 1 1 2 2 1 1 
1 2 1 2 1 1 1 2 2 
2 2 1 2 1 1 1 1 1 
2 2 2 2 2 1 2 1 2 
2 1 2 2 2 2 1 1 2 
2 1 2 2 2 1 2 2 1 
2 2 1 2 2 2 1 1 2 
2 1 1 2 1 2 1 1 1 
2 2 1 1 2 2 2 1 2 
1 1 1 2 2 2 1 2 1 
2 1 1 1 2 1 2 2 1 
1 1 1 1 1 1 2 1 1 
1 2 2 2 2 1 1 2 1 
1 2 1 1 2 1 1 1 1 
1 1 1 1 1 2 2 2 1 
1 1 1 1 2 2 2 2 2 
2 2 2 2 2 1 2 2 2 
1 2 1 2 1 1 2 1 2 
1 1 2 2 2 2 1 2 1 
1 1 1 1 1 1 2 1 1 
2 1 1 1 2 2 1 1 2 
2 2 1 2 1 2 1 1 2 
1 1 2 2 2 2 1 1 1 
1 
i 3 1000 int
-16 0 0 -49 0 0 -8 0 0 
-19 0 0 -10 0 1 -15 0 1 
-46 0 1 -19 0 0 -34 0 1 
4 0 1 -1 0 0 66 1 0 
30 1 0 -15 0 0 47 1 1 
-10 0 0 -17 0 0 -29 0 0 
67 1 0 58 1 0 -17 0 0 
-8 0 1 1 0 0 64 1 0 
-39 0 1 -32 0 1 -8 0 1 
-11 0 1 -13 0 1 -4 0 0 
1 0 0 -38 0 1 4 0 0 
-19 0 1 -15 0 1 -54 0 1 
6 0 0 -9 0 0 -39 0 0 
-23 0 0 31 1 0 -34 0 1 
-8 0 0 -9 0 0 -17 0 0 
-6 0 0 -5 0 1 -22 0 0 
-14 0 1 -27 0 0 -7 0 0 
-40 0 1 37 1 0 -24 0 0 
-40 0 1 67 1 0 -4 0 0 
-19 0 0 -6 0 0 -13 0 1 
-38 0 0 -30 0 0 33 1 0 
-24 0 0 -20 0 0 -16 0 0 
106 1 1 -55 0 1 0 0 0 
-18 0 1 49 1 0 -31 0 0 
-35 0 0 42 1 0 -23 0 0 
-32 0 1 64 1 0 -10 0 1 
73 1 0 4 0 0 -3 0 0 
-17 0 1 -2 0 0 -37 0 0 
-23 0 1 -7 0 0 -12 0 0 
-33 0 0 41 1 0 -7 0 0 
-32 0 1 46 1 1 -49 0 0 
-6 0 0 -12 0 0 86 1 0 
0 0 0 -5 0 0 1 0 0 
-18 0 0 -45 0 0 49 1 0 
-9 0 0 31 1 0 -16 0 0 
6 0 0 -4 0 0 9 0 0 
48 1 0 -14 0 0 -13 0 0 
-46 0 0 -17 0 0 -39 0 0 
43 1 0 -25 0 0 49 1 0 
-28 0 -1 -31 0 0 41 1 0 
-6 0 0 -5 0 0 -11 0 0 
-57 0 0 -35 0 0 -26 0 0 
-18 0 0 -9 0 0 -32 0 0 
-58 0 -1 90 1 0 -58 0 0 
8 0 0 -3 0 0 -14 0 0 
2 0 0 64 1 0 -14 0 0 
-12 0 0 -26 0 0 -40 0 1 
-16 0 0 53 1 0 81 1 0 
-6 0 0 3 0 0 -44 0 0 
8 0 0 -12 0 -1 -24 0 0 
-3 0 0 2 0 0 -6 0 0 
-5 0 0 -2 0 0 -8 0 0 
-4 0 0 -17 0 0 -2 0 0 
-46 0 0 -22 0 0 -9 0 0 
21 1 0 49 1 0 -5 0 0 
-4 0 0 -8 0 -1 77 1 0 
65 1 0 -10 0 0 -32 0 0 
-49 0 0 -13 0 0 62 1 0 
-4 0 0 0 0 0 -38 0 -1 
-17 0 0 -29 0 -1 -9 0 0 
-7 0 0 -3 0 0 -30 0 0 
-18 0 0 -56 0 -1 -8 0 0 
-47 0 -1 -23 0 0 -12 0 0 
-20 0 0 -36 0 0 6 0 0 
66 1 -1 0 0 0 3 0 0 
5 0 0 -30 0 0 -22 0 0 
2 0 0 46 1 -1 2 0 0 
5 0 0 -15 0 0 -41 0 0 
7 0 -1 -10 0 0 -8 0 0 
-30 0 0 37 1 0 -21 0 -1 
-22 0 -1 -21 0 0 -10 0 0 
61 1 0 5 0 -1 -43 0 -1 
-6 0 0 72 1 0 -14 0 0 
-16 0 0 -26 0 0 -71 0 0 
-20 0 -1 -30 0 -1 -36 0 -1 
-29 0 0 -8 0 0 -8 0 0 
-21 0 0 -10 0 0 -22 0 -1 
41 1 -1 -12 0 0 -5 0 0 
-22 0 0 -7 0 0 -50 0 0 
-12 0 0 -4 0 0 -14 0 -1 
-12 0 -1 -6 0 0 -25 0 0 
-3 0 0 -8 0 0 -20 0 0 
-11 0 0 -24 0 0 -2 0 0 
-11 0 0 3 0 -1 -14 0 -1 
-5 0 0 -6 0 0 25 1 0 
-70 -1 1 51 0 1 -47 -1 1 
-4 0 1 -1 0 0 -69 -1 1 
-14 0 0 27 0 0 28 0 0 
-3 0 1 43 0 1 -36 -1 0 
-68 -1 0 10 0 1 11 0 1 
25 0 0 10 0 0 2 0 0 
47 0 0 2 0 1 33 0 1 
-92 -1 0 -76 -1 0 -47 -1 0 
-1 0 0 16 0 0 16 0 1 
46 0 0 18 0 0 20 0 0 
3 0 1 22 0 0 11 0 0 
3 0 0 -5 0 0 27 0 0 
10 0 0 -78 -1 0 3 0 0 
-15 0 0 12 0 0 52 0 0 
10 0 0 3 0 0 12 0 1 
32 0 1 39 0 0 50 0 0 
18 0 0 2 0 0 31 0 1 
13 0 0 38 0 0 -6 0 0 
19 0 0 38 0 0 51 0 0 
5 0 0 36 0 0 24 0 0 
11 0 0 37 0 0 25 0 0 
-73 -1 1 42 0 0 15 0 0 
33 0 0 -52 -1 0 25 0 0 
28 0 0 23 0 0 18 0 0 
22 0 0 45 0 0 55 0 1 
19 0 0 20 0 1 31 0 1 
22 0 0 23 0 0 8 0 0 
19 0 0 6 0 0 -9 0 0 
16 0 0 19 0 0 45 0 1 
-3 0 0 4 0 0 3 0 0 
-54 -1 0 1 0 0 19 0 0 
29 0 0 35 0 -1 49 0 0 
16 0 0 21 0 0 9 0 0 
-60 -1 0 0 0 0 27 0 1 
8 0 0 -41 -1 0 26 0 0 
11 0 0 15 0 0 -1 0 0 
41 0 0 16 0 0 11 0 0 
30 0 -1 -36 -1 -1 -5 0 0 
47 0 -1 23 0 0 7 0 0 
-58 -1 -1 26 0 0 8 0 0 
2 0 0 -57 -1 0 36 0 0 
12 0 0 9 0 0 8 0 0 
13 0 0 45 0 0 2 0 0 
9 0 0 5 0 0 18 0 0 
-15 0 0 37 0 0 20 0 0 
13 0 0 52 0 0 6 0 0 
20 0 0 7 0 0 20 0 0 
27 0 0 2 0 0 22 0 -1 
-60 -1 0 -67 -1 1 25 0 0 
3 0 0 6 0 -1 18 0 0 
-41 -1 0 33 0 0 7 0 0 
9 0 0 6 0 -1 69 0 0 
-48 -1 1 -4 0 -1 32 0 -1 
9 0 0 41 0 -1 -62 -1 0 
16 0 -1 18 0 0 6 0 0 
1 0 0 5 0 0 6 0 0 
-62 -1 1 11 0 0 1 0 0 
34 0 0 27 0 0 22 0 0 
-1 0 0 7 0 0 13 0 0 
18 0 -1 1 0 0 12 0 0 
-62 -1 1 29 0 0 4 0 -1 
39 0 0 11 0 -1 -14 0 0 
15 0 -1 16 0 -1 6 0 0 
-11 0 0 11 0 0 27 0 -1 
25 0 -1 -55 -1 0 -52 -1 0 
33 0 -1 -50 -1 0 5 0 0 
-5 0 0 5 0 -1 21 0 0 
-31 -1 0 64 0 -1 -94 -1 -1 
10 0 0 2 0 0 22 0 -1 
25 0 -1 26 0 0 27 0 0 
6 0 0 3 0 -1 5 0 0 
20 0 0 1 0 0 5 0 0 
1 0 -1 -53 -1 0 -31 -1 0 
-46 -1 0 5 0 -1 -65 -1 0 
28 0 0 0 0 0 43 0 0 
16 0 -1 27 0 0 16 0 -1 
-28 0 1 51 1 0 -32 0 1 
-6 0 0 73 1 0 -20 0 1 
-9 0 1 -2 0 0 -25 0 1 
-23 0 1 -25 0 0 1 0 0 
-36 0 0 -2 0 0 -60 0 0 
-25 0 0 -25 0 1 -13 0 1 
-12 0 0 -8 0 0 -7 0 0 
8 0 1 -13 0 1 50 1 1 
-26 0 1 -7 0 1 -4 0 1 
2 0 0 -57 0 1 -2 0 0 
99 1 0 -16 0 1 -24 0 0 
-11 0 1 -40 0 0 -4 0 0 
-39 0 0 -4 0 0 -39 0 0 
-5 0 0 0 0 0 -21 0 1 
4 0 0 -8 0 1 -11 0 1 
-23 0 0 6 0 0 -31 0 1 
70 1 0 -38 0 1 -2 0 0 
-4 0 1 -5 0 0 -16 0 0 
-38 0 0 47 1 0 34 1 0 
-9 0 0 -11 0 0 48 1 0 
-16 0 0 -25 0 0 2 0 0 
-23 0 1 2 0 0 -8 0 0 
-52 0 0 -16 0 0 -41 0 0 
-11 0 0 -5 0 0 -36 0 0 
-32 0 1 -8 0 0 -10 0 0 
-28 0 0 -15 0 0 -8 0 0 
0 0 0 -8 0 0 -24 0 0 
-5 0 0 38 1 0 -40 0 0 
-1 0 0 -6 0 0 102 1 0 
-46 0 1 -17 0 1 82 1 0 
-28 0 0 -20 0 0 -8 0 0 
-5 0 0 3 0 0 -22 0 0 
-15 0 0 -7 0 0 -36 0 0 
-11 0 0 -22 0 0 -17 0 0 
-4 0 0 94 1 0 -20 0 0 
-13 0 0 -57 0 0 -46 0 0 
-38 0 0 -5 0 0 -14 0 0 
-15 0 0 -10 0 0 -14 0 0 
-33 0 0 -26 0 0 -17 0 0 
0 0 0 -4 0 0 -6 0 0 
-23 0 0 -28 0 0 -15 0 0 
-7 0 0 -3 0 0 -16 0 0 
-29 0 0 -2 0 0 -8 0 0 
-36 0 0 -69 0 0 -2 0 0 
-3 0 0 -44 0 0 -14 0 0 
-2 0 0 -21 0 0 62 1 0 
42 1 0 -13 0 0 48 1 0 
-32 0 0 -40 0 0 -5 0 0 
-24 0 0 -39 0 -1 57 1 -1 
-21 0 0 66 1 -1 -5 0 0 
72 1 0 28 1 0 -8 0 0 
-11 0 0 -29 0 -1 -13 0 0 
46 1 0 55 1 0 1 0 0 
-4 0 0 79 1 -1 -16 0 0 
-26 0 0 1 0 0 -25 0 0 
-17 0 0 -25 0 0 -5 0 0 
-19 0 0 -32 0 0 -7 0 0 
2 0 0 -10 0 0 2 0 0 
-6 0 0 -16 0 0 0 0 0 
-1 0 -1 0 0 0 1 0 0 
1 0 0 -2 0 0 -32 0 0 
-55 0 0 -27 0 0 -7 0 0 
-3 0 0 -17 0 0 -41 0 0 
-24 0 0 -24 0 0 -54 0 0 
-28 0 0 65 1 0 -17 0 0 
45 1 -1 -18 0 0 -43 0 0 
-43 0 -1 -13 0 -1 -16 0 0 
64 1 -1 49 1 0 -38 0 0 
-40 0 -1 -14 0 0 -20 0 -1 
-26 0 -1 -7 0 0 -28 0 0 
-14 0 -1 -9 0 0 46 1 0 
73 1 -1 56 1 0 -35 0 1 
-27 0 0 -12 0 0 -18 0 0 
-24 0 0 -5 0 -1 3 0 0 
-2 0 0 46 1 0 -9 0 0 
-50 0 0 -28 0 0 -5 0 0 
-16 0 0 -8 0 0 -22 0 0 
-16 0 0 -5 0 -1 0 0 -1 
-12 0 -1 77 1 0 4 0 0 
-52 0 0 -4 0 -1 -16 0 0 
-20 0 -1 -12 0 -1 -14 0 -1 
-6 0 0 -41 0 -1 38 0 1 
44 0 0 44 0 1 48 0 0 
9 0 1 -40 -1 0 3 0 0 
-40 -1 0 8 0 0 54 0 0 
25 0 0 31 0 1 39 0 1 
14 0 0 14 0 1 -2 0 0 
-32 -1 0 5 0 0 13 0 0 
11 0 0 33 0 1 13 0 0 
5 0 0 21 0 0 -77 -1 0 
3 0 1 15 0 1 5 0 0 
1 0 1 19 0 0 30 0 0 
10 0 0 4 0 0 12 0 0 
10 0 0 -37 -1 1 -33 -1 1 
11 0 1 -26 0 0 -10 0 0 
35 0 1 42 0 0 10 0 0 
23 0 0 38 0 0 16 0 1 
-79 -1 0 11 0 0 8 0 0 
3 0 1 33 0 1 54 0 0 
13 0 0 36 0 1 50 0 0 
62 0 0 18 0 0 -45 -1 0 
13 0 0 40 0 -1 22 0 0 
24 0 1 14 0 1 -54 -1 1 
8 0 0 41 0 1 -1 0 0 
-25 -1 1 -70 -1 0 40 0 0 
-70 -1 1 19 0 0 -46 -1 1 
39 0 0 10 0 0 12 0 0 
2 0 0 24 0 0 8 0 0 
33 0 0 0 0 0 7 0 1 
9 0 0 35 0 0 4 0 0 
43 0 1 11 0 0 13 0 0 
3 0 0 12 0 0 2 0 0 
7 0 0 34 0 0 21 0 0 
22 0 0 23 0 0 10 0 1 
29 0 0 0 0 1 2 0 0 
19 0 0 13 0 0 11 0 0 
7 0 0 3 0 0 28 0 0 
38 0 0 12 0 0 -59 -1 0 
-22 -1 0 9 0 0 14 0 0 
31 0 0 54 0 0 7 0 0 
11 0 0 -61 -1 0 36 0 -1 
18 0 0 14 0 0 33 0 0 
21 0 0 36 0 0 -72 -1 0 
45 0 0 -47 -1 0 20 0 0 
19 0 0 -63 -1 0 2 0 0 
34 0 -1 14 0 0 28 0 0 
20 0 0 -33 -1 0 17 0 0 
9 0 0 14 0 -1 6 0 0 
38 0 0 13 0 0 11 0 0 
16 0 0 41 0 1 -1 0 0 
53 0 -1 37 0 -1 2 0 0 
17 0 0 13 0 0 3 0 0 
10 0 0 2 0 0 11 0 0 
-55 -1 1 47 0 0 15 0 0 
21 0 0 3 0 0 40 0 0 
-9 0 0 10 0 0 -75 -1 0 
2 0 0 -3 0 0 -4 0 0 
8 0 0 -21 -1 0 -52 -1 0 
25 0 0 15 0 -1 43 0 1 
8 0 0 -71 -1 -1 15 0 0 
5 0 0 3 0 0 12 0 0 
2 0 0 5 0 0 3 0 0 
33 0 0 -80 -1 0 28 0 0 
24 0 -1 22 0 0 35 0 0 
4 0 0 -1 0 0 12 0 -1 
21 0 0 15 0 0 6 0 0 
26 0 0 -81 -1 -1 -44 -1 0 
19 0 0 -2 0 0 1 0 0 
0 0 -1 36 0 0 34 0 0 
31 0 0 10 0 0 0 0 0 
20 0 -1 11 0 0 15 0 0 
1 0 0 1 0 0 23 0 0 
11 0 0 64 0 0 17 0 0 
42 0 -1 -1 0 -1 14 0 0 
11 0 -1 7 0 0 4 0 0 
-35 -1 -2 -57 -1 -1 55 0 0 
10 0 -1 -52 -1 0 20 0 -1 
13 0 0 -3 0 0 -37 -1 -1 
52 0 0 21 0 -1 47 0 0 
-35 -1 0 -36 -1 0 22 0 0 
15 0 -1 17 0 0 -61 -1 0 
-10 0 -1 17 0 0 19 0 -1 
-33 -1 0 8 0 0 -6 0 -1 
41 0 0 4 0 -1 24 0 -1 
18 0 0 -2 0 0 29 0 0 
26 0 -1 0 0 0 9 0 -1 
-62 -1 0 2 0 -1 24 0 -1 
26 0 -1 -2 0 -1 24 0 0 
2 0 0 8 0 -1 7 0 0 
6 0 -1 9 0 0 13 0 0 
-61 -1 -1 10 0 -1 20 0 0 
26 0 -1 30 0 -1 27 0 -1 
21 0 -1 
v 3 1000 double
-183.26492139 -19.958741004 -11.295036532 -351.21201834 16.778119781 21.503982683 -174.66622832 -21.070635653 -9.6150046522 
-159.53364831 -1.9040004936 -15.080352589 -160.48376516 5.5561573909 -1.2819800435 -139.24997472 18.827644897 17.668221615 
-414.1827701 20.745972646 -33.747374484 -294.7381276 0.054911905889 0.27507524677 -404.15257804 -3.3132851511 22.365506129 
-93.670476171 -3.7679740759 3.6448677119 -21.605420356 2.0327514262 13.73747917 -363.33000679 17.583591943 -8.9693036528 
-503.08699728 -12.649484338 -41.962531166 -199.6781303 -3.2431840068 5.4525366956 -457.1526715 2.1035499512 -28.444265809 
-154.1469689 -3.8302865202 -0.67180545461 -277.89083548 8.0878605593 -8.3578324766 -378.63034142 -12.493657841 -40.702503303 
-339.94133425 18.710310747 25.010020246 -257.98154103 17.872591904 18.447226321 -365.0545593 -23.857690985 19.967774689 
-63.029316378 5.3910617982 0.13794381007 -142.62443518 11.048245712 3.8662852549 -185.37956339 15.625870653 -1.1698086203 
-282.53226634 -12.660884752 -4.8575463277 -414.35906699 -18.474831934 -5.4042630629 -112.79279028 15.785549592 -7.9409880062 
-227.04934737 -13.615101963 0.99101284467 -142.34504256 -20.957743477 -22.262162343 -27.978122762 4.6628713735 9.8304828466 
-56.973221771 6.0265686423 9.155189191 -370.97966164 -12.782564737 -23.234893916 -66.65617483 2.2647301861 -1.1953943115 
-177.64098064 11.638980413 -2.4942100276 -142.7124386 -1.8150646831 18.273119265 -260.14170043 -5.1331678728 -13.89053671 
-105.23251906 13.247947088 -4.04966218 -198.03594402 -18.693535107 -16.069804852 -229.15253464 -13.158266452 -7.930582215 
-258.46082855 5.1742702549 0.82166649924 -493.33197589 -7.4271803016 0.70501874585 -405.37863972 1.6884799513 -5.8609463037 
-45.319809373 -12.442544137 5.4596368682 -233.01591317 -2.0543339424 3.7207179295 -78.047961998 22.563289586 6.7847229734 
-80.078865625 -21.92041037 -16.384091869 -64.171344678 4.2728304681 15.538411242 -136.58538084 17.311420005 8.4184627381 
-164.67029954 6.1232553764 -8.8070828133 -202.08493145 -5.1678177069 8.1671471545 -138.4643525 6.7389274786 -1.4900092308 
-313.32370005 25.370807085 -18.173801742 -520.68023923 30.142162025 -6.5102869844 -409.36377872 13.441461695 1.5933157421 
-304.87085977 -1.0034113563 -12.729066014 -391.04146245 0.00044006474499 -1.2736057386 -134.81157096 7.6337412543 -9.2906847914 
-136.30864125 30.754837069 2.0539361719 -78.938610391 18.618029066 1.7693661181 -271.29995745 -25.455723062 -19.778854541 
-280.46265471 -29.877506104 4.9710900244 -280.65061609 -11.203681546 -13.563853254 -410.52024762 21.060055232 23.671904054 
-276.62207038 13.891984704 6.4715479079 -275.01405225 10.053124197 -10.318132665 -194.24265588 7.9393797327 -8.0119058809 
-109.34605488 -4.97167228 10.866664696 -466.18251345 15.664108585 -7.4739913087 -120.45476778 12.599744837 -13.403268492 
-288.8408903 11.154004707 1.7399135526 -309.49761817 -26.482710102 16.83089532 -277.76712927 -30.847177674 5.6532871095 
-409.29657366 -22.486626006 11.517376872 -487.51282498 8.2852934788 10.354070004 -273.17061153 -18.93850246 -8.886465146 
-207.13884667 2.5999494655 -0.25304780859 -295.54020148 -2.0202887522 7.7128343191 -87.82057519 -4.2114779593 -10.83003776 
-189.94776631 -8.5497922219 7.5887412751 11.361970029 -8.4693793693 -4.6425084094 -70.891728139 -0.20674739311 2.1382300866 
-114.75908529 28.468696977 -3.2363370558 -71.605542844 19.341516787 18.269235269 -199.06913582 -14.310545707 -20.11189914 
-244.47098581 11.177388976 16.31465028 -98.927031766 -29.628827086 7.6922000007 -132.47632144 1.8663165492 -2.6712058256 
-368.14423666 -2.6380081917 20.476938735 -464.32258823 13.856912213 -11.402294162 -15.969134224 7.7481882788 -12.262568752 
-239.92480179 2.8817106904 12.878729578 -482.50541101 3.1260701657 -2.2255199542 -492.50794837 -2.6585031309 -3.3229079115 
-42.184153128 -1.6903099306 17.718646062 -128.52916002 -8.0961162444 21.691998121 -124.23273351 -15.861852442 -7.040728791 
-164.52081672 11.264262545 -16.896430354 -68.979877789 20.827155273 21.803492773 -15.178161462 2.8615018023 -8.0381411399 
-150.65282034 19.464227167 -8.6446721829 -259.38707104 -1.2540319842 -10.044216977 -341.78753734 0.2036533734 -9.8933674951 
-143.03877708 -7.4793736507 21.71748051 -361.11062008 -2.9782226812 19.239088116 -166.60635206 2.8756308351 -16.21054047 
-25.001363433 -2.5246466227 7.7646114621 -12.77237463 -7.9556106923 7.8721054786 -32.165048066 -12.097352209 2.8305443237 
-204.23155866 -0.16635666489 -13.630387073 -161.72856583 1.8071651409 -4.3237158305 -324.67580973 3.5206227553 1.1330103338 
-209.46089631 5.4556612767 -9.5216924069 -164.0206757 -4.2332583131 13.063858584 -201.2550857 -6.1758796317 -0.303832298 
-492.9219376 -21.553066366 4.1599700757 -332.3651742 -3.8894393097 20.090191544 -314.46277547 -10.572065922 16.074248234 
-374.19151878 -0.34692806189 5.52067161 -257.36455592 6.0908481865 14.134211316 -395.81140709 0.1747681678 11.828519454 
-186.86010308 21.989600338 19.134921805 -106.06430554 -10.603800665 1.2959532802 -200.84979762 -9.1374609983 -30.520689543 
-367.97906985 16.358889006 9.9082880345 -376.65669553 3.6759613868 6.7608405123 -230.14464985 28.022946682 -4.0416934232 
-289.58215528 -10.102473375 -20.410841152 -107.20001922 21.037487614 13.931927098 -371.56087482 0.92079146457 -6.3008339326 
-423.24810624 -6.787354261 4.9201459087 -100.33267816 0.45668326982 4.6104043876 -495.52496808 19.507425974 18.043564273 
13.922806223 9.2188519698 17.398400799 -150.12319611 7.8197925344 -9.8735472244 -179.69321412 16.864788976 -18.243345634 
11.73209035 -0.5017405038 -8.4490367101 -364.61516324 -18.226933906 31.432630549 -235.21044997 22.766416689 3.5212297533 
-422.43666509 -5.600171674 32.679673146 -166.42640357 28.74159566 21.215373109 -323.23754395 12.297053023 -0.37924284895 
-234.86292789 -18.848355807 -28.116345998 -522.35750456 22.483939786 2.1106071253 -345.64470385 -20.432996117 5.1727200577 
-44.472815964 19.405091214 -14.626924272 -65.760830131 -8.2035119659 -13.364645711 -311.17248296 -10.408503966 19.735378692 