# vtk DataFile Version 4.2
Generated by LIGGGHTS
ASCII
DATASET POLYDATA
POINTS 1000 float
1.98993 1.0975 1.57581 0.929674 2.21728 0.829813 3.59721 0.481317 1.5578 
0.838746 2.95341 0.605009 3.59702 4.6096 0.267096 0.978412 0.127471 0.400786 
1.67102 3.14575 1.09736 1.50987 2.13567 1.6503 1.77223 0.683266 0.726371 
4.20341 0.213171 0.186311 1.82507 3.59451 0.242661 0.908497 0.550009 1.22107 
2.62159 4.43143 1.96983 4.37043 0.182369 1.49617 1.78587 2.62327 0.310049 
1.10956 1.41824 1.12708 1.8191 3.85073 1.5875 0.12383 1.67793 0.49704 
3.63786 2.9718 1.2748 1.6621 1.71926 0.363351 3.90537 1.39147 1.15635 
0.468789 2.30616 1.59884 0.904953 1.72755 0.0379118 1.51072 0.0336654 1.48422 
0.0422823 0.185367 0.69181 0.204097 1.19531 1.26683 0.21819 4.33799 0.624572 
2.33065 4.96436 0.901285 0.110424 3.09964 1.42538 2.78917 3.63366 0.113293 
3.6509 3.98689 1.92605 4.7524 3.16469 1.88011 4.23532 4.8899 1.27 
0.103808 2.96654 0.201222 2.69158 4.22474 0.725372 3.76433 0.634146 0.710593 
1.00819 4.01161 0.939667 2.59072 1.55243 0.549008 1.75739 4.80913 1.64353 
3.30188 4.49402 1.41671 4.19676 2.29212 1.28654 0.961178 3.91584 1.83582 
3.4446 3.80284 0.803193 4.68485 1.55416 1.56318 4.71554 1.45469 0.381516 
4.68482 2.44062 0.443731 4.61714 4.56228 0.399872 4.95186 0.908969 1.71788 
4.93575 3.76664 0.167829 0.682218 0.358538 2.53521 2.9962 0.910052 2.08316 
4.44053 2.46474 2.58557 2.26253 0.330448 3.35641 1.79582 2.95427 2.1081 
4.37436 3.34747 3.76976 0.55801 1.19736 2.07699 2.43774 0.210999 2.42865 
1.50959 0.0485308 2.46639 1.6095 0.861379 3.39107 0.191478 1.32821 3.47405 
0.906677 2.30383 2.93496 2.61619 4.58853 3.21115 2.32736 1.27838 2.59647 
1.92481 3.9445 2.86652 1.99697 2.22106 2.63193 0.709639 0.712034 3.30049 
1.92997 3.38646 3.90518 -0.0221206 2.23907 2.33198 2.06048 1.75952 3.55118 
0.10326 2.41475 3.59987 2.21062 3.25482 2.97411 1.14587 3.27821 2.37503 
3.63066 1.73466 2.17053 1.83013 2.62905 3.4649 1.34376 1.51871 2.80222 
3.29965 2.46687 3.33514 4.87782 1.34965 3.52118 3.92341 4.91274 2.21063 
4.79938 1.76063 2.65804 0.69569 4.71027 3.78391 3.06312 3.04488 2.75957 
0.288454 3.19754 2.397 3.99399 3.8521 3.32733 0.955644 3.13043 3.57221 
1.44418 4.96051 3.13946 3.32916 1.0943 3.00675 1.04502 4.02841 3.25712 
3.25922 4.97036 2.65411 3.98033 0.149451 3.56001 3.14334 0.636722 3.79342 
2.15012 4.97722 2.50849 3.03106 0.00495433 3.05367 3.65465 0.311559 2.41665 
3.82799 2.71979 2.5505 1.38709 1.11057 2.04038 3.96974 1.95844 3.35361 
4.20518 3.65052 2.00008 4.77683 0.807139 2.99316 4.91399 4.52743 2.99584 
1.2321 2.87894 4.91102 2.63862 4.55706 5.22273 1.70108 1.99168 5.84735 
2.94182 3.49297 4.76158 2.25552 0.937682 4.14076 3.44539 2.78192 4.95575 
1.36383 1.41686 4.20595 0.0368092 0.847656 5.38721 0.900073 0.0571338 5.06132 
1.8555 2.53497 4.31333 0.299297 1.82633 4.71973 0.578207 2.76487 5.67553 
4.28061 3.66493 5.43704 4.82431 0.625238 5.94905 1.05589 3.69872 5.85447 
1.58752 0.982536 5.98331 0.612581 0.596027 4.24709 2.24644 1.90309 4.95239 
2.34685 4.22939 4.30319 4.50747 1.79164 4.08962 0.871558 1.11025 5.44829 
1.31725 1.96286 4.98884 1.48518 0.891813 4.86611 4.25658 2.79686 5.78339 
3.14338 2.13379 4.2089 4.42655 4.37241 4.62377 1.40802 4.75981 4.43862 
3.46656 3.09764 4.03151 3.57522 0.650635 4.60237 3.26893 1.43193 4.84198 
2.89631 0.150333 5.79418 2.98099 2.62106 5.72723 4.53501 1.86726 5.6526 
1.4085 3.87132 4.15901 3.53773 4.51953 4.21836 0.292588 3.66177 5.38169 
0.633175 4.94206 4.80185 4.31079 0.573401 5.21424 4.18707 2.58498 4.60774 
1.87932 0.0541573 4.59685 1.25127 4.62553 5.61191 4.50258 0.745607 4.23956 
2.80055 3.69613 5.7599 4.63564 1.41669 4.92295 4.72682 3.45169 4.70147 
2.85488 3.73253 7.35091 0.503927 0.673743 6.21121 2.02297 3.12694 7.53356 
4.82695 3.49459 7.8957 0.631653 2.55598 6.96942 4.05152 0.985373 6.42311 
1.30128 2.33712 7.42313 1.32485 1.45583 7.55595 1.6937 3.15328 6.2456 
1.02865 0.067082 6.07854 0.544933 3.78793 6.56041 3.78142 0.138285 6.32709 
0.783763 1.86975 6.15981 4.44507 2.08135 7.74417 1.62882 1.54142 6.71105 
0.178299 0.818981 7.88501 2.27375 0.935791 6.75878 4.53023 3.42361 6.83064 
1.59389 2.35978 6.76388 2.20583 1.00136 7.74507 0.324111 0.508804 7.11794 
4.70757 1.79352 6.99402 2.98406 2.76709 7.296 0.215795 2.96597 6.55096 
4.15472 4.16095 7.176 3.50334 1.0915 7.88431 0.664855 4.48595 6.30655 
3.9534 1.82202 6.44807 0.962139 4.1199 7.41793 0.927883 3.10559 7.79377 
4.59778 2.64569 6.68664 1.40513 4.92827 7.82813 2.77619 0.434833 7.3961 
4.42164 4.0802 6.24914 3.71301 3.16628 6.36054 3.98356 0.752594 7.45125 
3.17482 1.71714 6.94544 3.67113 2.61609 7.13676 2.50321 3.79389 8.3295 
1.0748 1.54094 9.15393 2.77622 4.41007 9.71258 1.2958 3.07343 9.24129 
1.58271 2.36957 9.22249 2.6149 0.790484 8.63092 4.34709 4.31376 8.26394 
0.660873 2.30874 8.00719 1.93524 0.94531 9.77663 1.76621 3.96016 9.15972 
0.201013 1.43561 9.43279 0.7462 2.30596 8.91038 1.87121 1.41687 8.26409 
3.56674 1.86037 8.07115 1.05401 0.758399 8.72367 3.92189 2.38135 8.86339 
2.18978 3.14866 9.50047 2.06182 1.84246 9.008 0.489986 2.34468 9.79074 
4.72123 2.78175 9.53559 1.29674 1.93503 8.32408 2.05651 2.91521 8.54707 
2.55139 4.61791 8.46124 1.02272 0.895569 9.94051 3.42181 4.7077 8.95789 
0.380983 1.36266 8.53601 0.859115 0.186029 8.05115 1.53016 3.68551 8.25132 
3.67338 3.94738 9.52485 4.36459 4.82705 9.03415 0.270235 3.35433 9.27861 
0.993017 3.75614 9.97104 4.37729 1.8463 9.48955 3.86031 1.07205 9.85707 
3.35374 3.0407 9.21528 3.51416 2.86066 8.14739 3.52359 1.95406 9.9505 
3.5001 0.597533 9.18928 0.585017 4.19426 9.19927 0.384259 4.20658 8.30857 
4.76121 4.1019 9.2936 2.88592 0.836902 9.79956 1.09589 4.9828 8.70245 
2.83227 1.59144 9.13973 3.55621 3.68705 8.44113 0.539243 4.83325 9.84321 
0.159197 2.79861 8.59606 3.67326 0.306886 8.37046 4.85187 2.22498 8.70819 
3.16452 6.80295 1.45857 1.71335 9.62113 0.570005 4.31397 5.6151 0.627306 
3.54721 6.22177 0.0270461 2.92533 9.70795 1.88972 4.67161 8.22136 1.61019 
2.56617 7.96579 0.557936 1.95992 9.31405 1.49296 0.514972 9.56908 1.59583 
3.09449 6.27521 0.736228 3.45183 5.33184 0.122683 2.68283 7.56162 1.47942 
0.72954 8.57132 0.431428 3.63248 9.35829 1.371 3.93683 7.25423 1.01685 
2.54368 6.78379 0.524759 3.42222 8.11515 1.83615 4.0131 6.8954 1.87189 
2.6177 8.73524 1.13696 0.660467 7.08859 1.94617 2.02318 8.12648 1.71167 
0.113688 7.23032 1.11806 1.15622 7.90519 1.76042 4.23532 7.66294 0.243693 
4.61212 9.33878 1.39397 2.37934 5.78336 1.36519 0.00685369 6.31686 1.669 
0.49744 6.64218 0.608265 0.115446 5.33109 0.605173 0.992083 6.01957 1.00231 
0.0602021 5.50705 1.98235 4.23237 6.6587 0.59889 0.678977 7.63342 0.303499 
1.66417 8.32119 0.838958 3.54797 5.98588 1.09678 1.54393 7.42391 0.314389 
1.61992 6.38703 1.66838 3.42188 8.56588 0.933487 4.0296 8.12591 1.15026 
1.52271 7.17543 1.71034 0.696759 8.37505 1.33773 3.22615 7.55352 0.66623 
3.17282 5.35445 1.69374 3.893 9.41187 0.504548 4.63701 9.07589 0.476044 
4.7478 6.75148 1.16572 4.82019 7.43803 1.80514 4.85825 5.83215 1.40733 
1.44306 8.911 2.86754 3.31685 8.57299 3.88024 0.567673 8.25955 3.46415 
3.12401 6.74942 3.29425 2.09267 9.6177 3.79119 3.65324 7.51511 2.1196 
3.47669 9.13165 3.00678 3.14089 9.02792 2.15076 0.749887 9.14699 2.85935 
1.18434 7.46122 3.4743 3.8644 8.8275 2.10145 4.21117 9.70957 2.2697 
4.22767 5.74431 2.86605 3.88913 6.17006 2.16702 2.62553 8.15419 3.29106 
4.32977 5.05617 3.51045 1.22172 9.6849 3.60958 2.2173 5.24081 3.70378 
0.594916 6.17152 3.25891 3.75848 6.78314 2.78766 4.43731 7.66378 2.72627 
3.38792 8.26981 2.8219 0.46409 9.84801 3.90537 0.0581609 9.20588 3.316 
4.58004 9.47771 3.06882 3.97627 8.25563 3.61694 0.908779 6.29399 2.29807 
3.70504 9.34081 3.85719 3.72822 6.68053 3.90304 1.02849 8.01979 2.68897 
0.657693 6.72658 3.90229 0.0970947 5.93721 2.6054 1.998 8.83946 2.10412 
0.127173 7.27272 2.60554 1.46559 5.94011 3.04977 2.46295 7.20464 3.3287 
2.39195 5.89559 3.02761 1.73057 7.67423 2.63453 1.52366 5.59683 2.14423 
2.18078 8.91436 3.38933 3.7758 7.71011 2.96927 3.28728 5.87205 2.90302 
4.79054 6.9929 2.61259 4.8612 7.61935 3.51011 0.557502 8.54403 5.62955 
2.26838 7.62563 4.83146 3.66531 8.22135 5.53206 2.80057 7.33689 5.9193 
2.14024 6.47917 5.75263 4.40779 7.47139 4.28044 1.72646 5.73961 4.15182 
1.00708 9.19875 5.00818 4.64046 8.74118 4.17237 0.0251913 9.02049 4.87996 
0.970838 6.86284 5.76641 2.66361 9.09672 5.51482 2.47421 5.87061 5.57768 
4.20714 9.05292 5.00949 3.27265 8.80598 4.82318 2.92024 6.65163 4.39538 
-0.0152059 9.88576 4.75169 0.39973 5.14838 5.97248 1.64338 5.55136 5.14794 
3.14359 7.78102 4.87608 0.00663213 9.94278 5.64385 3.4833 7.53022 4.09518 
2.81006 9.80437 4.83587 0.867391 8.93696 4.10466 1.53226 9.88734 5.45494 
1.79485 6.72439 4.15031 4.03361 9.8121 4.59752 0.282584 7.63018 5.66933 
4.10135 7.07496 5.12264 0.731382 5.87564 5.1135 0.948179 8.29764 4.69255 
1.47863 7.76161 5.78759 1.58738 7.86878 4.59932 2.1809 5.17636 4.76138 
4.72363 7.07814 5.73939 0.172475 6.943 4.58831 4.54388 8.17017 5.91722 
0.09177 6.6619 5.49999 1.43256 8.61041 5.55312 0.0103299 7.62608 4.06003 
1.72635 6.92274 5.21725 2.36251 8.42626 4.16573 1.00334 6.77574 4.75623 
0.247031 5.84008 5.82849 4.43539 9.7873 5.50823 4.5983 8.16981 4.93777 
4.71683 5.37965 5.99679 2.14239 7.64691 7.92908 4.47944 5.46874 6.94135 
0.24668 8.05229 7.47028 4.7496 9.19475 7.48619 1.56251 9.83958 7.88351 
3.28307 5.94191 7.23867 3.86964 7.30771 6.17548 2.37458 5.01096 7.45987 
4.11498 6.28233 7.48591 1.81884 9.33373 6.02944 2.69765 9.20817 6.43523 
3.14859 8.12127 6.55042 3.74401 6.99533 7.84643 4.03083 8.86399 6.17445 
0.990858 5.25376 6.81048 0.958044 8.49654 6.46853 0.320009 6.9909 6.49505 
2.75276 6.80492 7.51822 4.81035 7.18148 7.58687 1.36086 9.02791 7.63095 
4.18257 6.30235 6.38842 2.24705 6.73058 6.64263 3.37163 9.48668 7.87502 
4.02014 8.60696 7.19892 4.3422 9.60936 6.66132 4.12703 7.37418 7.07516 
3.92646 9.94048 7.2081 1.02046 7.80854 6.98335 1.41739 5.62844 6.0677 
0.484989 9.78031 7.16 1.35618 9.93496 6.95985 2.56834 8.37637 7.33372 
[...]
POINT_DATA 1000
FIELD FieldData 7
id 1 1000 int
647 461 822 516 582 283 213 7 4 
852 677 680 930 216 843 846 206 548 
772 909 110 228 237 322 521 842 95 
411 9 833 627 905 312 898 413 282 
91 79 484 707 999 342 759 487 142 
883 351 280 857 133 907 650 507 725 
482 820 738 469 121 943 333 407 853 
910 609 538 427 731 406 868 828 524 
804 807 308 619 298 574 775 666 623 
742 596 446 620 243 175 929 289 259 
391 980 433 865 327 514 779 966 882 
611 299 737 860 771 795 603 23 105 
249 730 805 396 975 245 355 585 636 
896 147 134 187 541 39 159 347 942 
679 480 691 83 478 284 893 185 827 
568 240 17 394 366 509 890 33 660 
94 543 148 348 996 375 640 372 169 
111 794 395 485 257 602 205 708 785 
350 418 689 948 829 251 97 35 869 
530 646 902 80 534 918 112 239 992 
399 488 158 675 384 374 339 702 894 
644 400 42 492 586 89 968 721 281 
138 127 662 745 960 592 590 329 403 
225 970 654 819 940 903 581 908 565 
835 935 648 594 840 263 139 365 438 
984 734 468 876 719 66 976 859 494 
788 385 90 711 179 376 164 811 873 
32 462 645 885 763 796 946 683 334 
305 712 252 246 892 405 368 716 104 
409 136 131 850 871 736 408 614 698 
520 518 28 684 229 723 135 589 955 
945 255 915 458 798 117 262 209 29 
799 814 962 667 938 607 231 821 624 
561 593 664 195 129 373 349 443 991 
1 917 710 457 119 815 248 934 432 
235 639 764 143 471 950 473 855 122 
325 417 977 866 181 838 273 170 601 
5 10 132 744 580 681 879 863 306 
825 425 949 659 215 483 30 724 546 
499 699 831 188 545 371 64 151 344 
997 300 808 53 715 363 993 191 504 
560 436 113 140 393 71 735 315 192 
381 673 569 387 292 557 3 324 45 
704 663 115 58 301 573 837 606 705 
887 963 511 412 200 577 76 402 515 
441 198 177 459 922 166 360 390 599 
77 797 330 426 73 168 862 442 144 
777 709 470 969 793 525 496 294 36 
57 212 554 92 107 320 920 116 813 
146 696 6 686 927 655 341 60 199 
328 353 758 26 982 13 523 867 475 
463 346 767 765 352 618 549 272 754 
901 217 584 555 62 265 587 27 106 
510 886 526 293 130 318 812 497 974 
335 162 670 755 307 190 431 839 467 
404 858 875 456 760 787 766 380 921 
864 210 656 531 598 690 661 961 204 
149 743 626 72 258 288 933 354 803 
370 851 234 506 359 364 416 748 430 
428 445 770 1000 597 313 625 12 756 
275 244 919 776 762 172 503 551 658 
100 937 358 529 460 19 727 208 15 
579 635 566 641 429 749 784 792 189 
137 25 145 954 437 665 932 513 703 
389 472 277 321 741 434 729 75 47 
232 895 789 326 186 925 780 600 476 
967 493 340 608 182 193 361 56 939 
889 951 331 465 958 449 936 214 739 
78 786 987 653 806 988 637 773 692 
379 722 913 287 96 861 369 154 572 
583 688 768 746 687 519 141 501 260 
502 69 652 38 120 87 973 227 311 
420 40 261 824 778 223 539 781 613 
2 383 410 972 877 816 826 671 220 
672 717 944 173 424 74 845 98 345 
250 207 439 761 233 486 65 316 536 
769 823 43 314 616 157 241 674 559 
454 49 171 303 750 21 947 916 67 
998 18 783 956 156 881 800 86 16 
226 222 830 323 343 264 270 242 126 
61 924 11 269 923 201 495 236 196 
477 682 398 176 401 266 109 995 500 
747 59 512 490 310 419 888 981 453 
562 685 103 52 990 160 304 556 63 
48 392 167 941 578 928 986 386 422 
448 906 319 268 218 99 983 872 791 
612 854 571 994 874 693 450 54 832 
423 81 452 297 108 595 818 558 695 
643 849 224 295 481 20 638 274 150 
309 505 563 197 357 720 174 238 900 
971 911 965 37 153 55 841 254 447 
178 455 617 701 726 634 714 378 44 
221 22 332 615 247 897 553 542 801 
101 338 421 163 491 203 989 678 522 
728 631 733 336 604 700 286 848 256 
757 633 985 362 782 466 630 802 834 
676 931 952 527 464 844 564 102 183 
610 622 479 914 605 489 517 68 285 
810 123 290 884 752 124 367 296 544 
621 713 388 959 114 219 382 24 253 
657 753 856 291 632 891 317 575 547 
165 88 926 211 591 669 567 880 70 
356 790 751 230 642 847 528 451 46 
694 540 415 271 651 817 532 184 440 
550 302 953 278 537 535 904 377 878 
732 397 964 870 82 836 774 435 809 
414 34 498 740 629 474 912 41 194 
51 576 628 508 978 570 85 276 118 
31 155 668 979 50 8 152 279 718 
957 697 161 337 444 706 180 84 588 
899 267 552 14 202 125 128 533 649 
93 
type 1 1000 int
2 1 2 2 2 1 1 1 1 
2 2 2 2 1 2 2 1 2 
2 2 1 1 1 1 2 2 1 
1 1 2 2 2 1 2 1 1 
1 1 1 2 2 1 2 1 1 
2 1 1 2 1 2 2 2 2 
1 2 2 1 1 2 1 1 2 
2 2 2 1 2 1 2 2 2 
2 2 1 2 1 2 2 2 2 
2 2 1 2 1 1 2 1 1 
1 2 1 2 1 2 2 2 2 
2 1 2 2 2 2 2 1 1 
1 2 2 1 2 1 1 2 2 
2 1 1 1 2 1 1 1 2 
2 1 2 1 1 1 2 1 2 
2 1 1 1 1 2 2 1 2 
1 2 1 1 2 1 2 1 1 
1 2 1 1 1 2 1 2 2 
1 1 2 2 2 1 1 1 2 
2 2 2 1 2 2 1 1 2 
1 1 1 2 1 1 1 2 2 
2 1 1 1 2 1 2 2 1 
1 1 2 2 2 2 2 1 1 
1 2 2 2 2 2 2 2 2 
2 2 2 2 2 1 1 1 1 
2 2 1 2 2 1 2 2 1 
2 1 1 2 1 1 1 2 2 
1 1 2 2 2 2 2 2 1 
1 2 1 1 2 1 1 2 1 
1 1 1 2 2 2 1 2 2 
2 2 1 2 1 2 1 2 2 
2 1 2 1 2 1 1 1 1 
2 2 2 2 2 2 1 2 2 
2 2 2 1 1 1 1 1 2 
1 2 2 1 1 2 1 2 1 
1 2 2 1 1 2 1 2 1 
1 1 2 2 1 2 1 1 2 
1 1 1 2 2 2 2 2 1 
2 1 2 2 1 1 1 2 2 
1 2 2 1 2 1 1 1 1 
2 1 2 1 2 1 2 1 2 
2 1 1 1 1 1 2 1 1 
1 2 2 1 1 2 1 1 1 
2 2 1 1 1 2 2 2 2 
2 2 2 1 1 2 1 1 2 
1 1 1 1 2 1 1 1 2 
1 2 1 1 1 1 2 1 1 
2 2 1 2 2 2 1 1 1 
1 1 2 1 1 1 2 1 2 
1 2 1 2 2 2 1 1 1 
1 1 2 1 2 1 2 2 1 
1 1 2 2 1 2 2 1 2 
2 1 2 2 1 1 2 1 1 
2 2 2 1 1 1 2 1 2 
1 1 2 2 1 1 1 2 1 
1 2 2 1 2 2 2 1 2 
2 1 2 2 2 2 2 2 1 
1 2 2 1 1 1 2 1 2 
1 2 1 2 1 1 1 2 1 
1 1 2 2 2 1 2 1 2 
1 1 2 2 2 1 2 2 2 
1 2 1 2 1 1 2 1 1 
2 2 2 2 1 2 2 2 1 
1 1 1 2 1 2 2 2 2 
1 1 1 1 2 1 2 1 1 
1 2 2 1 1 2 2 2 1 
2 1 1 2 1 1 1 1 2 
2 2 1 1 2 1 2 1 2 
1 2 2 2 2 2 2 2 2 
1 2 2 1 1 2 1 1 2 
2 2 2 2 2 2 1 2 1 
2 1 2 1 1 1 2 1 1 
1 1 1 2 2 1 2 2 2 
1 1 1 2 2 2 2 2 1 
2 2 2 1 1 1 2 1 1 
1 1 1 2 1 1 1 1 2 
2 2 1 1 2 1 1 2 2 
1 1 1 1 2 1 2 2 1 
2 1 2 2 1 2 2 1 1 
1 1 2 1 1 1 1 1 1 
1 2 1 1 2 1 1 1 1 
1 2 1 1 1 1 1 2 1 
2 1 2 1 1 1 2 2 1 
2 2 1 1 2 1 1 2 1 
1 1 1 2 2 2 2 1 1 
1 2 1 1 1 1 2 2 2 
2 2 2 2 2 2 1 1 2 
1 1 1 1 1 2 2 2 2 
2 2 1 1 1 1 2 1 1 
1 2 2 1 1 2 1 1 2 
2 2 2 1 1 1 2 1 1 
1 1 2 2 2 2 2 1 1 
1 1 1 2 1 2 2 2 2 
1 1 1 1 1 1 2 2 2 
2 2 2 1 2 2 1 2 1 
2 2 2 1 2 1 2 2 2 
2 2 2 2 1 2 2 1 1 
2 2 1 2 2 1 2 1 1 
2 1 1 2 2 1 1 1 2 
2 2 1 2 1 1 1 1 1 
2 2 2 1 2 2 1 2 2 
1 1 2 1 2 2 2 2 1 
1 2 2 1 2 2 2 1 1 
2 2 1 1 2 2 2 1 1 
2 1 2 1 2 2 2 1 2 
2 1 2 2 1 2 2 1 2 
1 1 1 2 2 1 2 1 1 
1 2 2 2 2 2 1 1 1 
1 1 2 2 1 1 1 1 2 
2 2 1 1 1 2 1 1 2 
2 1 2 1 1 1 1 2 2 
1 
i 3 1000 int
-50 0 0 132 1 0 -25 0 1 
-81 0 1 10 0 0 -88 0 1 
107 1 1 -31 0 0 -95 0 0 
-88 0 1 -16 0 1 -71 0 0 
-12 0 0 -65 0 1 3 0 1 
-33 0 1 -47 0 1 -65 0 1 
-48 0 1 -21 0 1 -27 0 1 
-73 0 1 -42 0 1 28 1 0 
-12 0 1 -61 0 1 -10 0 0 
-33 0 0 133 1 0 20 0 0 
-16 0 0 -23 0 0 -10 0 1 
-36 0 0 -41 0 0 114 1 0 
-4 0 0 -51 0 1 26 0 1 
-196 -1 0 -14 0 0 -20 0 1 
-31 0 0 -69 0 0 -67 0 0 
4 0 0 -19 0 1 -60 0 0 
-1 0 0 82 1 1 -43 0 0 
-19 0 0 -60 0 0 -26 0 0 
21 0 0 -60 0 0 135 1 1 
84 1 0 116 1 0 -40 0 0 
1 0 0 22 0 0 70 1 0 
-21 0 1 -21 0 0 143 1 0 
-3 0 0 190 1 0 -47 0 1 
-57 0 1 -28 0 1 -21 0 1 
-93 0 0 -29 0 0 -28 0 1 
-28 0 1 -64 0 0 -10 0 1 
-80 0 0 25 0 0 -35 0 1 
12 0 -1 -41 0 1 -26 0 1 
5 0 0 -33 0 0 13 0 0 
-16 0 1 -114 0 -1 -72 0 -1 
-13 0 0 86 1 1 80 1 -1 
-42 0 -1 -22 0 0 -44 0 0 
-17 0 0 -27 0 1 -19 0 0 
-18 0 0 -16 0 0 -24 0 0 
-14 0 1 -67 0 0 -52 0 0 
97 1 0 -66 0 0 61 1 0 
-56 0 1 -81 0 0 -68 0 -1 
-25 0 0 102 1 1 -35 0 0 
68 1 0 -59 0 1 -68 0 0 
-5 0 -1 -75 0 0 -44 0 0 
-58 0 0 64 1 0 -68 0 0 
123 1 0 -9 0 0 13 0 0 
-20 0 0 -53 0 1 68 1 0 
86 1 0 8 0 0 -82 0 0 
7 0 0 13 0 0 -36 0 0 
-35 0 0 -81 0 0 -65 0 0 
61 1 -1 -14 0 0 -53 0 0 
-21 0 0 133 1 0 29 0 0 
-17 0 0 -74 0 0 -13 0 0 
-8 0 0 -5 0 -1 72 1 -1 
-82 0 0 -65 0 0 103 1 0 
50 1 0 48 0 0 43 1 0 
-65 0 1 -23 0 0 86 1 0 
-99 0 -1 -78 0 0 164 1 0 
58 1 0 -62 0 0 -46 0 0 
124 1 0 -13 0 0 -22 0 0 
4 0 0 -87 0 1 -29 0 0 
-29 0 1 -36 0 0 112 1 0 
-17 0 0 33 0 0 -53 0 0 
-8 0 0 -141 -1 0 -99 0 0 
-74 0 -1 -76 0 1 5 0 0 
-22 0 0 -33 0 0 -14 0 0 
-35 0 0 99 1 0 9 0 0 
173 1 0 -70 0 -1 -51 0 0 
-99 0 0 116 1 0 -45 0 0 
124 1 0 103 1 0 18 0 -1 
-31 0 0 -55 0 0 -32 0 0 
-2 0 0 103 1 0 -14 0 -1 
6 0 -1 -57 0 0 -1 0 -1 
-37 0 0 121 1 -1 -58 0 1 
-32 0 0 22 0 -1 -23 0 -1 
-5 0 0 -50 0 0 -40 0 0 
-16 0 0 -27 0 0 116 1 0 
-59 0 0 -15 0 0 -21 0 0 
-27 0 0 -96 0 -1 26 0 -1 
85 1 0 -37 0 0 11 0 0 
-25 0 0 98 1 0 -15 0 0 
49 0 0 -104 -1 1 10 0 0 
37 0 0 -119 -1 0 23 0 0 
45 0 0 72 0 0 -79 -1 0 
33 0 0 8 0 1 -65 -1 0 
128 0 0 97 0 0 46 0 0 
17 0 0 16 0 1 15 0 0 
31 0 0 13 0 0 30 0 0 
52 0 0 55 0 0 91 0 1 
120 0 1 36 0 0 5 0 0 
-17 0 0 -43 0 0 -1 0 1 
180 1 1 -13 0 0 45 0 0 
61 0 1 -10 0 0 -143 -1 2 
-5 0 0 48 0 1 31 0 0 
50 0 0 -97 -1 0 28 0 0 
42 0 0 -56 -1 1 59 0 0 
-10 0 0 30 0 1 10 0 1 
46 0 0 -47 -1 1 33 0 0 
32 0 0 -102 -1 0 -80 -1 0 
-92 -1 0 -122 -1 0 58 0 0 
99 0 0 -94 -1 1 -47 -1 0 
-51 0 0 11 0 0 44 0 1 
-33 0 1 97 0 0 24 0 -1 
46 0 0 24 0 1 32 0 0 
-89 -1 1 -83 -1 0 -59 -1 0 
32 0 0 45 0 0 57 0 0 
-124 -1 -1 17 0 0 68 0 0 
8 0 0 -9 0 0 69 0 0 
-140 -1 0 20 0 0 23 0 0 
-21 0 0 36 0 1 -45 0 1 
43 0 0 46 0 0 16 0 -1 
8 0 0 -134 -1 0 54 0 0 
56 0 -1 50 0 0 57 0 0 
8 0 -1 42 0 0 6 0 1 
-99 -1 1 79 0 0 40 0 0 
24 0 -1 -80 -1 1 64 0 0 
72 0 0 101 0 0 17 0 0 
103 0 1 -24 0 0 74 0 -1 
68 0 -1 -77 -1 0 71 0 1 
-39 -1 0 39 0 0 66 0 0 
8 0 0 -120 -1 0 8 0 0 
18 0 0 25 0 -1 46 0 0 
15 0 0 84 0 -1 -35 0 0 
50 0 -1 -31 0 0 32 0 0 
21 0 0 60 0 -1 67 0 0 
4 0 0 94 0 0 14 0 -1 
19 0 0 77 0 0 31 0 0 
35 0 0 39 0 0 32 0 -1 
77 0 0 15 0 -1 34 0 0 
30 0 0 16 0 0 23 0 0 
22 0 0 76 0 -1 138 0 -1 
-102 -1 -1 -167 -1 -1 82 0 0 
45 0 0 59 0 0 57 0 0 
77 0 -1 43 0 0 43 0 -1 
36 0 -1 64 0 -1 -62 -1 0 
-109 -1 0 -77 -1 -1 -49 -1 0 
68 0 -1 52 0 0 -18 0 -1 
-126 -1 0 -101 -1 0 87 0 -1 
63 0 0 -103 -1 0 -116 -1 -1 
33 0 0 -21 0 0 48 0 0 
14 0 0 24 0 0 14 0 -1 
-97 -1 0 44 0 -1 31 0 -1 
95 0 0 112 0 -1 36 0 -1 
51 0 -1 47 0 0 6 0 0 
-33 0 0 6 0 -1 3 0 -1 
-84 -1 -1 60 0 0 50 0 -1 
62 0 -1 92 0 -1 -110 -1 -1 
94 0 0 58 0 0 -100 -1 -1 
92 0 0 119 0 -1 -67 -1 -1 
11 0 0 -106 -1 0 27 0 0 
-97 -1 0 7 0 0 116 0 0 
-7 0 0 15 0 -1 1 0 -1 
27 0 -1 13 0 0 -130 -1 0 
24 0 -1 20 0 0 -143 -1 -1 
22 0 -1 63 0 0 -18 0 -1 
92 0 -1 2 0 -1 -1 0 -1 
-59 -1 1 -2 0 -1 16 0 0 
98 0 0 110 1 0 -47 0 1 
110 1 0 -44 0 1 -25 0 1 
-90 0 0 -88 0 0 -57 0 1 
-58 0 0 -20 0 0 -42 0 1 
-22 0 0 -35 0 0 -42 0 1 
-24 0 1 -57 0 1 -31 0 0 
-35 0 0 150 1 0 -64 0 1 
-81 0 0 -14 0 0 -41 0 1 
41 0 1 122 1 1 205 1 1 
-53 0 1 61 1 0 -14 0 1 
-49 0 0 113 1 0 -21 0 1 
-51 0 0 -32 0 1 156 1 1 
9 0 0 -10 0 0 1 0 1 
-10 0 0 -46 0 1 -37 0 1 
-45 0 1 -30 0 1 -50 0 1 
-25 0 1 86 1 0 -52 0 1 
-39 0 0 -27 0 1 47 1 0 
-33 0 0 -2 0 0 -94 0 1 
-5 0 0 -36 0 0 -12 0 -1 
98 1 0 -53 0 1 -4 0 -1 
-17 0 0 -15 0 1 95 1 0 
-7 0 0 -94 0 0 -58 0 0 
-58 0 0 -24 0 0 -26 0 0 
-59 0 0 97 1 -1 -24 0 1 
-42 0 1 -14 0 0 -41 0 0 
-70 0 0 -48 0 1 -81 0 0 
-3 0 0 -67 0 0 -31 0 1 
-48 0 0 -183 -1 0 -39 0 0 
-63 0 1 -71 0 0 -107 0 0 
-23 0 0 -4 0 1 -25 0 0 
-9 0 0 -15 0 0 -17 0 0 
-6 0 0 -7 0 0 -49 0 0 
-46 0 1 5 0 0 -58 0 1 
-21 0 0 -146 -1 0 138 1 1 
-8 0 0 -21 0 0 -115 0 1 
-62 0 1 77 1 0 90 1 0 
-112 0 0 -79 0 0 88 1 0 
98 1 0 -70 0 0 42 1 1 
-28 0 0 -53 0 0 -93 0 0 
-32 0 0 19 0 0 -99 0 1 
8 0 -1 -88 0 0 -53 0 0 
104 1 1 83 1 1 -51 0 0 
-45 0 1 -65 0 0 -67 0 0 
-13 0 0 60 1 0 30 1 0 
-113 0 0 -22 0 1 -22 0 0 
89 1 -1 122 1 0 -13 0 0 
-24 0 0 54 0 -1 97 1 0 
-21 0 0 -26 0 0 -21 0 0 
2 0 0 -28 0 0 5 0 0 
-3 0 0 102 1 1 -9 0 0 
5 0 0 9 0 0 4 0 0 
13 0 1 -82 0 1 76 1 0 
137 1 0 -65 0 0 34 0 0 
-45 0 1 -37 0 0 93 1 0 
-65 0 0 -77 0 0 8 0 0 
90 1 0 -49 0 0 -10 0 0 
-31 0 0 2 0 0 -44 0 0 
-51 0 1 4 0 0 -88 0 -2 
-4 0 0 76 1 0 -44 0 -1 
-10 0 0 55 1 0 -82 0 0 
-86 0 0 -43 0 0 7 0 0 
-50 0 0 -88 0 -1 4 0 0 
-32 0 0 -62 0 0 -9 0 0 
6 0 0 -11 0 0 -7 0 0 
11 0 0 -106 0 1 -9 0 -1 
-77 0 0 81 1 0 -26 0 0 
-8 0 0 -35 0 0 -22 0 0 
26 0 -1 121 1 0 -5 0 0 
140 1 -1 0 0 0 151 1 0 
-20 0 -1 -38 0 0 -64 0 0 
76 1 0 5 0 0 30 0 0 
-18 0 0 -10 0 0 85 1 0 
-31 0 0 98 1 1 -19 0 0 
-82 0 0 -45 0 0 86 1 0 
-13 0 0 -63 0 -1 -100 0 -1 
14 0 0 128 1 -1 -60 0 0 
-49 0 0 -19 0 0 -30 0 0 
158 1 0 -16 0 -1 -85 0 0 
105 1 0 -2 0 0 -4 0 -1 
84 1 0 -67 0 0 -82 0 0 
21 0 0 -44 0 -1 130 1 0 
-114 0 0 -20 0 0 -24 0 0 
-55 0 0 25 0 0 -8 0 -1 
141 1 -1 -19 0 1 -80 0 -1 
-59 0 0 134 1 0 110 1 -1 
-98 -1 -1 -16 0 0 -11 0 -1 
-55 0 0 -145 -1 0 93 1 -1 
-89 0 0 -37 0 0 -22 0 -1 
-89 0 0 62 1 -1 -60 0 0 
-49 0 0 -69 0 0 124 1 -1 
64 0 0 -8 0 0 40 0 0 
33 0 1 48 0 0 -88 -1 0 
13 0 0 -72 -1 1 8 0 1 
-113 -1 1 41 0 0 31 0 0 
-84 -1 0 -3 0 1 49 0 0 
181 1 1 41 0 0 35 0 0 
92 0 1 23 0 1 7 0 0 
132 0 1 2 0 0 54 0 0 
-60 -1 0 61 0 0 48 0 0 
45 0 0 -18 0 0 95 0 0 
-5 0 0 51 0 0 -8 0 0 
42 0 1 42 0 0 -159 -1 -1 
-5 0 1 44 0 0 -7 0 0 
29 0 0 23 0 0 -62 -1 0 
13 0 0 -5 0 0 32 0 0 
4 0 1 -5 0 0 15 0 1 
42 0 0 52 0 0 33 0 0 
46 0 0 22 0 1 -33 0 0 
-104 -1 0 23 0 1 19 0 0 
91 0 0 -79 -1 1 67 0 1 
92 0 0 23 0 0 38 0 0 
-27 0 1 3 0 1 -79 -1 1 
55 0 0 61 0 -1 -126 -1 0 
18 0 -1 -99 -1 -1 54 0 -1 
29 0 0 -75 -1 0 6 0 1 
46 0 0 -140 -1 1 15 0 0 
48 0 -1 -122 -1 0 -54 -1 0 
47 0 0 -114 -1 -1 13 0 -1 
-170 -1 0 26 0 0 52 0 0 
37 0 0 4 0 0 48 0 1 
14 0 0 7 0 0 40 0 1 
34 0 0 82 0 0 56 0 -1 
190 1 0 -87 -1 0 24 0 -1 
52 0 0 61 0 0 -89 -1 0 
93 0 0 -101 -1 0 20 0 0 
-150 -1 1 -133 -1 1 -130 -1 -1 
-36 -1 0 37 0 0 90 0 0 
92 0 0 46 0 -1 -86 -1 0 
55 0 0 -7 0 0 -13 0 0 
23 0 0 13 0 0 95 0 -1 
66 0 0 48 0 1 47 0 0 
57 0 0 -114 -1 1 -14 0 0 
57 0 0 -89 -1 1 41 0 0 
14 0 0 65 0 -1 45 0 0 
50 0 0 -4 0 1 32 0 0 
79 0 -1 21 0 0 37 0 0 
21 0 0 17 0 0 64 0 0 
3 0 0 1 0 -1 47 0 -1 
33 0 -1 18 0 0 47 0 0 
3 0 0 14 0 0 63 0 -1 
-23 0 0 61 0 0 80 0 -1 
42 0 0 -40 0 0 87 0 0 
31 0 0 4 0 -1 81 0 0 
51 0 -1 33 0 -1 7 0 0 
6 0 0 -117 -1 1 -88 -1 0 
82 0 0 -143 -1 -1 16 0 -1 
-85 -1 -1 99 0 -1 -114 -1 0 
39 0 0 58 0 0 -93 -1 0 
-62 -1 0 22 0 -1 26 0 -1 
-14 0 0 71 0 -1 66 0 0 
52 0 -1 44 0 0 33 0 0 
63 0 0 -124 -1 0 -152 -1 0 
12 0 0 28 0 0 48 0 0 
26 0 0 -81 -1 0 100 0 0 
73 0 0 -122 -1 0 17 0 0 
33 0 -1 1 0 0 90 0 0 
-137 -1 0 -119 -1 0 1 0 -1 
-51 0 0 30 0 -1 16 0 -1 
29 0 -1 42 0 0 19 0 0 
37 0 0 75 0 0 56 0 0 
114 0 -1 73 0 0 79 0 0 
42 0 -1 -127 -1 1 86 0 0 
-133 -1 1 47 0 -1 37 0 -1 
9 0 0 28 0 -1 96 0 -1 
-68 -1 0 22 0 -1 96 0 -1 
74 0 -1 108 0 0 141 0 0 
-46 0 0 -92 -1 -1 39 0 0 
19 0 -1 -103 -1 -1 -143 -1 -1 
3 0 0 51 0 -1 23 0 0 
-143 -1 0 23 0 -1 -118 -1 0 
58 0 0 -88 -1 0 97 0 0 
78 0 0 26 0 0 -12 0 0 
58 0 0 13 0 0 26 0 0 
8 0 0 215 1 -1 -98 -1 0 
42 0 -1 -28 0 -1 -3 0 0 
88 0 -1 24 0 0 46 0 0 
23 0 0 86 0 0 29 0 0 
-76 -1 -1 -97 -1 0 52 0 -1 
11 0 0 63 0 -1 -115 -1 0 
21 0 0 158 1 -1 11 0 0 
56 0 -1 
v 3 1000 double
-365.43337087 22.932019819 -3.8670792445 -292.23402321 3.3158692613 -1.1135566308 -379.98066604 -13.086910083 -18.649701321 
-217.68085737 31.685766974 5.7617941937 -22.767281074 -27.684219677 4.4040962418 -432.19598699 -23.79736436 1.8944272397 
-209.14523153 -0.5520974216 22.483227783 -276.12091381 6.1673479004 -14.708522889 -430.98721732 10.104362934 8.1975094209 
-365.94329892 -29.817653088 -3.7172230768 -102.51459668 -8.0487458741 5.8819420406 -420.70566684 -4.740940588 8.4044762873 
-25.467636844 -29.374829019 20.460365266 -433.12142298 5.2294871719 -20.144690282 -231.76394669 8.1841750934 17.097628358 
-333.74982176 -6.84328235 1.2918392244 -126.90508551 20.066723509 21.089569446 -314.26102078 2.0282292907 5.3472014477 
-194.6102 10.321225723 -0.16009162359 -342.57491651 4.4656864244 -6.4066587941 -299.41328694 -11.116476505 -8.467880213 
-285.29316812 -1.4105673312 19.06772119 -315.61962983 3.1992660536 -0.48335959118 -456.61983609 -3.7008061428 14.937943683 
-439.81103361 -14.329933875 22.968667948 -326.27742454 -23.480822891 -12.304263412 -46.334321706 2.0924762088 1.2290646034 
-17.659644906 12.161613587 -9.1216063843 -241.016213 20.350227523 -1.1441734679 -84.510916113 -34.624798312 -12.224220818 
-120.58767157 9.8144525558 0.40427644781 -156.04450605 12.862802761 -12.73360423 -49.984831487 -1.1495812021 -3.6022608729 
-222.74679944 17.996290586 3.1501541351 -48.82872055 -14.539837673 -0.43819778936 -370.29485224 -19.909524396 -11.725744656 
-57.908555455 -13.408468202 4.5418192786 -355.51321021 13.657036214 -1.2571483002 -16.936230861 -9.3088393298 -1.5845228342 
-51.798465256 10.681067581 1.3535452321 -218.49962034 -11.404843925 -0.56330678155 -131.42455234 7.1194110275 21.936673612 
-74.572301707 -18.768074112 3.1332963434 -304.97555195 9.158800624 5.0459596423 -301.0395587 -20.264076054 -6.5078022128 
-236.63982607 -5.57305136 -17.377108277 -51.38079399 6.0693915993 7.1467129497 -344.73967175 -23.504963671 2.5253546259 
-109.73012163 -27.673971944 -9.3855966477 -434.82942951 -18.514087222 -15.114526753 -365.74790593 -0.55242477472 -7.5152988558 
-205.98704211 9.4560615303 10.612463558 -411.50278046 -7.5798134864 1.502371367 -195.19884587 16.429510408 -7.6140280823 
-143.32851967 -10.004271247 14.447114018 -371.04031053 3.9659323381 16.829804225 -449.59408806 -3.3299339666 -30.089576504 
-448.90566869 -5.6375462956 17.320745052 -382.40325035 -0.062353250435 1.6926650045 -357.08630454 17.60474734 2.0908000787 
-252.10811646 16.781867226 8.4844379062 -12.047326717 -26.211988291 -4.2430732794 -316.06000089 -3.2538316929 -0.2769179633 
-59.85086216 8.3054015148 10.416690501 -274.17803277 12.492613108 -2.7194868657 -382.02985027 -18.639025115 3.670988647 
-115.14705345 -3.5681047395 4.1433437427 -281.65046456 5.7273358745 33.805321245 -299.02723874 -6.910335173 -2.938086721 
-232.32536852 -0.51389831324 -7.8893918231 -151.19465739 0.67872639459 -6.3079592591 -202.14371335 13.428393945 33.059945744 
-298.36383095 2.7753181225 0.67159936679 -270.62216967 11.669175665 -16.539482973 -267.04698745 -13.694201887 11.467260957 
-236.30452122 -6.2751106154 -25.46210906 -325.21785328 -12.959648757 -10.825524772 -0.59840810241 -5.4286667919 2.2397955901 
-286.44782636 -19.602559598 27.359016549 -29.921485809 7.0982567252 -6.6714172388 -182.08739659 16.470644804 -22.137772747 
-194.85616779 -21.545650651 15.018251981 -99.914405798 19.295124566 -13.090784561 -123.8271217 -35.305706429 22.186419255 
4.7621653295 -4.1114500536 9.254807661 -331.6112332 -9.7936833695 -7.5136362707 -62.603297021 -15.502552311 -8.6423070118 
3.2031122085 -20.35250996 26.291890943 -465.00107793 16.01056613 -4.4266325162 -403.64886679 -9.9553923786 6.9428479103 
7.261745248 10.578898483 -0.79780294296 -440.37655646 -11.528818523 6.9231445452 -460.31367283 20.024161092 -2.9727385566 
-194.59014 10.720759866 -20.818555997 -361.1045864 -1.0950507176 14.005855223 -254.76333832 -13.151134333 11.921754359 
-138.26213128 18.599402627 -1.5861429871 -415.96814082 -3.5462502929 -20.560580702 -29.482725915 -3.0815433854 -8.0230845485 
-225.13501191 20.278425877 1.7937231519 -69.489639735 3.1562083627 24.938815134 -323.55123221 12.994613716 11.386914535 
-143.74900088 6.2185489253 19.180178536 -380.8271584 -1.5394875908 7.4346042611 -233.84049065 -1.2016136121 8.6095199084 
-367.69515584 13.276434738 -33.871996057 -417.15999897 -8.6615063747 -31.237193276 -528.62961722 10.198115186 -2.9641348629 
-231.31035806 -0.85762437976 3.0646634041 -322.74010956 13.534176262 -4.1722085298 -236.93293826 9.6753566479 -15.55909563 
-106.05406351 -4.2725137368 -12.759082763 -432.22645783 5.4570487545 -6.4917511782 -162.3158337 9.4904948415 -10.684966561 
-414.08918308 -1.8967781654 6.3760843767 -407.06930131 10.858348147 7.7062820648 -312.52036393 10.790102685 -4.6642065962 
-54.107788146 -1.334136704 -3.8928463398 -289.3107886 5.0654825565 37.14096265 -422.28052041 15.026034553 -9.3450989988 
-324.75584604 -4.950375572 -5.879976043 -411.97748567 -8.1738592577 -3.4422290197 -179.43170095 -17.395317509 -21.017512501 
-273.04946168 -0.078931802668 -3.7386254858 -116.4915076 20.175942922 -20.838945461 -17.719464237 -4.5749207353 -8.9490122756 
-146.00044955 -4.3771316129 -1.8145590035 -416.80282371 -14.088195195 16.595363036 -304.15679247 -10.874881744 27.042314364 
-547.60905555 20.852585505 -2.4112392496 -228.54962417 -8.443604101 16.903609956 -273.71311789 -7.7118426524 10.468325103 
-91.222024327 -9.3201359672 14.210324297 -84.607823597 13.741131885 5.1530330429 -143.4582939 -3.7092907957 -6.9865726886 