ITEM: TIMESTEP
26000
ITEM: NUMBER OF ATOMS
1000
ITEM: BOX BOUNDS xy xz yz pp pp pp
0 10 0
0 10 0
-0 10 0
ITEM: ATOMS id type type x y z ix iy iz vx vy vz fx fy fz omegax omegay omegaz radius 
830 2 2 2.44336 4.29556 0.104394 135 1 0 -28.6762 8.99039 -18.1045 1638.15 495.627 -1200.47 0 0 0 0.5 
787 2 2 2.01008 3.99475 1.99644 -40 0 1 -117.263 8.2673 16.137 1065.81 -448.177 -820.203 0 0 0 0.5 
911 2 2 0.397971 0.0253125 1.80908 -126 0 -1 -523.508 -4.81573 18.3369 1657.8 469.976 -1159.56 0 0 0 0.5 
335 1 1 1.78834 4.33011 0.00209035 -53 0 1 -41.7793 -8.78926 4.2025 -1515.27 -28.1662 1089.03 0 0 0 0.5 
999 2 2 1.18546 2.80249 0.241086 -20 0 0 -208.487 -5.78133 -8.70239 1662.97 -2267.92 -999.778 0 0 0 0.5 
548 2 2 1.12123 2.73899 1.18665 -73 0 1 -212.979 12.6695 -21.1347 1380.67 1828.21 -737.222 0 0 0 0.5 
9 1 1 4.62574 2.72134 1.7713 153 1 0 -175.477 -17.9095 -19.5685 122.369 524.733 282.726 0 0 0 0.5 
161 1 1 3.59119 4.98757 0.504296 -1 0 1 26.6733 -2.63862 7.5007 -570.395 -547.933 -1288.02 0 0 0 0.5 
859 2 2 3.75585 0.0899407 0.858057 -118 0 1 -509.388 5.45392 -16.0881 -497.14 759.542 1937.41 0 0 0 0.5 
549 2 2 1.31621 1.06188 0.00243872 -101 0 0 -428.603 24.0596 -11.7006 -273.143 -1948.44 -143.817 0 0 0 0.5 
670 2 2 0.466003 1.83332 1.41433 -20 0 1 -304.054 -7.64867 6.89986 434.512 -614.015 -4.53439 0 0 0 0.5 
677 2 2 3.31468 4.67149 1.76618 -18 0 1 -47.2439 -0.937317 0.383214 226.198 -1602.02 -1394.98 0 0 0 0.5 
843 2 2 1.27384 2.0375 1.54041 -4 0 1 -316.656 11.9542 23.5072 2138.32 -1326.23 1077.71 0 0 0 0.5 
341 1 1 2.66702 4.97112 0.827273 25 0 0 31.6578 4.39885 4.73066 -636.508 920.625 1230.31 0 0 0 0.5 
661 2 2 0.263573 2.54318 0.881863 -38 0 0 -231.981 -3.17296 -9.97051 1481.54 -1033.82 395.629 0 0 0 0.5 
461 1 1 4.57755 3.67608 1.92416 152 1 0 -150.398 0.681237 3.02052 1681.64 -2309.23 -108.962 0 0 0 0.5 
352 1 1 2.97029 1.27067 1.33008 -53 0 1 -361.168 15.3428 -14.3975 -1342.25 1732.12 -805.608 0 0 0 0.5 
225 1 1 0.508843 0.62662 0.21689 -46 0 1 -436.811 3.70929 -4.06172 -604.739 143.243 -1265.46 0 0 0 0.5 
201 1 1 1.86119 3.362 0.94547 -65 0 1 -136.973 -13.1028 -2.09043 -1385.69 -878.91 478.396 0 0 0 0.5 
416 1 1 0.573302 2.81688 1.91519 -66 0 0 -211.406 -11.136 -3.4511 3848.55 744.516 -388.339 0 0 0 0.5 
313 1 1 0.4778 0.894264 1.4001 -91 0 0 -416.184 -2.84104 -5.95304 690.893 -1640.94 1149.02 0 0 0 0.5 
196 1 1 1.45714 0.922775 1.38862 140 1 0 -411.845 16.0663 16.0898 -188.989 -281.262 269.531 0 0 0 0.5 
329 1 1 1.16132 0.294321 0.593804 -69 0 1 -466.74 -3.82838 7.12758 2350.33 420.222 56.893 0 0 0 0.5 
775 2 2 0.33116 1.43285 0.667262 -88 0 0 -375.435 9.28392 -13.5011 3606.32 -338.276 169.032 0 0 0 0.5 
565 2 2 1.28926 1.67477 0.685551 -49 0 1 -387.766 34.4706 -3.78862 375.578 273.624 243.38 0 0 0 0.5 
149 1 1 1.84256 4.22682 1.03336 -6 0 0 -84.8553 18.1334 0.230703 -128.685 -2530.46 -450.267 0 0 0 0.5 
1000 2 2 3.86432 3.70583 1.36695 -74 0 0 -152.382 0.896716 4.21649 -2128.84 1133.13 1180.22 0 0 0 0.5 
91 1 1 0.949794 4.23821 1.09133 -6 0 0 -115.913 22.9207 -33.6539 328.075 -474.642 -743.074 0 0 0 0.5 
157 1 1 4.62719 1.98383 1.07222 -35 0 1 -259.716 -2.64505 2.58603 -1004.56 -121.553 444.054 0 0 0 0.5 
941 2 2 3.68216 3.98768 0.542119 -5 0 0 -80.8118 3.16651 -20.842 1510.75 -437.624 1824.38 0 0 0 0.5 
106 1 1 4.14727 3.2058 0.129289 -36 0 0 -137.137 -7.29422 -25.9322 -1294.09 481.786 -1127.02 0 0 0 0.5 
260 1 1 4.63328 0.765065 0.601562 -91 0 1 -379.994 5.68809 3.56743 -1323.88 4289.22 740.516 0 0 0 0.5 
175 1 1 1.03413 4.56185 1.83661 11 0 0 -57.9384 14.6054 -16.0093 1000.02 101.445 279.322 0 0 0 0.5 
772 2 2 2.7591 3.66283 1.47686 -52 0 1 -125.017 -1.82782 15.4999 167.381 -612.795 708.725 0 0 0 0.5 
598 2 2 0.709178 3.50848 1.45696 -29 0 1 -182.03 19.9996 -10.1424 1446.62 1170.99 1422.61 0 0 0 0.5 
616 2 2 0.644428 3.60551 0.175151 -22 0 1 -114.618 0.475722 9.62467 2181.88 276.732 -382.658 0 0 0 0.5 
226 1 1 3.90454 0.288864 1.76652 -67 0 1 -444.885 -13.0313 23.9064 -919.631 -772.727 567.486 0 0 0 0.5 
495 1 1 4.78926 2.82316 0.540546 -53 0 1 -175.552 -13.38 -9.64478 2354.91 -1599.97 1281.94 0 0 0 0.5 
812 2 2 -0.0301783 4.20706 1.35216 40 0 1 -55.2062 18.4389 34.8184 1799.24 -1077.27 513.463 0 0 0 0.5 
903 2 2 2.96456 2.25885 0.713146 -28 0 0 -288.827 16.5403 9.60133 -10.0045 -348.42 1037.73 0 0 0 0.5 
820 2 2 3.42889 0.678861 1.60534 -69 0 0 -404.813 -4.2421 -0.989153 -2105.85 1095.06 -362.879 0 0 0 0.5 
374 1 1 0.0634622 3.92522 0.204458 -17 0 1 -91.8633 5.90075 0.874039 -853.432 -289.273 -784.616 0 0 0 0.5 
241 1 1 2.88381 4.06715 0.686552 180 1 1 -81.8466 -2.5817 22.3041 405.151 -1735.81 713.467 0 0 0 0.5 
597 2 2 4.05944 1.85369 1.88505 -55 0 1 -309.523 0.753258 -16.8937 250.636 314.26 -796.897 0 0 0 0.5 
783 2 2 4.5148 3.29352 1.04686 -28 0 1 -161.92 5.65332 -6.63051 -970.325 283.162 -910.064 0 0 0 0.5 
521 2 2 4.95613 0.00332273 0.0508622 -26 0 1 -518.676 4.04886 4.65951 2631.19 -1383.86 -177.272 0 0 0 0.5 
358 1 1 3.23327 3.24317 2.33155 -21 0 0 -140.007 -28.8571 -12.5888 386.714 -1199.28 -268.207 0 0 0 0.5 
332 1 1 2.44763 0.585791 2.4898 -101 0 0 -450.861 -4.70719 -7.0128 127.482 280.648 -88.7208 0 0 0 0.5 
427 1 1 0.436142 2.85346 3.01839 -7 0 0 -208.201 3.76604 -7.02762 3873.65 -2106.32 1352.94 0 0 0 0.5 
483 1 1 1.28116 1.01703 3.50003 80 1 0 -426.727 -6.71284 12.7258 457.938 -2876 669.786 0 0 0 0.5 
846 2 2 1.54902 2.62645 3.01358 -40 0 1 -243.738 -6.39792 -13.2862 798.449 1239.21 750.703 0 0 0 0.5 
208 1 1 1.64413 3.46021 3.99639 2 0 0 -153.477 17.9493 1.94131 1408.73 1804.16 150.81 0 0 0 0.5 
25 1 1 0.845825 2.38795 2.41693 -88 0 0 -237.506 -34.0046 9.24349 792.922 -2466.32 -269.569 0 0 0 0.5 
748 2 2 4.45419 2.40497 3.40729 116 1 -1 -242.055 -0.124393 3.86337 805.577 -1024.98 1070.04 0 0 0 0.5 
243 1 1 1.10509 1.71111 3.59178 -42 0 0 -342.522 6.47449 -37.9495 -91.8845 3357.79 704.979 0 0 0 0.5 
889 2 2 2.64919 4.77253 2.46052 1 0 0 -29.6258 16.4511 9.07492 215.083 1276.39 378.186 0 0 0 0.5 
433 1 1 0.176524 1.75479 3.28772 95 1 -1 -339.642 14.0978 -4.07374 2202.5 -1117.83 706.267 0 0 0 0.5 
925 2 2 4.50268 1.75983 3.96981 46 1 0 -291.601 -20.2679 15.8723 134.016 289.833 238.848 0 0 0 0.5 
79 1 1 2.62365 1.45002 2.28901 -59 0 1 -335.242 1.79642 14.5174 -58.6784 -288.109 66.9395 0 0 0 0.5 
265 1 1 1.53537 3.58846 3.07509 -47 0 1 -154.525 18.4745 8.15615 2153.97 -2721.48 -63.8353 0 0 0 0.5 
72 1 1 0.0398113 1.69063 2.33101 114 1 0 -330.485 -0.0845497 -5.38331 -2550.47 2457.41 1207.42 0 0 0 0.5 
516 2 2 3.86354 4.27231 2.1281 -84 0 1 -71.5983 -2.55352 31.8602 -1122.41 474.495 1548.82 0 0 0 0.5 
919 2 2 1.54234 0.683963 2.7764 -50 0 0 -459.194 22.6439 -18.6354 247.445 -802.338 -1203.24 0 0 0 0.5 
653 2 2 0.662826 2.61047 3.88397 157 1 0 -243.373 2.24518 26.7916 3030.81 -742.896 -292.426 0 0 0 0.5 
907 2 2 4.31452 1.19787 3.19222 -52 0 0 -375.618 25.6443 -11.2536 168.025 1680.97 30.5502 0 0 0 0.5 
380 1 1 1.09123 3.4292 2.42113 -33 0 1 -159.935 -11.4879 -14.1239 2019.23 -416.823 -827.79 0 0 0 0.5 
333 1 1 3.99407 2.96711 3.03093 -5 0 0 -212.072 4.94524 -3.41198 11.7516 487.439 -1380.47 0 0 0 0.5 
728 2 2 3.86482 4.69721 3.96087 23 0 0 -47.7221 4.17154 -22.3065 1132.62 -33.8576 -1832.26 0 0 0 0.5 
75 1 1 4.67632 3.70552 3.47678 104 1 1 -146.918 1.63033 -0.407663 0 0 0 0 0 0 0.5 
421 1 1 0.385819 0.45548 3.09645 103 1 0 -444.649 3.70831 11.5169 193.702 1248.77 -1161.62 0 0 0 0.5 
394 1 1 0.270458 0.918401 3.89709 75 1 -1 -405.229 4.8384 8.25854 3542.18 504.092 -235.576 0 0 0 0.5 
222 1 1 0.717162 1.05908 2.31523 148 1 1 -460.594 22.3585 12.6806 3970.8 -3005.23 320.109 0 0 0 0.5 
258 1 1 3.42158 1.00026 3.22415 -63 0 1 -382.911 3.17892 -22.65 -1736 191.393 -112.729 0 0 0 0.5 
804 2 2 1.12665 0.28137 2.00493 -103 0 0 -513.674 26.1867 -1.11427 1729.07 202.888 -1651.47 0 0 0 0.5 
18 1 1 3.58686 3.42624 3.32415 -24 0 1 -178.083 -4.86233 19.4225 -1294.41 991.398 274.191 0 0 0 0.5 
33 1 1 3.00694 1.58738 3.59377 150 1 0 -357.298 24.9457 6.63234 -2287.62 1481.54 -1305.38 0 0 0 0.5 
905 2 2 4.36029 2.43138 2.54929 -28 0 0 -266.541 1.17495 -22.807 -1555.02 451.964 -1576.62 0 0 0 0.5 
351 1 1 1.32092 4.28809 2.5149 -20 0 1 -91.1805 10.1145 18.4327 81.6261 -3188.48 -953.767 0 0 0 0.5 
211 1 1 3.58941 0.20257 2.93532 76 1 0 -475.137 0.790267 -19.7564 -143.285 -1021.38 -694.749 0 0 0 0.5 
185 1 1 1.76583 4.72014 3.682 12 0 0 -33.9313 -3.8061 5.65742 1833.1 -575.892 -110.816 0 0 0 0.5 
770 2 2 2.97083 4.05703 2.51356 -43 0 0 -86.7652 -16.6551 7.09454 401.627 -442.742 -169.828 0 0 0 0.5 
12 1 1 2.52477 2.70299 3.48424 -75 0 0 -240.413 1.48454 -19.0281 450.013 -42.8538 -528.285 0 0 0 0.5 
921 2 2 3.43509 4.20174 3.30809 -52 0 1 -101.266 11.7703 14.4142 1173.28 437.642 -1360.53 0 0 0 0.5 
304 1 1 4.3485 0.0845305 2.32984 -73 0 0 -439.775 -8.86047 43.4901 -2628.25 917.949 364.872 0 0 0 0.5 
272 1 1 2.97215 0.292734 3.64655 -98 0 0 -461.506 -9.35591 -10.9765 49.9503 344.378 -1281.39 0 0 0 0.5 
666 2 2 2.91081 4.7773 3.58507 24 0 0 -75.7866 19.49 0.875566 -1538.97 1821.89 798.624 0 0 0 0.5 
865 2 2 4.19032 1.06031 2.25285 -48 0 -1 -370.842 -20.4306 -5.06699 -1557.12 1140.21 -164.362 0 0 0 0.5 
186 1 1 1.83629 2.00681 3.85111 76 1 0 -304.175 3.01884 -43.2404 -149.403 -202.015 -370.183 0 0 0 0.5 
404 1 1 1.03093 4.90708 2.75009 8 0 0 -15.409 9.15927 6.47259 244.62 560.845 342.766 0 0 0 0.5 
378 1 1 4.46273 0.52267 3.54119 -100 0 0 -446.112 -5.20762 -8.92426 627.39 -299.744 -50.0551 0 0 0 0.5 
445 1 1 0.216269 4.13481 3.44085 -16 0 0 -167.987 27.8289 6.94 1734.22 -2438.76 -1962.42 0 0 0 0.5 
662 2 2 3.32587 2.26859 2.57505 -38 0 1 -272.857 -1.92753 16.7751 0 0 0 0 0 0 0.5 
446 1 1 0.884983 3.72626 3.45783 -30 0 1 -163.473 7.85958 21.3441 -743.848 -240.099 735.925 0 0 0 0.5 
206 1 1 0.365894 3.7326 2.47406 -49 0 1 -137.863 16.4776 3.21643 -878.724 1419.4 483.634 0 0 0 0.5 
742 2 2 2.51757 3.87836 3.8325 8 0 -1 -148.814 12.3288 -11.641 133.767 -240.684 -490.427 0 0 0 0.5 
193 1 1 2.28989 0.730959 3.9917 112 1 0 -423.723 16.5877 -23.6978 -1769.14 1447.92 477.12 0 0 0 0.5 
204 1 1 4.92065 0.965255 2.25559 -102 0 1 -347.4 -7.98617 -7.83246 238.66 -53.3637 -622.272 0 0 0 0.5 
853 2 2 4.9627 1.95634 2.69705 87 1 0 -295.673 4.02265 -20.4343 39.7057 -280.483 -131 0 0 0 0.5 
703 2 2 1.94634 0.0748569 4.75962 -104 0 0 -531.187 2.94372 24.4656 -1886.93 1755.11 1032.92 0 0 0 0.5 
746 2 2 4.42145 3.00296 5.1045 -9 0 0 -192.259 4.25724 2.45918 -447.132 -1877.6 -1.04753 0 0 0 0.5 
493 1 1 2.20787 0.608761 5.71274 138 1 0 -421.328 16.2361 17.4386 -145.079 1565.65 677.353 0 0 0 0.5 
967 2 2 2.12611 0.913697 4.92196 103 1 -1 -374.187 -5.91113 -10.4894 746.5 9.11169 -978.042 0 0 0 0.5 
43 1 1 0.652447 0.938106 5.87362 -70 0 0 -458.631 32.7125 -12.3294 -268.935 -906.905 -98.3884 0 0 0 0.5 
173 1 1 1.54308 1.34374 5.42435 92 1 0 -364.413 -16.8902 8.20774 -1149.98 -89.347 620.397 0 0 0 0.5 
39 1 1 0.261572 2.71296 4.78924 -73 0 0 -246.89 19.5376 11.1547 1325.82 1583.7 314.797 0 0 0 0.5 
863 2 2 2.2562 3.08281 5.67268 -26 0 0 -166.422 -14.4755 1.79905 -2776.16 2668.9 -1998.74 0 0 0 0.5 
228 1 1 1.62862 3.28767 4.96835 -79 0 1 -184.236 -0.802706 18.1466 2109.71 -958.971 -1474.01 0 0 0 0.5 
860 2 2 3.21768 4.23078 4.81179 -17 0 1 -104.371 4.37469 21.015 2174.55 370.312 2974.26 0 0 0 0.5 
207 1 1 3.25935 0.492964 5.68125 114 1 1 -456.67 2.39053 22.512 -3252.06 1119.62 -381.69 0 0 0 0.5 
434 1 1 2.37932 1.55124 5.7398 -59 0 0 -363.832 16.8187 1.88814 -2323.55 1129.8 974.279 0 0 0 0.5 
232 1 1 1.32745 2.22626 5.30435 -52 0 1 -285.702 4.95379 -6.26565 -1179.81 738.267 720.234 0 0 0 0.5 
321 1 1 1.69536 3.83125 5.79887 5 0 -1 -141.26 0.293477 35.1983 1767.72 -1263.35 -1104.73 0 0 0 0.5 
580 2 2 4.24644 0.234685 4.44707 112 1 0 -531.341 12.5947 -9.20004 -2791.37 11304 -4045.04 0 0 0 0.5 
626 2 2 2.32735 1.6399 4.43641 -20 0 -1 -299.069 -13.8085 -24.4826 933.581 -1231.87 -848.585 0 0 0 0.5 
350 1 1 4.70873 2.62018 4.30344 78 1 0 -214.724 -3.85447 0.964705 -1314.05 -2065.12 -458.93 0 0 0 0.5 
277 1 1 0.00361761 2.38111 5.59528 -106 0 1 -255.752 -4.84844 -16.9198 1689.33 -2599.97 -1854.02 0 0 0 0.5 
290 1 1 1.08084 0.691997 4.41636 101 1 0 -422.796 4.40483 18.0692 351.908 -499.486 30.6461 0 0 0 0.5 
214 1 1 1.90048 2.76244 4.2171 6 0 0 -226.217 8.05445 -15.8988 563.759 -2012.85 1153.35 0 0 0 0.5 
870 2 2 2.73228 4.82016 5.59168 12 0 0 34.021 -19.0045 -7.79676 -1134.53 -169.791 373.545 0 0 0 0.5 
96 1 1 0.0432613 1.01332 4.80239 -59 0 0 -379.494 1.24054 18.9732 3195.65 -2267.24 326.255 0 0 0 0.5 
611 2 2 4.27428 2.05869 5.10663 -24 0 0 -287.711 -14.9241 -6.22805 -1168.74 1353.34 263.317 0 0 0 0.5 
615 2 2 3.7695 0.656459 4.01437 105 1 0 -468.096 -7.23591 -9.20583 -2165.62 1610.43 -1091.43 0 0 0 0.5 
781 2 2 4.20605 0.836359 5.14116 97 1 0 -449.262 41.0797 -0.424917 -988.969 728.486 741.258 0 0 0 0.5 
200 1 1 2.00508 2.15251 4.88458 -111 0 0 -265.865 10.8422 -4.18381 378.348 534.77 954.174 0 0 0 0.5 
331 1 1 2.35097 4.14108 4.68037 3 0 0 -113.869 -4.57327 8.69344 -218.105 88.8595 271.868 0 0 0 0.5 
918 2 2 3.1586 1.24286 5.69764 -64 0 0 -392.026 39.1277 -5.34116 1987.5 602.764 2207.87 0 0 0 0.5 
895 2 2 3.48957 3.85893 5.99202 -69 0 0 -101.504 -2.04065 -0.947355 -615.785 1190.73 1713.52 0 0 0 0.5 
182 1 1 4.24453 4.64292 5.96004 55 0 -1 14.0216 -21.7916 33.1694 571.624 -272.312 -294.569 0 0 0 0.5 
78 1 1 1.46905 4.17781 5.03003 11 0 1 -119.383 -1.2391 -4.64541 1536.29 -240.876 592.422 0 0 0 0.5 
513 2 2 0.810831 3.27627 5.4048 -58 0 0 -164.864 -4.13213 0.0734834 -2567.39 -765.807 176.354 0 0 0 0.5 
658 2 2 3.74871 3.35783 5.27092 -28 0 0 -184.831 4.75006 -3.60231 726.702 1415.53 -773.018 0 0 0 0.5 
361 1 1 2.87512 3.34194 5.05146 -24 0 0 -169.096 1.86394 2.4624 -1187.51 989.927 -622.344 0 0 0 0.5 
743 2 2 4.14212 3.29971 4.24266 -42 0 0 -195.591 -1.46859 -14.7091 2680.42 -1406.55 -166.847 0 0 0 0.5 
600 2 2 0.928846 3.7419 4.40119 -25 0 1 -128.386 -22.7464 34.6701 -1227.87 -2023.04 306.954 0 0 0 0.5 
806 2 2 0.957321 4.25825 5.87405 -69 0 0 -109.959 17.4773 15.6043 -1612.7 1278.71 -742.484 0 0 0 0.5 
231 1 1 0.560202 4.32716 4.32892 -33 0 1 -71.1309 18.7657 -6.05895 -1908.04 1445.11 -483.116 0 0 0 0.5 
641 2 2 3.15161 3.32174 4.18318 -11 0 0 -149.691 -9.28352 2.85618 -2570.87 592.9 993.54 0 0 0 0.5 
620 2 2 4.1084 4.26843 5.22263 3 0 0 -67.4641 -7.77829 -9.93669 1373.49 -4457.15 -727.773 0 0 0 0.5 
527 2 2 1.70012 4.91447 4.82795 24 0 0 50.543 11.1389 -52.5867 2433.99 -2714.97 -1722.85 0 0 0 0.5 
605 2 2 3.61287 4.90332 5.41745 15 0 0 30.4745 -0.49162 1.19354 -1088.25 -1176.68 -388.903 0 0 0 0.5 
741 2 2 0.207647 4.08998 5.3341 -90 0 0 -97.9553 -8.36421 -19.2126 704.924 97.966 -338.271 0 0 0 0.5 
856 2 2 0.381567 0.0246438 5.77452 -106 0 0 -524.478 24.0352 -4.45633 359.629 308.607 -878.301 0 0 0 0.5 
980 2 2 3.01244 0.086105 4.90944 99 1 1 -527.201 11.449 9.15404 -520.13 -68.8897 -346.136 0 0 0 0.5 
322 1 1 3.63019 1.33677 4.24063 42 1 0 -399.989 39.7192 1.32603 1640.77 347.068 1686.2 0 0 0 0.5 
692 2 2 3.4819 0.977106 4.96535 108 1 0 -452.108 10.5735 4.63377 -1527.57 -557.96 -2653 0 0 0 0.5 
910 2 2 3.83296 4.02472 4.3848 -24 0 1 -135.738 7.45979 -10.4465 345.95 -307.859 -240.766 0 0 0 0.5 
205 1 1 3.793 2.31641 5.97606 -108 0 -1 -275.397 9.08611 -12.3003 -254.764 406.366 -61.8428 0 0 0 0.5 
798 2 2 4.16155 0.183095 5.58009 -115 0 0 -513.671 11.6166 5.9588 1937.88 -1185.55 -883.502 0 0 0 0.5 
880 2 2 4.60908 3.64481 5.86792 26 0 0 -200.848 24.9902 5.58621 -1024.48 113.145 285.739 0 0 0 0.5 
105 1 1 4.98021 0.605362 4.99946 72 1 0 -495.952 21.4421 -5.54834 -8320.39 -10428.5 -10262.5 0 0 0 0.5 
890 2 2 2.61531 4.57665 6.50204 -23 0 0 8.31543 -12.6987 -3.61061 -2207.87 -218.849 -866.579 0 0 0 0.5 
568 2 2 2.13571 3.15215 6.54083 -37 0 0 -140.543 -31.1068 12.8485 -193.753 -1009.46 206.207 0 0 0 0.5 
454 1 1 3.26837 0.668316 7.30497 120 1 0 -417.951 3.30679 -9.46289 -1370.18 246.056 850.602 0 0 0 0.5 
145 1 1 0.328368 0.141094 6.69448 102 1 0 -488.505 7.2044 -2.67148 -184.294 -606.554 690.667 0 0 0 0.5 
795 2 2 3.57663 2.52274 7.11761 -58 0 0 -217.015 3.94453 1.68894 2491.98 -1941.81 1664.93 0 0 0 0.5 
383 1 1 4.03617 1.89915 7.97082 -41 0 0 -292.149 17.03 -4.43726 4226.86 -4480.66 641.799 0 0 0 0.5 
257 1 1 1.20847 2.77217 7.571 -28 0 0 -189.264 -13.4417 3.70962 272.665 -524.986 -156.062 0 0 0 0.5 
794 2 2 4.15602 3.09484 6.54922 45 0 0 -187.516 -2.94158 8.75231 -2261.22 592.489 329.938 0 0 0 0.5 
502 2 2 2.07166 0.804431 6.72615 -96 0 0 -412.59 21.7209 -14.1179 -1576.05 2379.79 -333.385 0 0 0 0.5 
975 2 2 0.501423 1.04837 6.88065 117 1 1 -390.668 -21.3814 31.0577 366.006 1620.15 74.2635 0 0 0 0.5 
439 1 1 1.24758 2.44795 6.22273 -23 0 0 -242.196 -4.91456 13.4099 -198.431 32.4624 -243.591 0 0 0 0.5 
729 2 2 2.50343 0.141689 6.8757 119 1 1 -477.578 7.35931 16.7598 18.0757 -2551.11 679.58 0 0 0 0.5 
958 2 2 4.13572 0.642943 7.18134 117 1 1 -423.811 4.66183 11.2323 472.146 1253.27 -1156.6 0 0 0 0.5 
86 1 1 1.9991 3.59162 7.80474 -21 0 1 -118.831 -28.1369 -11.9817 -241.602 520.476 581.252 0 0 0 0.5 
608 2 2 0.145246 2.28885 6.40834 -28 0 0 -249.575 -4.28537 -21.2578 2200.41 -524.805 1519.85 0 0 0 0.5 
2 1 1 2.01756 2.57841 7.36718 -13 0 0 -181.352 -1.79491 14.4698 1230.32 -212.438 -141.925 0 0 0 0.5 
996 2 2 0.696229 1.81679 6.81975 -12 0 -1 -273.881 7.26056 24.9816 856.972 -1839.03 883.643 0 0 0 0.5 
972 2 2 2.17955 3.88027 6.90197 24 0 -1 -87.3931 -13.1976 -15.7677 1349.38 1091.8 -708.746 0 0 0 0.5 
687 2 2 2.09423 2.15866 6.52744 94 1 0 -240.595 -22.1794 10.994 -626.08 -752.144 502.335 0 0 0 0.5 
66 1 1 1.92224 0.842036 7.71034 -22 0 0 -385.471 2.03595 -4.56448 389.465 -100.797 6.48132 0 0 0 0.5 
250 1 1 4.16237 2.87207 7.83951 -37 0 0 -240.459 19.9047 25.9701 1231.33 1526.67 -79.195 0 0 0 0.5 
343 1 1 0.419727 2.77143 7.0848 -19 0 0 -185.049 8.92721 -22.8367 55.8695 5.23391 -493.388 0 0 0 0.5 
148 1 1 1.92467 4.40728 7.42502 -16 0 0 -35.5408 7.141 0.211877 1552.54 -512.332 636.295 0 0 0 0.5 
369 1 1 1.04505 3.60592 7.57086 -32 0 0 -122.1 10.859 3.87046 2637.52 -2751.66 685.06 0 0 0 0.5 
23 1 1 2.88521 1.41642 6.53073 -76 0 0 -364.85 8.96462 30.4096 76.6959 302.297 -92.1811 0 0 0 0.5 
800 2 2 2.97479 4.75198 7.69884 164 1 -1 -32.732 -2.06697 -33.1852 -454.916 -444.82 -204.216 0 0 0 0.5 
530 2 2 4.75663 2.42959 7.27041 -37 0 1 -273.453 19.61 -8.9429 -1996.54 1447.77 315.713 0 0 0 0.5 
936 2 2 1.37921 4.50372 7.98008 5 0 0 -46.9636 -2.04683 3.97567 -1084.08 1159.4 352.426 0 0 0 0.5 
169 1 1 0.526732 4.24408 7.42749 124 1 0 -42.0762 -3.85451 -7.27568 -1801.92 1778.32 -986.253 0 0 0 0.5 
146 1 1 3.78145 4.61623 7.86958 -7 0 0 -26.9329 5.24823 -31.3883 1318.48 -135.172 487.746 0 0 0 0.5 
326 1 1 0.234155 4.05312 6.47715 -17 0 0 -104.203 6.98643 14.4157 117.631 -79.2203 657.009 0 0 0 0.5 
778 2 2 4.60129 1.84671 6.02056 -115 0 1 -282.243 9.88076 5.80935 -1954.8 3225.3 -932.611 0 0 0 0.5 
583 2 2 4.39463 0.610679 6.38241 -61 0 1 -455.129 15.4298 -5.6187 735.369 -1975.49 -1629.45 0 0 0 0.5 
592 2 2 2.7875 3.8873 7.84204 -18 0 -1 -104.132 8.91779 -10.8677 -31.1906 -611.429 265.074 0 0 0 0.5 
637 2 2 3.55009 1.66374 7.18999 -52 0 1 -302.349 -16.7445 5.99717 -1098.16 -73.4858 -530.3 0 0 0 0.5 
189 1 1 2.81858 2.41001 6.00989 108 1 0 -268.917 4.26355 -5.01455 3118.09 -3016.58 1100.81 0 0 0 0.5 
303 1 1 4.2553 1.47699 6.70277 101 1 0 -318.372 -5.01231 -14.0565 154.01 1322.42 1477.22 0 0 0 0.5 
654 2 2 3.03474 4.01176 6.86955 -61 0 1 -60.9922 5.96883 -5.67681 2301.59 -2850.56 2312.01 0 0 0 0.5 
465 1 1 1.09337 3.59287 6.64752 -4 0 0 -102.546 -3.89889 -11.1948 -10.0888 4.05939 95.7983 0 0 0 0.5 
960 2 2 2.91076 1.6669 7.77885 122 1 0 -310.666 -12.6326 7.08744 38.9425 1504.31 544.54 0 0 0 0.5 
56 1 1 3.12873 3.09592 6.69643 -29 0 0 -151.676 -4.54729 -3.60763 -1869.37 1909.12 -1916.67 0 0 0 0.5 
547 2 2 4.39826 3.67304 7.33275 65 0 0 -99.7504 3.7574 5.84072 -341.766 -1160.5 734.218 0 0 0 0.5 
569 2 2 4.78691 0.031626 7.02863 149 1 -1 -475.255 -9.4705 4.04258 277.204 -923.401 -1555.6 0 0 0 0.5 
118 1 1 4.94855 0.233392 7.88923 111 1 0 -452.135 -2.14027 6.1278 -1221.54 1959.67 -903.392 0 0 0 0.5 
345 1 1 4.95799 2.88979 6.40022 105 1 0 -201.808 16.652 -14.9781 175.271 1942.58 533.42 0 0 0 0.5 
38 1 1 1.79779 2.11748 9.25502 -55 0 0 -260.281 7.15484 13.8232 932.142 174.434 123.019 0 0 0 0.5 
912 2 2 1.73548 3.93984 8.60024 19 0 -1 -72.4633 -2.41357 35.1895 -2482.53 1014.75 -1069 0 0 0 0.5 
431 1 1 1.64677 1.27266 9.18557 -59 0 -1 -334.18 -13.6906 -22.3005 -650.074 -844.745 1038.81 0 0 0 0.5 
750 2 2 0.338688 0.439106 9.0889 -77 0 0 -427.945 -2.75713 -20.8012 499.987 2346.75 -1216.06 0 0 0 0.5 
766 2 2 4.37244 1.05094 9.7515 -53 0 0 -359.492 27.1238 1.26539 1091.42 -721.713 -611.67 0 0 0 0.5 
65 1 1 0.315345 1.73428 9.8315 -21 0 0 -284.405 -13.503 -16.7196 1542.72 -846.314 -1625.81 0 0 0 0.5 
740 2 2 2.48221 3.52919 8.68704 -46 0 0 -106.634 2.16793 -3.49985 363.647 1613.16 1496.73 0 0 0 0.5 
415 1 1 2.6731 4.35477 9.04979 3 0 -1 -46.7656 -1.03133 8.09382 168.153 -874.384 -195.613 0 0 0 0.5 
861 2 2 1.78243 2.04149 8.24767 -16 0 0 -224.772 -12.2388 8.18002 0 0 0 0 0 0 0.5 
717 2 2 2.69564 1.23037 9.47145 -44 0 0 -361.32 1.04383 35.5715 -888.806 604.412 -943.159 0 0 0 0.5 
805 2 2 3.90583 2.49276 8.72623 -74 0 -1 -206.335 -0.379539 49.9817 2238.49 -2072.86 -2647.69 0 0 0 0.5 
754 2 2 0.968028 1.09805 8.33364 -66 0 0 -395.933 16.6875 -7.64643 283.807 -358.631 50.92 0 0 0 0.5 
307 1 1 2.30742 0.284746 9.05345 127 1 -1 -454.568 11.2159 14.5572 -279.833 460.305 -1013.19 0 0 0 0.5 
708 2 2 2.76317 0.665519 8.1351 -88 0 0 -380.473 4.72428 22.4916 -897.509 -1951.75 1.96432 0 0 0 0.5 
242 1 1 3.35416 4.09761 8.80225 -171 -1 0 -71.6518 9.23231 -17.3716 2770.24 -2340.29 -300.227 0 0 0 0.5 
924 2 2 1.36313 2.98515 8.50705 -40 0 0 -196.121 11.3289 13.7304 1107.91 179.276 -10.9937 0 0 0 0.5 
923 2 2 0.861189 2.20779 9.02368 81 1 -1 -252.882 -3.41986 -2.84729 -517.461 49.8933 -127.81 0 0 0 0.5 
940 2 2 4.6794 4.35523 8.16097 22 0 -1 -36.8649 -10.284 -12.6395 2007 -1670.22 -2155.32 0 0 0 0.5 
594 2 2 4.32373 0.26068 9.59965 -70 0 0 -472.775 -19.5143 -9.52634 -3841.55 3921.77 28.8823 0 0 0 0.5 
29 1 1 2.28858 0.164148 9.92842 70 1 -1 -476.203 21.2527 12.7263 -841.095 1517.22 1053.17 0 0 0 0.5 
190 1 1 1.8896 3.52316 9.68934 -23 0 0 -147.975 -4.8088 -1.35799 -157.343 -1297.6 -372.179 0 0 0 0.5 
901 2 2 1.32841 0.388779 9.32463 -67 0 -1 -437.76 -8.67439 -5.34324 442.114 1493.09 54.3284 0 0 0 0.5 
908 2 2 2.32682 2.87522 9.2929 -56 0 0 -164.211 -20.8157 -11.9575 -387.867 -1056.03 -734.039 0 0 0 0.5 
227 1 1 1.5832 0.320688 8.44401 -72 0 0 -415.099 -11.6185 -17.6976 -1132.65 426.013 -615.67 0 0 0 0.5 
35 1 1 2.97309 2.55603 9.82803 -95 0 1 -163.829 -21.4765 6.54914 311.258 199.631 -788.278 0 0 0 0.5 
424 1 1 3.29371 2.50687 8.01236 0 0 0 -191.185 -22.9808 17.3185 -5129.83 -51.5413 -205.264 0 0 0 0.5 
270 1 1 0.518283 2.78569 8.20239 -61 0 0 -173.972 -13.2734 -3.68664 1066.9 -1175.5 340.71 0 0 0 0.5 
291 1 1 4.71097 1.06088 8.06483 -73 0 0 -379.025 27.2497 2.6019 -1230.15 2432.81 847.937 0 0 0 0.5 
986 2 2 1.34772 4.89474 9.77984 45 0 0 -5.27758 12.8364 2.10097 -671.876 -509.563 -728.628 0 0 0 0.5 
74 1 1 0.415599 4.06864 8.32401 29 0 0 -88.2712 18.5347 -7.50942 -90.5569 -142.954 730.529 0 0 0 0.5 
532 2 2 0.837736 4.98451 8.96426 31 0 -1 18.2967 15.7278 -6.22799 -741.985 -929.935 -67.0852 0 0 0 0.5 
881 2 2 4.5203 3.81665 9.06881 -9 0 -1 -75.2427 -31.2822 -4.10823 391.344 623.279 231.111 0 0 0 0.5 
486 1 1 3.83734 0.960063 8.04208 101 1 0 -377.285 -2.37897 -15.6935 -2084.94 1801.1 2045.91 0 0 0 0.5 
158 1 1 2.82792 1.67926 8.66147 1 0 0 -295.868 7.25621 20.0519 -148.836 -333.244 1131.15 0 0 0 0.5 
510 2 2 0.476707 4.14124 9.34415 -36 0 -1 -35.7225 16.2223 4.56438 1727.26 614.509 551.127 0 0 0 0.5 
156 1 1 4.40111 4.56657 9.54733 25 0 0 -28.9589 -7.11774 24.7835 1518.38 6.33468 -1174.29 0 0 0 0.5 
816 2 2 2.09308 4.84633 9.1817 -5 0 0 2.70868 1.37773 16.0765 -2225.72 1104.35 -442.342 0 0 0 0.5 
138 1 1 3.26452 3.14765 9.0555 -36 0 0 -150.398 -5.1493 16.061 -275.872 2634.33 1376.02 0 0 0 0.5 
450 1 1 3.56987 0.640414 8.8347 59 1 -1 -416.635 5.26206 7.5248 -1502.63 697.733 1144.08 0 0 0 0.5 
536 2 2 3.49214 1.01783 9.73621 -109 0 -1 -357.319 -0.601665 39.1751 -222.031 -687.598 -589.81 0 0 0 0.5 
496 1 1 4.20438 4.77285 8.72868 95 0 0 -0.333579 -17.2387 -27.7735 -1028.53 -59.7492 1990.34 0 0 0 0.5 
219 1 1 3.45351 4.40607 9.70717 16 0 -1 -15.076 -15.6358 0.669918 -1531.57 1074.58 -1677.12 0 0 0 0.5 
902 2 2 0.349159 3.26036 9.25329 132 1 0 -146.053 2.31406 7.79072 902.487 670.335 -336.709 0 0 0 0.5 
478 1 1 2.70727 2.96649 8.244 3 0 0 -182.472 -16.3994 8.52059 -841.838 -1060.17 -1244.21 0 0 0 0.5 
826 2 2 4.89487 1.8364 8.93647 163 1 -1 -275.902 14.1521 8.60346 -1380.66 1297.53 714.388 0 0 0 0.5 
49 1 1 4.9157 2.42855 9.8113 -6 0 0 -185.069 -11.721 -9.27171 -21.224 465.772 -2280.3 0 0 0 0.5 
684 2 2 3.05265 6.51663 1.68315 45 0 0 133.92 -4.21853 -0.106732 -658.135 -453.576 50.6141 0 0 0 0.5 
357 1 1 4.4528 8.52628 1.01037 -160 -1 1 294.903 20.126 -7.45254 2.16481 32.7297 -18.8995 0 0 0 0.5 
209 1 1 3.45804 7.62089 1.85049 -139 -1 0 255.684 6.72555 -9.26707 1713.31 -3112.16 -1057.76 0 0 0 0.5 
319 1 1 3.35492 6.39015 0.52803 -4 0 0 184.383 -22.5018 -16.1356 -3731.59 2238.05 -403.624 0 0 0 0.5 
664 2 2 0.779155 8.79504 1.76091 40 0 0 352.438 15.7667 -22.5165 -263.729 -772.222 2781.35 0 0 0 0.5 
995 2 2 1.53814 9.67015 1.45126 -84 -1 1 461.228 14.2404 -12.1227 832.623 -41.3057 91.8169 0 0 0 0.5 
554 2 2 4.05019 5.97328 0.603531 -88 -1 0 144.575 -13.0875 5.37255 509.618 191.658 2370.73 0 0 0 0.5 
162 1 1 4.75416 9.92226 0.944888 72 0 0 481.362 6.01594 -21.2879 2819.76 -2892.64 1256.55 0 0 0 0.5 
946 2 2 3.37377 8.645 0.263812 40 0 0 358.708 3.20563 0.729242 552.576 -1608.2 -900.932 0 0 0 0.5 
570 2 2 3.8427 5.48108 1.3613 -141 -1 1 20.5035 13.5271 11.8024 595.595 -1271.51 -1875.87 0 0 0 0.5 
720 2 2 3.59196 6.12908 1.97432 18 0 0 71.0428 11.7044 -3.05845 2626.57 -191.125 2100.97 0 0 0 0.5 
965 2 2 3.14684 9.41694 0.362249 23 0 -1 446.262 2.41572 10.7517 1763.16 2746.11 1985 0 0 0 0.5 
368 1 1 0.0467023 7.4809 0.154474 -12 0 0 260.351 5.68881 -0.384746 3755.01 -614.917 1065.37 0 0 0 0.5 
133 1 1 2.57044 9.37277 1.29494 94 0 1 447.803 -6.64072 -12.1245 -165.739 37.2221 -204.782 0 0 0 0.5 
266 1 1 0.378404 8.55732 1.20112 -102 -1 0 344.963 -6.54991 -21.9874 -76.464 -569.524 -1145.37 0 0 0 0.5 
135 1 1 1.46922 6.58781 0.393332 -5 0 0 157.528 5.17763 -21.5202 -795.897 981.707 -1720.62 0 0 0 0.5 
726 2 2 3.27224 7.31899 0.20571 91 0 0 274.467 0.992997 -1.4694 1905.11 -328.621 -1268.8 0 0 0 0.5 
153 1 1 1.08142 5.66547 0.952956 28 0 0 73.2882 -21.6036 4.40747 -2248.61 2398.16 -302.679 0 0 0 0.5 
850 2 2 3.13709 7.16764 1.11983 69 0 1 224.2 2.89193 -1.3084 -1472.88 2543.26 780.65 0 0 0 0.5 
477 1 1 0.685962 9.52121 1.15815 76 0 0 458.722 -13.2156 1.48132 -1776.74 4775.48 -79.1344 0 0 0 0.5 
690 2 2 0.0391475 9.73739 0.670684 60 0 0 486.73 10.0605 -10.3988 -17.2016 589.913 -1404.91 0 0 0 0.5 
334 1 1 3.34401 8.06482 0.920339 38 0 0 319.885 6.83546 21.9567 1956.13 -1198.72 642.081 0 0 0 0.5 
224 1 1 4.02575 9.49348 0.290939 -92 -1 1 460.018 0.0779401 -32.1097 638.812 -595.621 -608.218 0 0 0 0.5 
955 2 2 4.51747 5.00733 0.808185 11 0 1 10.8252 -5.41005 14.1821 1871.56 2555.67 -58.0874 0 0 0 0.5 
507 2 2 4.17863 9.18956 1.88081 -73 -1 0 443.609 -9.56802 6.07778 103.307 1380.34 -20.1678 0 0 0 0.5 
444 1 1 4.39624 7.67125 1.5041 31 0 1 253.029 20.1766 -9.47772 -35.9148 -243.356 -1452.83 0 0 0 0.5 
927 2 2 2.4126 5.70642 1.41073 15 0 1 50.7041 15.5298 -3.81095 -823.9 595.307 -980.426 0 0 0 0.5 
32 1 1 0.870272 9.40374 0.171534 137 0 0 423.334 9.40798 -14.1374 926.662 -67.8576 1514.99 0 0 0 0.5 
411 1 1 1.02641 5.6908 0.0169727 -31 0 0 68.7686 6.46327 -0.46302 -1002.73 2543.27 469.937 0 0 0 0.5 
976 2 2 2.94811 5.32778 1.73615 51 0 0 18.2018 20.6316 16.0771 1441.35 -373.973 654.557 0 0 0 0.5 
701 2 2 4.26048 9.94147 1.37648 44 0 0 504.057 -11.5271 12.7369 832.667 -1310.81 411.4 0 0 0 0.5 
373 1 1 2.5212 8.23987 0.842754 -75 -1 0 332.356 -0.346748 -9.51347 -1212.48 -880.809 -1375.74 0 0 0 0.5 
962 2 2 1.92686 8.67554 0.226915 -62 -1 0 344.969 10.0316 -16.9625 164.303 78.8478 -541.897 0 0 0 0.5 
973 2 2 1.81086 6.1664 1.13192 -30 0 1 72.6556 38.9314 6.46549 -1529.29 11.8039 685.924 0 0 0 0.5 
712 2 2 2.5002 7.31385 0.482608 62 0 0 268.784 -20.1356 -11.2282 -3221.15 1312.82 -689.882 0 0 0 0.5 
365 1 1 2.48428 9.54688 0.0200518 -108 -1 0 463.966 -36.8135 -12.0168 -1878.74 -1169.21 -1138.28 0 0 0 0.5 
312 1 1 1.82963 5.57586 0.424857 -8 0 1 81.6121 8.86355 15.9482 -1531.91 262.904 932.394 0 0 0 0.5 
275 1 1 2.02155 8.40937 1.56379 -61 -1 0 348.215 -1.39626 -2.50562 398.974 188.26 78.8776 0 0 0 0.5 
447 1 1 0.0964165 6.80123 0.59915 54 0 1 182.729 -15.4385 -9.61971 -493.04 -760.04 1983.53 0 0 0 0.5 
533 2 2 1.72672 5.03132 1.19448 186 1 0 30.5785 16.5632 32.7885 1993.01 358.957 1091.52 0 0 0 0.5 
99 1 1 4.66076 7.46332 0.506183 -80 -1 0 288.52 -13.9693 18.3893 134.064 -56.3669 134.443 0 0 0 0.5 
938 2 2 4.63576 6.55158 1.22817 14 0 0 163.878 3.83873 -5.70065 1308.1 -349.431 -56.3772 0 0 0 0.5 
832 2 2 0.175748 6.069 1.86924 -30 0 0 76.1215 -13.8419 13.6635 -916.369 -883.846 670.621 0 0 0 0.5 
448 1 1 0.300815 5.05872 1.96058 -3 0 1 -43.5259 11.7592 2.24458 1215.92 87.1887 -2085.22 0 0 0 0.5 
342 1 1 0.990524 6.11704 1.78218 -21 0 1 74.8912 22.8573 -20.8372 162.001 1025.44 -1027.4 0 0 0 0.5 
518 2 2 2.24036 7.01807 1.43949 -113 -1 0 239.41 -12.2432 0.945503 -4975.26 2373.93 -908.601 0 0 0 0.5 
736 2 2 1.24838 8.78898 0.895783 -160 -1 2 363.572 12.1657 -1.35598 2350.9 -3325.13 -1520.09 0 0 0 0.5 
235 1 1 3.83026 6.7894 1.11317 -19 0 0 174.413 6.38792 0.199056 2330.62 -1561.79 -114.304 0 0 0 0.5 
990 2 2 4.90713 5.91464 0.679272 5 0 0 147.086 -7.94298 -3.33307 -882.177 -3679.39 58.8824 0 0 0 0.5 
443 1 1 1.57232 9.05788 3.67314 56 0 0 427.676 -18.7308 3.18099 -15.3466 -812.975 -237.653 0 0 0 0.5 
934 2 2 3.52855 7.1168 2.51474 23 0 0 193.487 -15.7231 16.0834 -183.049 1096.8 -896.786 0 0 0 0.5 
248 1 1 1.75613 8.40167 3.25511 -159 -1 0 342.511 -10.7261 -7.09486 -2826.41 -956.499 -1161.49 0 0 0 0.5 