ITEM: TIMESTEP
47500
ITEM: NUMBER OF ATOMS
1000
ITEM: BOX BOUNDS xy xz yz pp pp pp
0 10 0
0 10 0
-0 10 0
ITEM: ATOMS id type type x y z ix iy iz vx vy vz fx fy fz omegax omegay omegaz radius 
478 1 1 0.977931 3.53978 1.9747 -32 0 1 -100.865 6.15966 -4.9344 -1772.1 406.413 187.255 0 0 0 0.5 
439 1 1 2.09953 0.34716 1.49623 -101 0 0 -453.17 12.3273 5.98851 0 0 0 0 0 0 0.5 
339 1 1 2.20295 1.65999 1.20363 -88 0 1 -312.983 -23.2394 -37.8514 0.320459 -20.1846 -24.236 0 0 0 0.5 
921 2 2 1.92431 4.00734 1.86453 -83 0 1 -68.3241 -9.46423 17.3093 -800.718 -1951.61 -807.958 0 0 0 0.5 
724 2 2 0.746676 0.698087 1.41075 -252 0 0 -412.638 -4.9009 9.60194 2409.23 -2163.57 873.528 0 0 0 0.5 
91 1 1 2.19496 2.16338 1.80807 -26 0 0 -245.204 -6.8212 1.53841 252.589 -714.084 -285.026 0 0 0 0.5 
579 2 2 1.8875 3.86447 0.14933 -64 0 0 -145.261 18.6539 -51.7019 -1845.67 -1343.87 2804.97 0 0 0 0.5 
97 1 1 4.85552 1.12734 0.12038 66 1 0 -397.07 18.7167 3.11551 2335.39 371.296 1213.66 0 0 0 0.5 
465 1 1 3.93403 2.70947 0.912047 -40 0 1 -245.018 5.15728 -14.1111 1663.75 979.717 -934.144 0 0 0 0.5 
226 1 1 4.51045 4.6976 1.42152 -232 -1 1 -29.4444 3.14542 14.433 -804.492 2228.51 -662.703 0 0 0 0.5 
556 2 2 1.1568 1.75529 1.30078 170 1 -1 -315.538 -21.6863 13.1623 654.726 -1165.14 -726.594 0 0 0 0.5 
787 2 2 0.152165 2.24062 0.639086 -87 0 1 -291.108 -19.4634 5.81843 -1765.72 562.465 967.286 0 0 0 0.5 
268 1 1 0.808108 3.18093 1.12848 36 0 0 -186.205 25.7216 -29.8583 9.4162 -229.19 953.537 0 0 0 0.5 
648 2 2 0.738786 2.3931 1.38777 262 1 1 -292.848 8.67835 28.4093 -246.566 2013.89 -787.062 0 0 0 0.5 
62 1 1 1.69465 3.21478 1.48969 -56 0 0 -171.109 4.82184 -35.568 867.24 248.506 -1502.26 0 0 0 0.5 
410 1 1 4.35125 1.71665 0.63259 -76 0 0 -313.884 4.18159 25.4805 -2303.31 300.815 903.49 0 0 0 0.5 
894 2 2 3.52499 2.90727 1.62428 8 0 0 -191.886 1.29123 3.91174 -57.4667 697.907 1631.67 0 0 0 0.5 
683 2 2 0.338424 0.325851 0.521309 112 1 0 -473.655 -4.70897 22.6824 1980.6 -1301.42 2731.18 0 0 0 0.5 
395 1 1 4.56728 1.42019 1.53677 164 1 0 -367.36 16.2963 10.6509 -140.172 -156.313 2150 0 0 0 0.5 
665 2 2 2.21859 3.17586 0.674036 189 1 1 -158.693 -9.76738 -28.2223 92.2385 543.028 -138.559 0 0 0 0.5 
163 1 1 0.824126 1.99115 0.404476 235 1 1 -294.511 -0.240427 -4.74934 2762.81 -636.497 -441.315 0 0 0 0.5 
899 2 2 0.70443 1.17841 0.610462 -169 0 0 -379.191 -5.4449 11.5205 1808.69 -951.077 -21.8578 0 0 0 0.5 
372 1 1 2.66343 0.824303 0.252944 -174 0 1 -454.388 38.5162 -2.99638 -664.473 -415.247 8.51968 0 0 0 0.5 
133 1 1 3.86651 0.413756 1.87166 183 1 1 -464.546 12.4905 14.6033 -338.61 -1417.61 -1599.48 0 0 0 0.5 
347 1 1 1.06783 4.03144 0.669755 -28 0 -1 -141.384 3.36212 -8.68899 1698.96 -40.7093 -525.741 0 0 0 0.5 
530 2 2 2.65027 3.06945 1.53515 -88 0 2 -189.156 -9.0496 6.41735 14.1619 1432.42 -1008.88 0 0 0 0.5 
986 2 2 2.80882 4.01143 1.47818 58 0 1 -91.1624 5.38116 -4.39012 -2983.74 -951.093 2072.06 0 0 0 0.5 
568 2 2 4.4842 3.27019 1.65921 -91 0 0 -170.119 -6.88914 -3.67448 602.354 -808.497 -953.73 0 0 0 0.5 
350 1 1 3.76829 2.21318 0.192467 250 1 0 -293.539 4.11982 7.10842 308.111 -1831.57 -1393.49 0 0 0 0.5 
284 1 1 4.71103 2.36916 1.62398 -120 0 0 -221.688 -3.49208 -22.0186 -151.986 -1621.62 34.9915 0 0 0 0.5 
741 2 2 3.65122 4.81409 1.29823 -123 0 0 -14.9019 3.28886 3.30606 -659.232 1308.33 -2193.74 0 0 0 0.5 
742 2 2 2.7617 4.95961 1.36208 2 0 -1 -8.21717 1.81206 7.31138 -1110.64 1133.33 127.336 0 0 0 0.5 
269 1 1 2.85079 0.198089 0.615135 -198 0 0 -495.922 1.571 14.9003 -267.225 -383.423 -1393.42 0 0 0 0.5 
695 2 2 3.39186 0.409632 1.32919 134 1 0 -470.344 -7.90397 -7.51895 -2010.38 1120.88 510.923 0 0 0 0.5 
557 2 2 3.41525 1.81116 0.965108 220 1 0 -332.253 8.79159 -4.81346 691.227 245.312 474.469 0 0 0 0.5 
427 1 1 1.9481 4.92287 0.828119 -32 0 0 3.09682 -9.40495 -8.85579 -223.33 -10.0864 -146.57 0 0 0 0.5 
461 1 1 3.47541 3.80514 1.06994 356 1 0 -148.965 -2.7273 2.37989 1343.65 -529.742 -1400.7 0 0 0 0.5 
386 1 1 4.22084 4.4856 0.473732 113 0 0 -31.0893 -0.908997 7.12479 -1308.19 3626.96 2018.6 0 0 0 0.5 
209 1 1 2.80999 4.63445 0.23624 -327 -1 0 -38.7205 6.48864 3.25033 -2299.06 1888.11 -1172.16 0 0 0 0.5 
426 1 1 2.78481 1.81223 0.197265 173 1 -1 -308.816 -10.8911 -10.1854 -3259.62 3047.16 2852.51 0 0 0 0.5 
654 2 2 3.25975 1.05669 1.37729 -96 0 1 -405.599 22.1938 20.4456 -579.887 1875.7 437.331 0 0 0 0.5 
266 1 1 4.17785 3.62148 0.810765 -317 -1 0 -157.634 3.0474 -6.5827 -1283.4 -615.015 -201.345 0 0 0 0.5 
23 1 1 0.113394 3.95274 0.781176 -150 0 1 -121.653 -12.7847 31.0829 588.815 -1131.51 -26.1187 0 0 0 0.5 
483 1 1 4.1468 0.811538 0.697046 216 1 0 -390.686 -18.4516 11.3096 -2423.12 5182.8 -671.815 0 0 0 0.5 
502 2 2 3.68069 4.33765 1.98822 -155 0 1 -74.1485 3.64359 -8.0462 -62.0325 -197.753 -664.937 0 0 0 0.5 
877 2 2 4.47664 3.07465 0.163444 257 1 1 -207.768 -2.96142 -1.46209 422.202 117.648 686.323 0 0 0 0.5 
316 1 1 4.95481 0.793109 1.10351 -167 0 0 -390.452 -1.12514 -0.385048 1050.67 -1943.55 -471.85 0 0 0 0.5 
895 2 2 0.21669 0.607287 2.22756 -114 0 0 -422.549 -5.5669 7.71274 -996.117 513.361 -378.331 0 0 0 0.5 
428 1 1 2.34787 2.40846 2.74688 -104 0 1 -234.468 -10.9928 6.68987 -606.762 -626.764 453.374 0 0 0 0.5 
243 1 1 2.53939 4.03465 3.3111 -59 0 0 -72.1228 -17.2755 4.53934 194.528 743.665 -420.366 0 0 0 0.5 
267 1 1 2.84501 0.32023 2.20588 -192 0 0 -503.886 36.7141 -13.6566 -454.794 31.9233 -18.0529 0 0 0 0.5 
780 2 2 1.65836 2.15295 3.53779 -185 0 0 -255.282 -5.41142 -7.36242 291.023 -0.0578852 -369.398 0 0 0 0.5 
1000 2 2 0.0492891 1.66829 2.31932 -125 0 0 -323.18 2.6365 2.63126 1392.03 -2494.1 -220.522 0 0 0 0.5 
480 1 1 0.646168 1.27508 3.14838 -137 0 2 -321.735 -17.324 -4.53761 685.297 -363.528 -218.239 0 0 0 0.5 
78 1 1 3.05267 3.65739 2.55622 -39 0 1 -82.5459 -11.6605 -11.4011 -294.452 366.278 -547.739 0 0 0 0.5 
631 2 2 4.09675 3.73574 2.15441 36 0 0 -106.341 5.58279 8.89699 358.867 -674.165 2521.69 0 0 0 0.5 
139 1 1 0.764186 2.17964 3.92485 -63 0 0 -253.097 -14.7013 -5.67547 -155.592 -553.696 -133.715 0 0 0 0.5 
658 2 2 0.247597 1.24783 3.94986 -88 0 0 -319.599 -14.5582 6.59144 911.032 -1095.72 -397.361 0 0 0 0.5 
418 1 1 4.60679 2.17853 2.8478 -162 0 1 -248.674 14.137 9.77974 89.9449 1503.83 1361.55 0 0 0 0.5 
207 1 1 1.21664 1.62741 2.5496 236 1 1 -325.88 8.54216 -7.69171 322.155 198.969 -338.141 0 0 0 0.5 
598 2 2 1.46263 3.15274 3.47203 -100 0 1 -188.883 1.98825 -18.0652 -11.2752 -796.225 806.668 0 0 0 0.5 
533 2 2 1.15337 2.7607 2.28648 346 1 0 -170.264 -29.125 7.52813 -2969.2 -479.822 639.624 0 0 0 0.5 
603 2 2 4.19645 0.458761 3.44481 250 1 0 -444.314 38.6971 15.2913 334.923 2208.61 -241.42 0 0 0 0.5 
823 2 2 2.40875 0.176063 3.40136 269 1 -1 -436.129 -1.72037 6.33519 -1572.5 -220.923 -584.808 0 0 0 0.5 
744 2 2 1.97245 2.88242 2.19952 229 1 0 -194.507 21.0246 5.15292 1321.33 1832.55 -194.834 0 0 0 0.5 
844 2 2 1.01947 0.186931 2.55101 223 1 0 -427.164 -2.1637 -21.5584 629.433 806.172 20.7512 0 0 0 0.5 
10 1 1 0.821121 0.147893 3.569 -189 0 1 -451.919 3.78568 -17.6761 0 0 0 0 0 0 0.5 
619 2 2 4.68952 1.3421 3.40583 -104 0 1 -337.586 11.905 -1.91284 -756.006 -145.88 -939.287 0 0 0 0.5 
228 1 1 1.47214 3.82439 2.79157 -133 0 1 -84.1899 -1.26111 -1.39666 1674.59 97.8869 -803.54 0 0 0 0.5 
293 1 1 3.26774 1.1925 2.87669 -159 0 1 -351.753 11.9078 -13.5243 -4750.47 621.451 1384.94 0 0 0 0.5 
477 1 1 1.85236 4.45705 3.91382 126 0 0 -47.4205 0.416189 -13.4191 -158.801 167.816 356.445 0 0 0 0.5 
196 1 1 2.68766 4.91782 2.9428 304 1 0 -6.13493 -3.53597 5.25264 151.937 -944.191 1473.8 0 0 0 0.5 
481 1 1 2.03018 4.95588 3.26369 55 0 -1 -0.636339 3.68736 -14.8984 -68.9777 -751.43 2289.21 0 0 0 0.5 
993 2 2 1.71519 4.74223 2.39008 34 0 1 -36.7068 -2.02578 -4.394 956.418 -1399.86 -1469.49 0 0 0 0.5 
520 2 2 0.605944 4.08951 2.62654 67 0 1 -63.8009 -2.339 16.6079 -1214.54 471.172 -1157.4 0 0 0 0.5 
128 1 1 4.46722 0.404209 2.41195 99 1 1 -454.304 23.2216 10.5173 934.269 1185.55 -851.364 0 0 0 0.5 
222 1 1 0.114632 4.40107 3.31594 321 1 0 -41.9555 -5.35545 10.7502 -1691.26 4438.53 1110.14 0 0 0 0.5 
251 1 1 4.01784 3.02496 2.6819 -92 0 0 -158.641 -7.32143 11.9993 -664.443 -1258.83 419.093 0 0 0 0.5 
288 1 1 3.9541 2.27833 2.10028 -61 0 -1 -219.96 -24.3653 9.89539 -344.248 109.31 -305.731 0 0 0 0.5 
65 1 1 0.300222 2.9715 2.74987 -91 0 0 -180.421 3.73295 0.410792 490.617 -124.215 -287.36 0 0 0 0.5 
333 1 1 3.30552 0.314652 3.29283 -55 0 0 -442.638 9.70627 16.0969 537.051 586.566 -312.312 0 0 0 0.5 
213 1 1 3.24453 4.74699 2.43971 336 1 1 -30.753 12.983 12.1188 953.817 782.764 -637.454 0 0 0 0.5 
104 1 1 3.33773 3.26408 3.3399 -8 0 0 -163.347 -7.30455 20.9667 407.656 -382.297 469.432 0 0 0 0.5 
318 1 1 4.15522 1.02492 2.64315 -101 0 1 -421.398 45.3377 25.1669 4125.51 1394.47 -482.973 0 0 0 0.5 
833 2 2 3.08205 2.06341 2.31972 -39 0 0 -232.752 -18.4429 7.62453 305.115 -292.295 -246.139 0 0 0 0.5 
806 2 2 3.74094 2.21654 3.09579 -113 0 0 -242.546 -7.55823 14.6767 -75.5032 545.021 161.373 0 0 0 0.5 
640 2 2 0.271603 3.58086 3.84534 -142 0 0 -163.516 29.5297 -24.8378 1777.74 -3097.14 1236.71 0 0 0 0.5 
927 2 2 3.62296 4.28802 3.40201 3 0 0 -74.4283 13.1385 1.23681 0 0 0 0 0 0 0.5 
848 2 2 2.9263 2.28194 3.35048 -243 0 1 -247.21 -8.20302 25.4454 -1133.33 583.08 -1452.06 0 0 0 0.5 
905 2 2 4.81936 3.2772 3.74908 -83 0 0 -132.082 -5.04221 3.01895 -696.75 227.301 224.9 0 0 0 0.5 
760 2 2 4.33848 4.99832 2.92954 -59 0 1 5.42566 -5.05943 17.2228 -17.061 30.0421 -5.18798 0 0 0 0.5 
609 2 2 3.55171 3.33479 5.75689 -53 0 0 -156.052 1.01545 -7.30554 704.629 1909.26 -1478.84 0 0 0 0.5 
540 2 2 1.73961 2.1145 4.5188 -336 -1 0 -262.089 -4.20773 -8.48699 -1224.18 2578.73 -802.874 0 0 0 0.5 
835 2 2 1.70203 3.58241 5.49774 -62 0 1 -114.058 2.66328 3.5072 -121.726 1522.38 -844.77 0 0 0 0.5 
875 2 2 2.17581 2.99028 4.69315 -68 0 1 -189.579 -7.29977 2.33676 -1590.49 -697.836 2601.08 0 0 0 0.5 
614 2 2 0.517878 1.67552 4.81265 188 1 0 -324.995 -9.46121 -38.8414 1909.9 -1114.71 1959.96 0 0 0 0.5 
608 2 2 0.971333 2.64209 5.01825 -57 0 0 -176.651 -7.75407 0.0953302 -70.0662 -98.6648 458.674 0 0 0 0.5 
61 1 1 0.408665 1.84794 5.64272 -158 0 0 -286.104 -24.4561 -3.03136 -2132.13 -343.669 -1114.36 0 0 0 0.5 
629 2 2 0.960176 0.350153 4.7668 -189 0 -1 -442.734 1.19037 -5.56101 -2861.26 2547.34 -747.147 0 0 0 0.5 
510 2 2 1.83947 2.72555 5.69065 -71 0 -1 -227.99 -2.41588 -9.12059 158.362 -1045.29 8.38011 0 0 0 0.5 
205 1 1 1.30798 1.56222 5.19401 -59 1 -1 -325.582 1.09675 -20.4429 -1465.66 2488.93 -416.164 0 0 0 0.5 
714 2 2 4.29721 0.538346 5.75675 495 2 0 -477.65 3.67092 -35.0527 781.463 584.96 3553.69 0 0 0 0.5 
935 2 2 4.5843 4.38469 5.96296 -83 0 0 -61.3693 1.46061 9.78513 235.683 -2020.7 -658.794 0 0 0 0.5 
208 1 1 1.28251 0.970481 5.86434 -56 0 1 -397.653 -5.88652 5.73505 51.2523 -2059.59 -189.245 0 0 0 0.5 
763 2 2 0.0469173 0.981086 5.44437 138 1 1 -395.115 9.18329 -11.2791 1420.96 343.082 2149.95 0 0 0 0.5 
327 1 1 0.551864 2.95133 4.29237 -69 0 0 -199.016 8.72409 1.74039 -12.4258 40.4605 477.186 0 0 0 0.5 
399 1 1 2.00025 3.76886 4.23452 -135 0 -1 -108.314 -17.6724 -3.03178 -881.305 76.498 -796.868 0 0 0 0.5 
24 1 1 3.55546 1.92318 4.01614 235 1 -1 -297.888 15.1173 24.9001 1720.66 166.768 136.089 0 0 0 0.5 
459 1 1 4.72615 1.73908 4.93621 -5 0 0 -289.1 2.56408 -3.05545 0 0 0 0 0 0 0.5 
482 1 1 2.49184 3.77883 5.04058 129 1 0 -114.317 -8.01041 -8.2194 -1184.41 -816.258 1894.35 0 0 0 0.5 
161 1 1 4.01838 3.41762 4.14482 -10 0 1 -145.464 -5.28488 11.9546 -314.02 94.1511 100.938 0 0 0 0.5 
783 2 2 1.14182 1.17115 4.33873 -106 0 1 -309.332 -20.4437 -20.1779 392.363 -386.58 -124.659 0 0 0 0.5 
983 2 2 2.14899 1.6221 5.07348 -26 0 -1 -311.753 7.72797 1.18486 -1709.89 116.073 2714.83 0 0 0 0.5 
272 1 1 1.87317 0.745185 5.19503 -226 0 -1 -419.973 6.75404 -13.3118 -865.499 -1472.38 -3982.02 0 0 0 0.5 
400 1 1 2.50465 2.32539 5.53797 -152 0 0 -225.488 -2.72482 -8.25376 1576.64 -1188.37 -504.722 0 0 0 0.5 
55 1 1 1.27538 0.13111 5.90596 177 1 0 -451.063 -28.1691 -8.09534 -3.68565 -433.97 21.5212 0 0 0 0.5 
548 2 2 2.58293 2.39678 4.18371 -163 0 1 -246.298 -7.35424 19.3551 1258.16 -1825.58 -783.493 0 0 0 0.5 
697 2 2 2.49444 1.21103 4.4146 -49 0 -1 -356.513 -8.96176 -10.7587 -2097.81 -448.811 -2215.38 0 0 0 0.5 
949 2 2 2.91878 4.813 4.47874 97 0 1 -59.0101 13.6015 7.11314 147.371 249.499 -649.986 0 0 0 0.5 
504 2 2 0.329003 2.64291 5.73042 69 0 0 -201.084 10.4839 -3.69645 -241.018 -254.838 -858.525 0 0 0 0.5 
693 2 2 2.45012 0.470165 5.7067 92 1 -1 -496.275 32.97 5.74731 1997.25 58.9928 1996.27 0 0 0 0.5 
366 1 1 1.20544 3.88696 4.76593 -1 0 1 -120.414 1.42977 2.18888 127.711 87.7813 -577.556 0 0 0 0.5 
532 2 2 0.903589 3.64494 5.74099 54 0 0 -130.084 -18.7744 14.2805 -1086.59 1600.1 -306.491 0 0 0 0.5 
923 2 2 3.87372 0.788473 4.98736 193 1 0 -392.967 7.47237 10.4156 -1642.93 984.093 -2588.75 0 0 0 0.5 
231 1 1 1.76357 4.77031 4.76553 -41 0 1 8.95005 -4.08012 19.613 333.61 -274.087 -419.348 0 0 0 0.5 
185 1 1 3.36714 1.09215 4.33591 -22 0 0 -367.338 24.3136 -2.80813 -362.71 1874.95 -936.162 0 0 0 0.5 
826 2 2 4.82757 0.703454 4.91897 342 1 0 -406.202 5.24867 10.2664 1631.23 -33.9549 729.993 0 0 0 0.5 
445 1 1 4.01236 4.77751 4.20118 -51 0 0 -48.6203 14.9226 -6.93976 -70.4512 9.27365 -442.044 0 0 0 0.5 
626 2 2 3.77839 0.444123 4.20852 -84 0 -1 -426.248 12.5066 1.93863 345.631 -2556.88 672.092 0 0 0 0.5 
101 1 1 3.1795 3.73024 4.32975 -114 0 0 -165.43 4.89335 4.41893 1926.41 -195.943 -1830.19 0 0 0 0.5 
53 1 1 3.51473 4.52426 5.64019 79 0 0 -43.1009 -25.3591 0.509688 -188.419 -2003.54 -1515.16 0 0 0 0.5 
552 2 2 0.490719 4.33225 5.48862 71 0 -1 -101.135 7.44226 -19.882 1226.71 -3136.45 -231.019 0 0 0 0.5 
484 1 1 3.09798 2.91989 4.98568 23 0 0 -185.736 -9.66466 12.4517 -52.2924 5.93104 -13.8822 0 0 0 0.5 
168 1 1 3.00425 1.18434 5.20001 115 1 0 -378.386 10.6658 -12.7639 2617.07 -1132.59 2720.73 0 0 0 0.5 
745 2 2 2.9109 0.11872 4.16725 -95 0 1 -443.41 6.62705 15.8028 19.8714 521.958 -1153.31 0 0 0 0.5 
35 1 1 4.62703 4.06234 5.02845 -147 0 1 -94.9648 -12.3554 9.16553 1260.39 -1882.4 -317.436 0 0 0 0.5 
862 2 2 2.71918 4.47508 5.35907 -52 0 0 -71.5917 2.15419 -7.48014 604.284 3000.8 266.887 0 0 0 0.5 
674 2 2 3.7181 2.13441 4.92922 -72 0 0 -193.962 -25.9485 13.8219 101.304 131.574 568.757 0 0 0 0.5 
821 2 2 4.48293 3.1714 5.533 251 1 0 -152.365 1.07111 1.77564 -3637.78 3431.43 -885.555 0 0 0 0.5 
492 1 1 4.16735 4.7571 5.17363 -158 0 0 -46.9564 6.13797 -13.0427 1035.17 557.851 374.784 0 0 0 0.5 
592 2 2 2.10696 3.62932 6.35888 -43 0 0 -132.334 -7.29451 4.29483 -1442 1007.83 -1313.15 0 0 0 0.5 
756 2 2 1.70615 0.770533 7.69199 -140 0 1 -446.612 11.322 13.0266 -1260 1070.45 1047.46 0 0 0 0.5 
987 2 2 0.465448 2.65661 6.73544 246 1 0 -204.054 5.48783 7.07352 836.668 2454.8 473.421 0 0 0 0.5 
650 2 2 1.45069 3.8032 6.93859 -55 0 0 -115.615 8.7144 -4.38163 -166.78 -1555.18 552.224 0 0 0 0.5 
336 1 1 1.11643 1.69429 6.02655 90 0 0 -292.727 6.91029 -4.20764 942.647 1275.91 -1519.14 0 0 0 0.5 
815 2 2 1.11661 0.267374 6.96714 192 1 -1 -471.84 19.1165 3.40327 255.818 -1692.18 -253.598 0 0 0 0.5 
573 2 2 0.246674 0.150389 6.75094 -144 0 0 -480.203 13.9716 14.2814 487.443 -44.7492 1752.97 0 0 0 0.5 
277 1 1 2.3061 2.9264 7.79997 -160 0 0 -220.169 -4.10207 4.18152 -1.00893 1.73832 9.62516 0 0 0 0.5 
992 2 2 1.28064 2.89077 7.14703 -145 0 0 -196.462 4.7364 22.6651 -1417.42 2149.81 994.421 0 0 0 0.5 
314 1 1 1.89075 2.34081 7.03523 -116 0 0 -260.052 7.74117 6.26944 2364.44 -1259.29 314.513 0 0 0 0.5 
237 1 1 0.349664 1.16049 6.98066 -151 0 0 -331.875 -17.2081 0.430192 -866.638 429.675 -1058.23 0 0 0 0.5 
766 2 2 4.45263 4.40477 7.15165 -73 0 0 -12.2114 -11.8736 -2.49484 486.338 -7.90959 -174.95 0 0 0 0.5 
662 2 2 2.24973 0.348756 7.14071 -145 0 1 -473.161 -12.5162 24.863 454.249 -1660.94 1733.29 0 0 0 0.5 
759 2 2 2.21453 3.93522 7.38375 -96 0 -1 -114.468 -12.0208 20.0053 500.723 195.47 278.955 0 0 0 0.5 
607 2 2 4.1458 3.64575 6.44183 73 0 0 -155.793 8.4562 0.944311 758.814 1018.37 -555.575 0 0 0 0.5 
93 1 1 4.01123 2.07661 7.87568 196 1 -1 -290.374 9.06988 -10.6799 1273.02 1594.75 113.366 0 0 0 0.5 
7 1 1 4.44854 3.1401 7.23865 -96 0 0 -154.524 -13.1961 -4.63448 -286.979 233.737 -169.469 0 0 0 0.5 
311 1 1 1.8214 4.51836 6.05762 -39 0 0 -83.8602 17.5679 -17.4972 2882.44 -3253.9 2876.12 0 0 0 0.5 
225 1 1 1.9292 0.982297 6.6781 -153 0 0 -396.161 -6.91344 -5.25451 -193.987 -495.315 -485.198 0 0 0 0.5 
43 1 1 0.896694 1.60993 7.58184 -164 0 0 -333.446 -18.2324 -31.0329 1806.67 -2344.34 506.42 0 0 0 0.5 
276 1 1 2.48354 4.69158 7.45672 -290 -1 0 -18.1761 -3.98034 16.6413 25.8124 168.303 -244.036 0 0 0 0.5 
897 2 2 0.413383 2.05585 7.41973 104 1 0 -311.719 4.73556 -6.78661 -1582.16 -376.688 -785.279 0 0 0 0.5 
827 2 2 0.630276 1.98808 6.54592 -64 0 0 -263.177 -19.755 5.02982 -1936.66 -1493.96 1007.46 0 0 0 0.5 
200 1 1 1.72915 1.69407 6.46322 -152 0 0 -315.702 23.1247 8.04466 1718.35 1000.21 334.322 0 0 0 0.5 
257 1 1 0.53359 0.853988 7.96522 -71 0 0 -454 19.8724 -2.53261 118.958 1141.91 -413.855 0 0 0 0.5 
616 2 2 3.68834 2.56784 6.02924 -60 0 0 -245.038 8.62966 -18.4137 -561.623 -410.282 -1185.05 0 0 0 0.5 
487 1 1 2.89869 3.80882 6.00162 -141 0 -1 -138.863 10.419 6.35927 -23.5384 512.061 721.348 0 0 0 0.5 
351 1 1 4.06328 4.85048 6.43093 1 0 1 -32.2543 19.6677 17.6084 2954.91 436.499 1647.38 0 0 0 0.5 
639 2 2 3.91303 0.367444 6.67356 134 1 0 -508.554 18.3723 -31.7638 4383.61 -3523.51 2309.31 0 0 0 0.5 
672 2 2 2.83433 3.22667 6.84435 -22 0 -1 -193.289 13.6062 36.2832 1490.85 -185.337 1744.15 0 0 0 0.5 
338 1 1 3.66435 2.29233 7.05987 167 1 0 -291.337 12.3096 -0.65478 1635.88 -709.389 722.937 0 0 0 0.5 
767 2 2 3.54642 4.64629 7.24452 -112 0 0 -21.2274 -22.4902 11.7596 -319.595 -274.13 253.232 0 0 0 0.5 
95 1 1 4.22638 2.06348 6.26883 -45 0 0 -293.061 5.72594 -9.88914 2191.22 -1576.09 731.303 0 0 0 0.5 
356 1 1 3.10408 2.56385 6.42332 18 0 0 -252.716 -8.19233 7.76169 -3334.64 638.764 -713.817 0 0 0 0.5 
389 1 1 3.86905 0.369586 7.54288 -116 0 -1 -485.7 27.5194 -16.1833 -315.866 -400.312 -7.98772 0 0 0 0.5 
840 2 2 3.40973 4.9674 6.26012 -6 0 0 -10.9247 -16.8067 -8.22373 -3810.75 -522.863 1175.24 0 0 0 0.5 
245 1 1 0.760117 4.86679 7.2948 -24 0 0 -22.449 25.2665 -13.9836 3609.89 -829.808 -1465.5 0 0 0 0.5 
646 2 2 2.75641 1.85497 7.0223 -68 0 0 -293.022 -11.043 11.339 1300.96 71.0114 -674.309 0 0 0 0.5 
49 1 1 2.60081 0.0332377 6.49714 31 1 0 -529.708 3.31304 -7.20112 -309.117 -130.179 -1932.56 0 0 0 0.5 
446 1 1 0.917774 4.07842 7.551 -53 0 0 -118.491 1.86269 -5.06413 -1952.24 -295.102 866.52 0 0 0 0.5 
264 1 1 0.623596 3.43798 6.87938 -24 0 -1 -133.379 24.5237 -16.76 -965.467 1485.46 -1442.9 0 0 0 0.5 
746 2 2 3.03991 1.706 6.12506 -68 0 -1 -345.288 16.1804 -22.0343 -249.336 -721.885 -387.297 0 0 0 0.5 
486 1 1 1.01365 4.42877 6.53622 279 1 1 -101.873 13.5644 -26.1451 -163.207 172.758 -1499.4 0 0 0 0.5 
270 1 1 3.26567 0.890482 6.32834 -130 0 1 -410.507 -15.433 -10.1492 -5184.86 2801.91 -1102.91 0 0 0 0.5 
42 1 1 1.18128 2.80588 6.03254 -104 0 0 -226.002 -11.182 30.4606 682.961 -1600.63 2056.91 0 0 0 0.5 
156 1 1 4.05932 1.17057 6.20041 91 1 0 -406.291 24.5176 3.01719 -61.7505 542.111 94.0745 0 0 0 0.5 
606 2 2 4.63424 2.06905 7.17123 -158 0 -2 -303.751 17.1606 -21.6025 -683.78 1157.34 -208.852 0 0 0 0.5 
290 1 1 3.10417 0.778843 7.2566 232 1 0 -495.44 30.8692 11.6244 -72.0194 927.028 -1404.57 0 0 0 0.5 
201 1 1 3.57937 3.54364 7.4515 -89 0 0 -154.039 -4.93319 17.8741 203.646 -94.5484 -49.8715 0 0 0 0.5 
661 2 2 4.97516 0.834593 7.91688 -96 0 -1 -425.041 -2.68143 2.68361 284.546 948.581 -221.765 0 0 0 0.5 
8 1 1 4.94807 1.34488 6.53294 116 1 1 -403.874 19.4898 -0.888352 1121.52 511.003 -821.527 0 0 0 0.5 
773 2 2 2.11284 0.406495 9.44387 -145 0 -1 -467.358 3.77046 25.3526 -2139.21 452.183 -331.121 0 0 0 0.5 
694 2 2 1.12116 2.45673 8.28037 -251 0 0 -266.905 25.1547 4.45659 1532.27 1377.75 -76.5202 0 0 0 0.5 
157 1 1 1.71889 2.49145 9.4071 -83 0 0 -273.348 0.803566 -14.2695 661.232 -144.22 -360.506 0 0 0 0.5 
298 1 1 1.55482 3.6043 8.12921 -163 0 -1 -175.834 16.4927 12.8261 594.142 -1097.59 1634.83 0 0 0 0.5 
443 1 1 1.19616 1.00966 9.79568 173 1 -1 -378.067 0.137772 4.07695 16.432 -1314.91 -173.348 0 0 0 0.5 
305 1 1 4.29509 4.12013 8.02336 64 0 -1 -29.1522 -15.6053 -2.58097 -2422.01 1737.84 -836.571 0 0 0 0.5 
959 2 2 0.416208 2.56314 8.42966 213 1 0 -278.379 3.53937 22.3337 -170.484 1546.78 75.361 0 0 0 0.5 
106 1 1 3.76106 2.12743 8.8852 -79 0 -1 -309.216 10.1771 11.8614 50.4909 -692.52 1473.71 0 0 0 0.5 
140 1 1 0.876739 2.67513 9.86624 158 1 0 -249.743 28.6568 -3.76115 1028.13 -390.734 435.152 0 0 0 0.5 
373 1 1 1.09611 1.35066 8.8898 -179 0 -1 -415.132 27.7225 6.43946 1062.57 -655.453 -521.336 0 0 0 0.5 
537 2 2 2.2062 3.09852 8.75302 177 1 0 -223.246 9.73287 6.67792 322.791 -237.802 -154.025 0 0 0 0.5 
353 1 1 0.439255 2.29676 9.15481 182 1 0 -270.03 -23.8171 8.03905 792.961 80.7041 802.2 0 0 0 0.5 
969 2 2 2.2021 0.0176576 8.10305 160 1 0 -476.921 -10.3224 1.51968 -5069.81 3169.92 -2596.11 0 0 0 0.5 
984 2 2 0.815762 0.161018 9.91262 241 1 0 -503.866 18.4774 -3.18204 -302.244 2241.7 -1413.56 0 0 0 0.5 
524 2 2 0.451297 1.44225 9.60985 -107 0 1 -388.536 1.33101 -4.42213 -1786.09 -1245.22 2225.89 0 0 0 0.5 
960 2 2 1.13386 0.445933 8.98301 229 1 0 -455.802 5.23632 0.818916 -1024.47 -1345.41 50.5044 0 0 0 0.5 
280 1 1 4.08129 1.33978 8.12281 -166 0 0 -416.841 13.5601 -19.8527 1165.19 626.27 3265.79 0 0 0 0.5 
300 1 1 0.027049 0.644709 8.86166 159 1 -1 -433.528 8.52391 19.1194 0 0 0 0 0 0 0.5 
595 2 2 1.3521 1.702 8.12053 158 1 0 -357.342 -4.36804 -1.95401 21.2348 -1432.03 665.767 0 0 0 0.5 
16 1 1 2.09606 1.79755 8.23116 -153 0 0 -361.783 35.1653 15.5029 1399.31 1300.91 177.384 0 0 0 0.5 
214 1 1 1.45826 3.64723 9.08867 -29 0 -1 -211.697 3.71967 26.0423 -223.738 -575.294 -410.835 0 0 0 0.5 
878 2 2 3.9248 3.70183 9.20578 158 0 0 -163.222 7.52503 15.8941 -2441.52 1474.75 167.09 0 0 0 0.5 
945 2 2 4.07667 0.593594 8.41929 121 1 -1 -460.864 4.48889 -17.7505 1008.2 -785.909 -914.448 0 0 0 0.5 
954 2 2 3.46397 1.10664 8.84958 237 1 -1 -419.707 -1.55567 10.1842 126.763 463.326 -218.282 0 0 0 0.5 
623 2 2 0.15295 4.66914 9.14887 -57 0 0 -55.9178 -20.6855 -1.89857 -1120.4 1277.78 405.563 0 0 0 0.5 
868 2 2 3.93746 0.862937 9.77438 -116 0 1 -380.249 -24.8012 6.21006 -125.999 91.1619 -401.354 0 0 0 0.5 
423 1 1 0.686581 4.80349 9.86089 -309 -1 0 -68.3738 -0.0213984 21.1374 1420.79 -1662.6 -457.965 0 0 0 0.5 
425 1 1 3.53283 1.60398 9.63168 -192 0 0 -384.125 6.40439 6.19093 1816.97 -897.321 -2221.38 0 0 0 0.5 
722 2 2 2.71843 0.314041 8.76901 -149 0 -1 -480.314 2.19144 -4.14145 -1294.1 483.94 1299.38 0 0 0 0.5 
254 1 1 0.0668508 2.84322 9.72561 -24 0 -1 -250.544 -3.04333 -2.16508 1235.19 717.013 1150.63 0 0 0 0.5 
795 2 2 2.46107 4.18916 9.41528 -103 0 -1 -168.544 16.1828 -8.46701 2072.11 2237.65 -27.1685 0 0 0 0.5 
408 1 1 3.39656 2.54267 8.10616 -47 0 -1 -276.034 14.4264 20.4478 -1988.86 1711.51 -596.261 0 0 0 0.5 
644 2 2 3.36574 2.85833 9.94246 389 1 0 -243.123 11.0397 -22.281 -1151.85 1328.29 -812.758 0 0 0 0.5 
865 2 2 0.378166 3.92415 9.01477 -128 0 -1 -103.058 -23.6699 -6.02317 82.1094 -2587.4 -534.42 0 0 0 0.5 
687 2 2 0.273993 3.73551 9.89089 215 1 0 -160.614 1.54725 5.10312 2168.2 -2579.33 143.818 0 0 0 0.5 
403 1 1 4.02985 4.65075 8.74103 -9 0 -1 14.2832 -6.69069 0.861492 -2354.01 935.258 1265.71 0 0 0 0.5 
82 1 1 0.406118 4.36548 8.18663 23 0 -1 -117.451 25.6254 11.9503 -373.443 115.855 -67.4564 0 0 0 0.5 
717 2 2 3.44566 0.147781 8.63345 -126 0 0 -480.462 -9.57508 -19.0411 -854.646 1269.93 -832.911 0 0 0 0.5 
764 2 2 3.18623 4.69693 8.32539 -47 0 0 24.6792 -14.377 -11.8475 -147.522 -191.218 -488.742 0 0 0 0.5 
521 2 2 2.98877 0.218274 9.6458 -119 0 0 -487.614 6.76812 4.51058 886.265 7.26871 1460.26 0 0 0 0.5 
891 2 2 3.19351 3.77885 9.95672 10 0 -1 -176.737 20.5658 -10.9176 1599.27 -2531.12 -722.579 0 0 0 0.5 
393 1 1 4.52677 3.92184 9.95424 173 1 -1 -134.226 11.7401 -6.62399 1348.22 -2450.85 -2125.79 0 0 0 0.5 
590 2 2 1.40723 4.49995 9.14279 -35 0 -1 -115.094 24.7506 -16.2264 -47.2 788.753 50.0622 0 0 0 0.5 
485 1 1 0.6309 3.34209 8.09814 -129 0 1 -194.295 9.38343 10.2405 828.446 618.458 -401.062 0 0 0 0.5 
738 2 2 2.59738 1.38037 9.35304 258 1 0 -388.12 7.00624 14.463 -212.527 -489.693 -957.277 0 0 0 0.5 
854 2 2 2.65154 1.10798 8.33461 47 1 -1 -401.428 5.74038 -5.25374 101.803 -104.235 -751.578 0 0 0 0.5 
2 1 1 4.45998 1.73595 9.57307 -76 0 0 -402.063 6.1315 16.9497 -715.135 1092.06 -1007.26 0 0 0 0.5 
645 2 2 4.53616 2.03534 8.62948 173 1 -1 -284.38 10.7063 5.09724 -1362.49 -2927.08 -1034.02 0 0 0 0.5 
660 2 2 4.47493 2.4771 9.52496 -33 0 0 -304.836 22.8842 3.19311 83.3703 169.764 -1941.43 0 0 0 0.5 
98 1 1 4.65688 3.24816 9.14017 -65 0 -1 -190.629 20.2489 -11.8502 378.505 -434.774 1286.42 0 0 0 0.5 
402 1 1 4.77178 0.628756 8.82344 -238 0 0 -463.301 14.6307 18.8006 879.615 166.496 0.81572 0 0 0 0.5 
374 1 1 4.76219 3.52719 8.17721 -33 0 0 -88.2057 -29.0169 17.369 -376.212 1266.96 -1887.81 0 0 0 0.5 
431 1 1 4.95729 0.500661 9.83992 -154 0 -1 -472.915 9.35842 -22.2824 -2348.86 1692.55 267.639 0 0 0 0.5 
997 2 2 3.55415 8.34349 1.5893 70 0 1 347.601 19.1104 -19.9484 4519.35 -150.892 -2113.16 0 0 0 0.5 
134 1 1 2.8914 9.42362 0.18354 -184 -1 0 461.696 -15.2416 -10.0244 -3351.23 2007.33 2532.29 0 0 0 0.5 
394 1 1 2.14825 5.74017 1.67376 249 1 -1 67.9596 -3.37989 -26.613 1038.77 26.9804 -261.962 0 0 0 0.5 
370 1 1 2.00507 7.43887 1.83929 -7 0 0 216.539 0.840252 -12.5531 -736.233 -3252.09 1238.67 0 0 0 0.5 
202 1 1 4.07653 9.16211 1.35128 133 0 0 417.184 -6.0082 4.42072 -85.5705 -1708.29 -154.715 0 0 0 0.5 
681 2 2 4.59397 6.89407 1.00802 38 0 1 201.828 1.95906 16.8046 3.67149 41.9295 0.177041 0 0 0 0.5 
235 1 1 1.84166 9.69654 0.738983 47 0 0 493.176 -3.61647 4.82971 0 0 0 0 0 0 0.5 
569 2 2 2.72486 9.54913 1.20313 261 0 0 468.297 -13.4928 4.58854 -888.069 -306.976 -1292.94 0 0 0 0.5 
324 1 1 -0.0812606 8.46145 1.916 150 0 0 301.339 33.5538 -5.83345 2776.04 237.902 -664.406 0 0 0 0.5 
83 1 1 4.81486 7.88227 1.20504 181 0 0 265.572 2.97529 9.42391 164.915 -1428.24 447.13 0 0 0 0.5 
515 2 2 2.92763 5.96006 0.358561 -279 -1 -1 87.9861 1.53665 -11.6663 -1166.58 -55.3408 133.557 0 0 0 0.5 
164 1 1 4.70525 8.95467 1.90565 102 0 -1 393.621 -27.185 -2.7518 34.8129 -356.714 1443.86 0 0 0 0.5 
680 2 2 3.23889 7.26325 0.266571 -212 -1 0 221.55 -4.02567 -9.18303 54.3042 147.537 542.64 0 0 0 0.5 
713 2 2 0.521478 9.0728 0.108955 -237 -1 1 452.923 9.944 17.2345 -696.151 2544.44 -346.823 0 0 0 0.5 
618 2 2 3.59899 8.86268 0.636103 -146 -1 2 376.987 1.85686 21.0595 -741.233 1704.74 -517.561 0 0 0 0.5 
341 1 1 1.37679 6.11773 1.09127 19 0 0 117.869 -8.44661 -11.2997 1731.09 -300.723 335.906 0 0 0 0.5 
274 1 1 3.11645 5.89418 1.86711 -279 -1 -1 64.4336 13.1881 -6.12435 1486.82 -1339.3 -2144.29 0 0 0 0.5 
664 2 2 1.02713 8.7722 0.597304 143 0 0 402.953 9.44541 13.9578 -1225.11 -7.54802 2975.54 0 0 0 0.5 
317 1 1 1.82933 6.6863 0.263105 -3 0 1 204.234 -35.9897 23.5854 53.7482 -1311.54 149.47 0 0 0 0.5 
73 1 1 3.81909 9.67428 0.148445 -45 -1 0 461.661 13.1618 23.9604 -2678.08 -1046.74 -1258.83 0 0 0 0.5 
991 2 2 3.80536 6.0017 0.258073 77 0 0 86.4551 19.1774 -16.0679 812.45 410.955 -154.137 0 0 0 0.5 
807 2 2 4.71038 8.78716 0.921749 -150 -1 1 390.092 -9.97509 -11.2339 -600.243 284.291 190.593 0 0 0 0.5 
109 1 1 1.51485 9.45948 1.82362 95 0 1 461.681 21.8649 16.1512 -715.68 -38.0316 -186.029 0 0 0 0.5 
597 2 2 -0.00131424 9.49851 1.06366 -159 -1 1 482.77 -4.7744 24.2451 0 0 0 0 0 0 0.5 
529 2 2 4.51586 6.00207 1.00425 -22 0 1 88.229 -7.15223 -5.43794 -1655.21 1137.81 1119.57 0 0 0 0.5 
890 2 2 3.37311 9.47155 1.8884 -80 -1 -1 447.976 15.5086 -16.8331 -1932.8 528.225 547.695 0 0 0 0.5 
634 2 2 3.33411 7.52196 1.21812 109 0 -1 267.943 -9.3058 0.802782 4353.82 574.339 1103.57 0 0 0 0.5 
218 1 1 1.41991 6.65932 1.75799 8 0 0 145.868 -2.49682 -3.71178 2790.09 436.228 -1516.89 0 0 0 0.5 
285 1 1 0.222122 5.43227 0.109945 52 0 -1 -16.1282 26.3917 25.6028 2509.86 806.562 1493.1 0 0 0 0.5 
116 1 1 1.877 7.91673 0.993589 74 0 1 310.544 -15.1429 -0.128999 -2125.03 1070.56 -1522.63 0 0 0 0.5 
424 1 1 2.45409 8.75234 0.642679 -2 0 1 408.206 -18.8376 -8.13417 338.563 541.528 -338.225 0 0 0 0.5 
404 1 1 3.56838 6.64607 1.19039 25 0 1 205.427 -26.1436 14.5649 244.605 -914.55 -28.9546 0 0 0 0.5 
429 1 1 -0.011276 7.29745 0.634845 20 0 1 186.518 16.2264 -16.6017 -524.71 349.05 334.986 0 0 0 0.5 
96 1 1 1.56306 8.77301 1.28128 -129 -1 0 391.745 3.20871 -11.9738 -1479.26 2499.38 1573.63 0 0 0 0.5 
920 2 2 2.02561 8.56382 1.46298 -238 -1 1 410.09 -6.40878 8.85696 -164.248 -163.306 -1045.91 0 0 0 0.5 
567 2 2 0.764999 7.97295 0.97655 56 0 1 299.826 -6.42143 -8.06741 430.1 1067.18 -1851.63 0 0 0 0.5 
774 2 2 1.71911 7.45804 0.291043 -251 -1 1 266.279 -9.60783 4.70779 -4.27679 -754.198 -886.015 0 0 0 0.5 
12 1 1 1.27984 5.73725 1.95943 -97 0 0 74.1381 -10.2721 -12.5908 874.983 -1881.68 -821.649 0 0 0 0.5 
419 1 1 4.53511 9.29406 0.102584 139 0 0 405.807 -6.14442 -4.82268 714.851 -289.171 25.4593 0 0 0 0.5 
20 1 1 2.66751 7.72391 1.06946 -247 -1 0 301.741 -15.1452 -9.7483 -1999.18 189.412 -1182.43 0 0 0 0.5 
856 2 2 4.03857 8.26349 0.376908 -227 -1 1 366.787 -25.2044 13.7338 38.035 -1363.94 -1685.47 0 0 0 0.5 
723 2 2 0.306878 7.02551 1.4647 118 0 0 198.373 7.15355 -3.27065 533.417 164.333 -682.28 0 0 0 0.5 
886 2 2 4.43427 5.37016 0.294621 392 1 0 72.9632 -9.09909 -2.75502 -61.7928 -837.33 -736.794 0 0 0 0.5 
789 2 2 0.788971 6.08075 0.684896 -73 0 0 98.3465 -17.7283 -6.74843 -132.487 -1653.23 -394.421 0 0 0 0.5 
874 2 2 3.67173 9.78433 1.1039 144 0 0 475.342 4.82351 -28.6681 -361.139 644.916 2769.24 0 0 0 0.5 
152 1 1 1.45998 8.23065 0.163903 79 0 1 313.902 11.2598 -6.14093 3356.94 -2899.95 1629.39 0 0 0 0.5 
453 1 1 0.277146 6.57048 0.427151 78 0 0 123.375 14.0772 -0.897767 276.411 -805.97 -291.125 0 0 0 0.5 
405 1 1 1.3027 7.79276 1.71205 17 0 0 272.041 17.9891 -6.02958 -2108.39 1202.82 644.589 0 0 0 0.5 