ITEM: TIMESTEP
37500
ITEM: NUMBER OF ATOMS
1000
ITEM: BOX BOUNDS xy xz yz pp pp pp
0 10 0
0 10 0
-0 10 0
ITEM: ATOMS id type type x y z ix iy iz vx vy vz fx fy fz omegax omegay omegaz radius 
975 2 2 1.76368 2.6282 1.73936 186 1 1 -277.421 8.79382 -17.349 -941.218 354.962 -281.741 0 0 0 0.5 
439 1 1 1.14371 0.303884 1.99487 -59 0 0 -454.962 -25.2968 14.4701 -1807.09 4328.27 -196.117 0 0 0 0.5 
367 1 1 2.00958 0.820116 1.74052 126 1 -1 -457.38 -5.5339 -9.07126 -2532 189.609 808.515 0 0 0 0.5 
713 2 2 1.32298 0.45798 1.09511 -191 0 1 -497.936 25.3894 -0.783354 2151.95 -2204.85 -2127.46 0 0 0 0.5 
523 2 2 0.455375 0.189798 0.958954 -121 0 1 -500.655 -7.53828 25.3531 1045.29 -1387.32 -190.945 0 0 0 0.5 
108 1 1 1.23366 1.17566 0.309601 -159 0 1 -433.545 16.7948 -0.306852 -722.997 1026.03 1920.28 0 0 0 0.5 
886 2 2 3.4708 4.68249 1.10094 281 1 0 -25.6116 -14.8747 -14.5543 -4173.02 4295.55 -1520.14 0 0 0 0.5 
547 2 2 4.34102 4.93498 0.658559 57 0 0 1.06883 -10.9674 7.25878 -837.247 -528.714 -1046.51 0 0 0 0.5 
583 2 2 0.235742 0.640518 0.224635 -122 0 1 -459.944 10.5871 -4.22442 1112.86 -959.909 -4.80565 0 0 0 0.5 
828 2 2 4.47162 3.16914 1.93973 -49 0 1 -185.452 4.04687 30.48 -459.808 -311.31 -2160.98 0 0 0 0.5 
699 2 2 3.85794 4.45341 1.71446 31 0 -1 -95.2375 13.6835 10.6472 1870.21 -1106.69 2963.88 0 0 0 0.5 
25 1 1 0.88662 1.06581 1.61306 -122 0 0 -414.699 12.5852 -18.0984 924.924 1167.46 1141.22 0 0 0 0.5 
41 1 1 1.22338 1.78761 1.02403 -166 0 0 -377.139 27.8562 3.23404 3826.08 -995.002 -37.2645 0 0 0 0.5 
341 1 1 3.17021 4.43561 0.0036379 14 0 0 -57.1406 2.73164 2.81706 86.1772 -426.643 -452.804 0 0 0 0.5 
738 2 2 2.18394 0.0893179 0.520074 204 1 1 -535.52 28.1642 28.037 524.946 -1233.79 -136.968 0 0 0 0.5 
597 2 2 1.72957 0.564383 0.078068 -102 0 1 -463.347 6.28028 -5.343 -2152.36 1382.06 -1100.51 0 0 0 0.5 
746 2 2 0.480987 2.82289 1.33666 -32 0 0 -244.501 19.0185 2.18033 1121.06 -4987.65 273.671 0 0 0 0.5 
250 1 1 3.868 2.83746 0.780237 -51 0 1 -234.286 16.2137 4.31295 34.2814 -445.188 -499.041 0 0 0 0.5 
1000 2 2 4.16566 1.47166 0.572439 -94 0 0 -312.039 -4.7794 -20.9334 533.882 -840.179 -3259.95 0 0 0 0.5 
603 2 2 1.45256 3.31526 1.04199 192 1 0 -182.051 -14.1944 1.34617 209.848 221.487 26.5074 0 0 0 0.5 
358 1 1 0.0271473 0.852193 1.31595 -55 0 0 -438.179 11.0281 -17.1437 293.137 2287.5 2234.4 0 0 0 0.5 
450 1 1 0.782581 2.48448 0.19166 138 1 0 -217.918 -29.5398 -3.32799 333.05 -627.72 52.2137 0 0 0 0.5 
541 2 2 2.23271 3.51898 1.47723 174 1 0 -164.101 17.4352 -0.950778 -300.414 -13.7335 -28.7001 0 0 0 0.5 
941 2 2 3.36214 1.69307 0.684549 -25 0 0 -300.479 -25.0071 -43.0993 -2774.48 -774.221 310.761 0 0 0 0.5 
149 1 1 1.33139 4.06747 0.548492 -17 0 0 -143.249 13.7388 -4.46582 2875.76 143.813 2620.87 0 0 0 0.5 
80 1 1 1.87635 2.18191 0.119203 -48 0 1 -233.051 -15.2037 9.63262 -97.7118 811.225 829.716 0 0 0 0.5 
159 1 1 2.42543 2.74061 0.812471 219 1 0 -228.826 5.29472 -14.483 -1607.93 1002.17 -770.811 0 0 0 0.5 
482 1 1 0.399216 1.9313 1.10675 54 1 0 -334.643 2.15338 -3.72823 -2634.17 1207.87 1146.52 0 0 0 0.5 
876 2 2 3.95887 0.238324 0.773936 -76 0 1 -446.892 -10.835 18.1909 0 0 0 0 0 0 0.5 
39 1 1 0.18312 3.59723 0.962953 -96 0 0 -144.438 3.96399 27.6763 -738.428 2149.7 -1286.82 0 0 0 0.5 
426 1 1 2.80525 0.449585 1.41417 114 1 -1 -504.722 11.4195 -0.0750645 2792.42 -1300.39 -1145.35 0 0 0 0.5 
722 2 2 0.38151 3.24041 0.128782 -111 0 0 -178.446 7.24688 3.89552 1638.13 -673.583 1968.62 0 0 0 0.5 
527 2 2 3.08214 2.3313 1.12729 9 0 0 -238.983 8.1952 -9.09883 1060.38 221.28 -272.715 0 0 0 0.5 
696 2 2 2.42119 4.81357 0.432909 34 0 0 -44.3642 15.6135 14.192 1371.57 101.845 1045.36 0 0 0 0.5 
952 2 2 4.79131 2.41971 1.03504 11 0 0 -272.679 -6.83088 1.63748 -2490.92 1.95785 2659.75 0 0 0 0.5 
944 2 2 4.60859 3.88092 0.288127 -84 0 1 -133.612 13.673 5.38763 361.41 -1560.57 856.231 0 0 0 0.5 
760 2 2 1.26218 4.29613 1.49183 -53 0 1 -101.792 15.9434 7.2492 2244.32 -53.1658 -710.534 0 0 0 0.5 
443 1 1 2.70456 1.21678 0.134116 117 1 0 -412.584 14.8615 14.9618 697.399 505.127 583.761 0 0 0 0.5 
427 1 1 2.51218 2.34591 1.96341 -29 0 0 -270.743 -4.80616 -10.7813 -598.273 787.909 490.851 0 0 0 0.5 
765 2 2 0.455876 4.28486 1.69936 219 1 0 -93.7583 6.4804 -7.08208 2030.58 -641.135 -713.916 0 0 0 0.5 
420 1 1 3.59356 1.17837 1.46562 -7 0 1 -345.282 -42.2712 -8.63112 -1795.29 1894.9 196.046 0 0 0 0.5 
380 1 1 1.54682 4.97458 0.656652 -44 0 1 -38.9303 24.4553 14.1347 3801.11 -1293.26 -3268.52 0 0 0 0.5 
329 1 1 4.83285 0.597087 0.414705 -122 0 1 -452.339 13.6009 5.66523 1848.7 -1558.82 -2864.81 0 0 0 0.5 
769 2 2 3.33676 1.93512 1.81173 -35 0 1 -306.259 -15.8705 4.98133 -2436.2 2145.66 56.6575 0 0 0 0.5 
626 2 2 3.7422 3.36432 1.6195 -55 0 -1 -207.567 4.10988 3.91372 -152.073 844.352 -314.668 0 0 0 0.5 
644 2 2 0.739127 4.97694 0.450017 299 1 1 -47.675 11.5867 8.38564 -1281.89 -57.1099 -783.302 0 0 0 0.5 
480 1 1 0.333634 1.55086 1.99366 -103 0 2 -353.853 2.44483 -2.71692 -1336.96 1553.24 2415.25 0 0 0 0.5 
98 1 1 3.86914 3.93248 0.848933 -48 0 0 -147.026 5.55333 -13.4319 1521.68 -4672.58 -273.428 0 0 0 0.5 
298 1 1 4.4071 1.10227 1.08394 -126 0 0 -379.611 -23.3566 17.1842 810.011 390.74 2044.88 0 0 0 0.5 
147 1 1 4.25987 1.87553 1.67345 -116 0 0 -345.068 12.7468 14.5974 2276.38 -1766.46 -2299.64 0 0 0 0.5 
130 1 1 4.33167 2.29553 0.221523 -49 0 0 -247.529 -5.96107 -18.6331 -77.1582 -334.786 1444.89 0 0 0 0.5 
18 1 1 4.86645 3.07172 1.3354 -45 0 1 -192.172 33.7378 -7.98931 955.227 534.287 -1052.33 0 0 0 0.5 
51 1 1 3.33849 2.70207 2.25295 -4 0 1 -271.007 34.3048 7.05066 -556.986 -980.907 -1025.38 0 0 0 0.5 
282 1 1 2.14778 1.4911 3.31443 202 1 0 -359.802 4.29883 15.7334 -1150.06 2094.96 -671.715 0 0 0 0.5 
270 1 1 2.30632 0.199793 2.45156 -93 0 1 -488.264 1.19091 22.9827 -394.658 -572.624 -135.085 0 0 0 0.5 
875 2 2 1.185 1.53751 3.45117 -41 0 1 -368.576 9.25874 2.27233 -69.905 -104.958 144.966 0 0 0 0.5 
153 1 1 2.42629 4.38823 2.89129 25 0 0 -42.6773 -16.5262 9.16344 0.196457 -150.259 257.434 0 0 0 0.5 
842 2 2 1.8959 1.50656 2.2295 -118 0 1 -370.508 7.71206 6.41975 376.935 -108.306 413.022 0 0 0 0.5 
751 2 2 0.730985 2.57183 2.28892 155 1 1 -272.727 15.7499 8.88522 -381.927 -24.9738 1451.56 0 0 0 0.5 
196 1 1 4.05241 2.21151 2.63595 219 1 0 -280.688 -1.34405 -11.4943 -1200.08 -631.852 31.0968 0 0 0 0.5 
416 1 1 1.12579 1.82766 2.12217 -94 0 0 -338.459 24.5252 -4.40232 -974.923 -2791.74 -1672.16 0 0 0 0.5 
579 2 2 1.40966 3.64901 3.10057 -44 0 0 -123.628 -11.6812 -1.32957 -96.5086 -1567.24 2319.55 0 0 0 0.5 
931 2 2 3.02888 4.98628 2.03446 30 0 0 -19.1153 1.76472 6.38944 95.6495 -105.238 -92.7971 0 0 0 0.5 
514 2 2 0.0565557 1.82887 3.83359 -80 0 0 -344.158 2.98275 -11.2369 482.552 -885.751 -1792.99 0 0 0 0.5 
715 2 2 3.30143 0.372046 2.56162 148 1 0 -490.796 12.6539 -27.2734 -108.097 23.4071 -464.651 0 0 0 0.5 
445 1 1 1.45059 2.54639 2.97974 -29 0 0 -258.386 6.62752 -1.42686 -117.448 4.15243 -112.75 0 0 0 0.5 
877 2 2 0.0158602 1.07155 2.74947 195 1 1 -423.76 12.6148 -13.7712 -2470.65 1763.81 -819.15 0 0 0 0.5 
440 1 1 0.0833444 0.454348 2.09538 1 0 0 -427.4 4.2511 -21.8362 1071.16 -892.294 1747.05 0 0 0 0.5 
284 1 1 4.31761 4.38628 3.31497 -98 0 0 -18.4884 -17.545 -11.5891 1109.93 -2135.46 287.244 0 0 0 0.5 
269 1 1 4.84743 0.419281 3.19832 -146 0 0 -456.423 0.493832 -10.863 509.075 -171.844 -587.784 0 0 0 0.5 
389 1 1 1.42992 0.770365 2.75544 -76 0 0 -435.807 16.0356 -7.60651 1426.4 135.722 -223.316 0 0 0 0.5 
909 2 2 1.51617 0.393291 3.54304 -87 0 1 -480.227 10.091 20.6135 647.083 437.552 1526.38 0 0 0 0.5 
619 2 2 4.40613 0.427179 3.97291 -64 0 1 -455.067 15.2398 -16.6919 -876.327 -826.784 239.052 0 0 0 0.5 
933 2 2 1.7413 3.88144 2.25645 -25 0 0 -133.126 9.69023 27.142 4645.95 -943.301 -3232.47 0 0 0 0.5 
690 2 2 3.8531 1.32033 2.36896 118 1 0 -396.388 1.5059 -4.31063 2165.94 -1405.39 2729.94 0 0 0 0.5 
418 1 1 0.536829 0.383035 3.70008 -128 0 1 -471.43 -9.65933 -2.79801 1146.95 713.542 115.78 0 0 0 0.5 
767 2 2 2.62569 2.55541 3.7662 -99 0 1 -225.951 1.45983 6.69406 541.627 -754.18 893.372 0 0 0 0.5 
821 2 2 0.552478 0.740696 2.99061 181 1 0 -425.925 4.28749 -9.68676 1098.01 -944.648 259.247 0 0 0 0.5 
895 2 2 0.0837595 3.81539 3.70748 -79 0 0 -112.867 -6.38104 -4.28603 89.5021 -99.8125 -142.896 0 0 0 0.5 
731 2 2 4.01813 3.36855 2.66005 285 1 0 -169.905 7.95097 16.0453 2844.56 -1018.11 964.951 0 0 0 0.5 
56 1 1 3.04436 4.34035 3.67236 -53 0 0 -26.1674 -19.2593 1.61841 774.351 -1621.5 -482.11 0 0 0 0.5 
957 2 2 3.53998 3.44415 3.50923 46 0 0 -171.581 9.14063 25.7192 -1027.3 189.208 77.5114 0 0 0 0.5 
265 1 1 0.994975 4.86437 3.16187 -63 0 1 -3.72962 -2.49572 -4.37481 771.732 -1722.42 -1178.42 0 0 0 0.5 
691 2 2 0.891445 4.18418 2.54588 169 1 0 -73.926 -5.80641 -22.362 -1611.07 1409.14 384.145 0 0 0 0.5 
984 2 2 2.6745 1.48171 2.44747 177 1 1 -368.897 6.05704 -8.65887 1459.47 209.688 -22.3889 0 0 0 0.5 
456 1 1 2.56734 0.65031 3.59081 -63 0 0 -455.688 3.64515 10.5613 3347.29 -3174.83 -1255.36 0 0 0 0.5 
785 2 2 3.86733 2.37023 3.57422 277 1 1 -287.347 6.28223 -4.60923 -330.268 -329.764 108.296 0 0 0 0.5 
413 1 1 2.55019 3.46595 3.71797 -41 0 0 -173.601 25.468 24.9942 9.91179 -119.543 6.33229 0 0 0 0.5 
778 2 2 2.696 2.35681 2.89091 -148 0 1 -271.877 6.28304 -6.06684 -32.7743 -200.559 -142.038 0 0 0 0.5 
332 1 1 3.38119 4.53224 2.65542 -136 0 0 -42.9477 5.04812 32.8417 685.242 -335.034 776.503 0 0 0 0.5 
871 2 2 3.33283 3.61986 2.69596 -10 0 0 -130.443 -3.65201 -9.21986 -4734.05 1525.82 -82.5713 0 0 0 0.5 
921 2 2 4.41166 3.24585 3.53469 -68 0 1 -176.531 2.96919 4.64985 -254.123 2343.02 -603.476 0 0 0 0.5 
860 2 2 0.128011 4.4649 2.80896 -27 0 1 -26.4957 -17.9154 25.5742 -1208.36 -923.22 322.531 0 0 0 0.5 
907 2 2 3.18038 1.2088 3.01735 -116 0 0 -386.207 -4.35236 31.2394 51.3791 2.27873 -204.077 0 0 0 0.5 
301 1 1 1.51003 4.40376 3.66936 71 0 0 -33.8969 -13.9412 -9.69296 1357.85 105.158 -2902.23 0 0 0 0.5 
513 2 2 0.478016 3.37572 3.07802 -77 0 0 -126.284 -28.4091 -38.1169 103.934 81.3751 1463.79 0 0 0 0.5 
819 2 2 0.432813 3.41939 2.08011 -55 0 1 -153.332 4.8108 -10.4371 -2819.31 1626.74 -880.211 0 0 0 0.5 
278 1 1 3.79615 1.322 3.70087 191 1 -1 -334.478 -22.5909 -19.1752 -70.5324 -503.431 -1905.68 0 0 0 0.5 
798 2 2 4.72807 2.46513 3.93577 -164 0 0 -291.021 26.2696 23.1064 1251.05 -2227.58 1879.57 0 0 0 0.5 
189 1 1 4.83557 1.77664 3.60927 182 1 0 -356.608 -2.74961 -11.5167 -1146.07 1696.97 -1891.7 0 0 0 0.5 
851 2 2 4.93521 2.19752 2.71869 -151 0 0 -283.452 21.8303 -12.77 821.45 312.197 984.732 0 0 0 0.5 
829 2 2 2.66195 0.0415402 5.2852 -59 0 0 -516.09 10.6603 -5.40067 -47.2406 119.328 62.2007 0 0 0 0.5 
702 2 2 0.800169 1.38538 5.40157 194 1 0 -337.399 -4.15242 8.78738 -2623.98 1692.55 -1869.6 0 0 0 0.5 
21 1 1 4.24418 4.19526 4.60516 -88 0 1 -50.0197 1.48442 1.42746 -437.81 -766.332 1276.26 0 0 0 0.5 
786 2 2 0.0580826 0.753335 4.85317 -144 0 1 -473.68 29.2143 16.0762 1246.97 320.882 1902.16 0 0 0 0.5 
939 2 2 2.46759 4.86634 4.22689 -47 0 0 5.03843 -2.35544 -6.39408 1841.86 -1223.36 1827.42 0 0 0 0.5 
64 1 1 1.36849 4.35388 5.14865 48 0 -1 -88.1681 -9.26833 -5.25713 -147.166 688.295 -1477.7 0 0 0 0.5 
295 1 1 0.530997 1.1691 4.04261 120 1 -1 -377.021 2.47393 10.3931 994.443 -1236.82 718.54 0 0 0 0.5 
544 2 2 1.86628 2.82782 5.8148 0 0 0 -239.783 17.3363 5.04915 -709.801 -633.65 -44.3983 0 0 0 0.5 
485 1 1 0.124519 1.84315 5.5963 -102 0 1 -328.073 8.06714 20.3664 -1105.42 -83.1912 136.659 0 0 0 0.5 
24 1 1 1.66872 1.90896 5.64278 171 1 -1 -312.511 12.4512 1.71548 -297.849 -803.791 147.116 0 0 0 0.5 
132 1 1 1.74363 3.57996 5.32205 52 0 0 -153.256 12.735 -42.2004 2500.35 -3332.44 836.72 0 0 0 0.5 
217 1 1 4.41407 1.88245 4.81473 -59 0 0 -259.638 0.516003 -5.83836 207.836 1382.77 690.047 0 0 0 0.5 
673 2 2 0.36732 0.159299 4.43399 133 1 -1 -536.274 0.70647 12.4872 -463.942 -624.225 -1019.73 0 0 0 0.5 
844 2 2 2.42742 2.39445 5.13047 156 1 0 -248.253 -5.41652 28.605 426.172 -345.63 -516.837 0 0 0 0.5 
940 2 2 4.67273 0.196439 5.68576 4 0 -1 -405.928 -18.8317 -13.5431 0 0 0 0 0 0 0.5 
258 1 1 3.40196 1.80854 4.2215 -108 0 1 -288.473 -3.44321 7.49774 -302.763 1075.45 42.9066 0 0 0 0.5 
78 1 1 1.87643 0.975621 4.17314 -13 0 1 -373.921 -5.44626 25.3585 -2740.95 379.494 1178.89 0 0 0 0.5 
82 1 1 4.59535 2.94882 4.81821 42 0 -1 -168.542 -16.2959 9.79008 -4047.16 2782.7 740.216 0 0 0 0.5 
399 1 1 1.71211 3.89912 4.40478 -122 0 -1 -128.392 -15.7306 -47.4331 595.124 -1827.12 2717.29 0 0 0 0.5 
980 2 2 1.17038 1.57811 4.65711 152 1 1 -355.982 20.0787 -21.9097 208.458 123.263 -51.3658 0 0 0 0.5 
191 1 1 1.38749 0.984923 5.66632 143 1 0 -385.25 -1.54344 -12.6055 2657 409.155 -111.129 0 0 0 0.5 
253 1 1 0.230518 0.242712 5.40314 -195 0 0 -510.737 6.25196 12.8076 3203.05 -1272.52 -309.359 0 0 0 0.5 
460 1 1 3.98356 4.95457 5.47646 -19 0 0 -19.8214 -8.45769 -12.9243 1299.18 1232.96 870.739 0 0 0 0.5 
748 2 2 0.924807 2.74163 5.44206 197 1 -1 -215.994 9.33188 -7.87322 325.571 -1081.26 -680.587 0 0 0 0.5 
572 2 2 1.55409 2.75704 4.86814 -82 0 0 -233.249 10.1974 -10.404 1196.16 99.012 477.057 0 0 0 0.5 
612 2 2 2.48366 1.78149 4.27615 -19 0 1 -296.744 -20.8326 14.3399 -143.774 923.002 -595.556 0 0 0 0.5 
966 2 2 1.82754 2.63089 4.07049 -64 0 1 -246.506 -3.68102 -13.6892 -309.506 -139.288 -1047.44 0 0 0 0.5 
204 1 1 3.31446 4.81647 4.92786 -140 0 1 -15.7018 -29.2416 -9.77527 312.197 762.044 -1554.61 0 0 0 0.5 
348 1 1 1.00238 3.63354 5.73483 -25 0 0 -148.592 -7.40902 -4.98453 1631.45 -318.117 282.646 0 0 0 0.5 
922 2 2 0.138918 2.75426 5.6773 33 0 0 -213.457 1.78027 -0.631192 -372.657 -799.232 -1902.08 0 0 0 0.5 
816 2 2 0.727466 3.88013 4.58475 -8 0 0 -73.4349 -21.687 0.903297 925.907 -612.52 -758.517 0 0 0 0.5 
955 2 2 3.96244 3.70211 5.42646 11 0 1 -117.976 2.29959 14.6945 580.44 494.47 -541.154 0 0 0 0.5 
609 2 2 0.54038 4.29326 5.51491 -43 0 0 -95.6882 7.84359 8.40274 -763.133 516.022 -28.6164 0 0 0 0.5 
102 1 1 4.3411 1.48174 5.65168 -12 0 -1 -339.365 -2.10562 -5.9176 -1420.67 768.095 -666.48 0 0 0 0.5 
495 1 1 3.56581 2.0223 5.11252 -70 0 1 -266.706 -16.237 8.07484 -514.605 571.186 1011.75 0 0 0 0.5 
110 1 1 4.35598 1.20902 4.3272 -81 0 1 -381.337 4.10008 9.40957 -510.149 620.026 254.75 0 0 0 0.5 
666 2 2 -0.0179881 3.91347 4.93016 20 0 0 -79.2786 -35.6029 4.87764 778.754 1816.27 973.397 0 0 0 0.5 
464 1 1 0.685196 4.59123 4.02638 23 0 0 -28.7913 -12.7668 -10.2405 2347.02 -493.978 411.761 0 0 0 0.5 
628 2 2 0.264244 4.82807 4.8771 38 0 1 5.58153 8.3267 -0.679622 -1127.26 -4057.59 -716.027 0 0 0 0.5 
478 1 1 3.18436 2.71279 5.63039 -15 0 1 -242.622 15.5024 19.8767 221.014 -349.057 -253.906 0 0 0 0.5 
531 2 2 1.62567 4.85202 4.42065 -65 0 0 -5.24193 -2.74047 -25.2964 1199.69 120.245 15.8393 0 0 0 0.5 
747 2 2 3.15451 0.939427 5.06749 -185 0 0 -384.985 -6.16479 32.3947 0 0 0 0 0 0 0.5 
352 1 1 0.24268 0.213873 6.10819 -87 0 0 -451.004 1.85958 18.5005 -2063.05 508.809 1022.32 0 0 0 0.5 
697 2 2 4.86761 3.68795 7.86797 -26 0 -1 -57.6843 -20.3883 -10.0328 0 0 0 0 0 0 0.5 
222 1 1 0.775234 2.73733 6.39493 233 1 0 -233.059 -6.83127 -27.0516 2892.38 -1158.51 3849.71 0 0 0 0.5 
433 1 1 4.14052 3.36267 6.34428 188 1 -1 -153.348 6.64583 40.7272 -877.441 146.262 -737.061 0 0 0 0.5 
717 2 2 1.40815 2.56947 7.09857 -89 0 0 -254.17 5.26861 23.6203 2100.98 -3284.24 -1934.01 0 0 0 0.5 
992 2 2 2.25645 3.09558 7.11782 -137 0 0 -255.564 15.3688 -5.62287 605.577 -2065.88 -230.148 0 0 0 0.5 
956 2 2 0.190211 1.69396 7.55643 -89 0 0 -320.679 -13.5295 7.05312 -45.0594 -1607.67 -35.5757 0 0 0 0.5 
624 2 2 2.1237 4.06795 6.3749 17 0 -1 -115.73 0.298878 -36.9226 5673.24 -1425.3 1053.06 0 0 0 0.5 
1 1 1 1.75861 0.60214 6.09767 -196 0 -1 -404.654 -8.17732 8.29522 1407.46 -402.204 -230.811 0 0 0 0.5 
904 2 2 1.84006 2.12472 7.94851 135 1 -1 -257.216 3.06406 -7.36177 -178.489 -393.837 -198.455 0 0 0 0.5 
721 2 2 1.02689 1.75024 7.40261 186 1 0 -324.496 29.6639 13.9573 -140.337 820.684 -2044.12 0 0 0 0.5 
703 2 2 1.79603 0.213521 6.76375 -146 0 0 -452.202 -14.9877 6.44318 1059.52 -1102.64 1855.3 0 0 0 0.5 
61 1 1 3.07238 2.6738 7.02662 -130 0 0 -262.871 9.44382 17.2008 956.616 -494.503 -106.928 0 0 0 0.5 
415 1 1 4.51834 4.7243 6.45358 -3 0 -1 -13.5423 -22.0944 -40.0984 522.989 -1383.24 -214.97 0 0 0 0.5 
917 2 2 3.00851 4.62546 7.9793 37 0 0 -19.7113 -1.70319 0.439289 887.83 -40.7979 -791.165 0 0 0 0.5 
375 1 1 2.06514 2.22072 6.60201 168 1 -1 -268.815 6.46227 13.8029 -4.03608 129.773 -232.208 0 0 0 0.5 
506 2 2 0.156256 1.87561 6.60046 -96 0 0 -305.691 -4.27294 7.10351 1241.4 -2907.95 -1352.41 0 0 0 0.5 
224 1 1 0.132404 0.606116 6.9332 -145 0 0 -406.52 4.15458 10.431 -729.068 1223.85 382.413 0 0 0 0.5 
584 2 2 2.99995 0.0910475 7.85351 -92 0 0 -533.608 13.3241 4.14187 373.212 -1149.9 -371.37 0 0 0 0.5 
338 1 1 0.817434 0.148934 6.91018 105 1 0 -437.749 -8.98204 -6.76309 -989.739 2238.94 -1584.2 0 0 0 0.5 
787 2 2 0.80845 2.81877 7.8439 -59 0 0 -201.798 -12.3711 -13.1945 -2175.04 1391.69 3052.34 0 0 0 0.5 
65 1 1 1.83949 1.15721 7.10012 -63 0 0 -434.606 32.2858 -24.2763 -358.669 629.78 437.354 0 0 0 0.5 
200 1 1 1.13206 3.33808 6.96668 -128 0 0 -163.037 -5.86524 -9.13953 1037.31 410.33 -177.98 0 0 0 0.5 
403 1 1 1.28786 3.77259 7.90538 -9 0 -1 -135.925 14.9923 3.57124 -61.0664 130.059 1905.56 0 0 0 0.5 
241 1 1 1.77105 3.81721 7.40202 288 1 1 -152.929 33.0983 -24.9996 1901.7 2086.65 2889.03 0 0 0 0.5 
291 1 1 0.927028 0.93769 7.41783 -113 0 0 -400.514 -2.68572 8.04285 -397.325 177.233 -4.77289 0 0 0 0.5 
314 1 1 3.40787 1.77531 7.70006 -89 0 0 -295.648 -0.696745 -13.4635 -147.877 148.622 469.947 0 0 0 0.5 
625 2 2 1.38413 4.14757 6.69082 -34 0 0 -126.161 -9.18638 -4.61972 4360.4 430.678 -820.597 0 0 0 0.5 
780 2 2 4.11247 1.76584 6.99263 -150 0 0 -316.461 21.1352 -30.7028 158.025 31.6999 -128.761 0 0 0 0.5 
521 2 2 4.83578 1.00465 6.26734 -78 0 0 -364.36 0.336652 -5.81007 4.50266 1259.27 779.523 0 0 0 0.5 
139 1 1 0.555111 3.76913 7.442 -35 0 0 -144.142 -7.43221 18.2143 1876.78 205.055 689.902 0 0 0 0.5 
33 1 1 4.50716 1.63719 7.73817 235 1 0 -370.327 15.522 -4.40967 115.504 -1004.83 -1078.06 0 0 0 0.5 
86 1 1 2.70532 4.82304 6.08111 -33 0 1 -15.9873 -19.2542 -13.4762 23.3526 -3003.15 -168.296 0 0 0 0.5 
328 1 1 1.48184 4.53584 6.05078 36 0 -1 -38.2547 -10.373 -20.9814 -1642 -370.734 -101.263 0 0 0 0.5 
665 2 2 3.04267 0.890041 6.25328 125 1 1 -388.186 -10.0166 -30.4978 106.392 -2190.63 -471.917 0 0 0 0.5 
84 1 1 2.08893 4.50571 7.99787 115 0 0 -16.5489 -7.64251 -4.96186 494.522 -2057.12 104.008 0 0 0 0.5 
754 2 2 2.54751 0.911464 7.64403 -103 0 0 -452.371 21.7848 -12.8597 -211.078 1238.12 -354.984 0 0 0 0.5 
629 2 2 2.74025 1.77517 6.25246 -154 0 -1 -288.041 -14.6013 8.69355 -712.735 1536.34 -511.282 0 0 0 0.5 
733 2 2 1.78874 4.94102 7.06634 119 0 -1 -20.9351 0.257107 -0.935866 2285.71 -6269.88 664.806 0 0 0 0.5 
311 1 1 3.96316 4.01896 7.53087 -18 0 0 -67.2083 -16.2147 -22.1612 0 0 0 0 0 0 0.5 
772 2 2 0.870592 4.66092 7.14676 -61 0 1 -49.2442 10.0567 7.95821 -1500.36 -696.531 1834.89 0 0 0 0.5 
974 2 2 -0.0178427 4.24791 7.09479 332 1 0 -58.3088 -6.45672 -0.173072 -2032.31 1279.29 -2206.79 0 0 0 0.5 
706 2 2 1.5034 4.95819 7.88173 63 0 0 -15.353 2.76943 0.101638 473.767 345.74 -102.217 0 0 0 0.5 
899 2 2 3.88339 0.885027 6.48513 -133 0 -1 -379.381 -5.44433 -23.6952 521.15 -8.62563 -579.406 0 0 0 0.5 
353 1 1 3.07962 0.248208 6.94801 118 1 0 -482.514 0.702824 -11.5625 1.42967 -281.807 427.646 0 0 0 0.5 
845 2 2 0.561873 4.45029 6.34281 -30 0 0 -42.8 3.89729 6.33236 -2253.14 1576.15 -908.721 0 0 0 0.5 
347 1 1 0.680937 4.9268 7.91392 -11 0 -1 -4.12277 -2.23467 27.4074 -1417.64 264.128 578.711 0 0 0 0.5 
220 1 1 0.514516 3.62939 6.48924 266 1 0 -149.216 -8.41877 3.0225 -2570.38 2077.63 -84.756 0 0 0 0.5 
260 1 1 3.63106 2.04529 6.2497 -124 0 0 -300.966 13.9679 -20.1409 -17.5654 773.508 -1362.77 0 0 0 0.5 
509 2 2 4.45805 0.93846 7.11831 -106 0 0 -394.535 -18.6886 4.42871 -120.138 -21.0922 226.321 0 0 0 0.5 
408 1 1 4.93487 2.56486 7.29583 -17 0 -1 -220.177 0.714676 -23.3339 -1422.91 760.851 822.383 0 0 0 0.5 
565 2 2 1.50876 0.394312 8.09277 -96 0 0 -477.794 10.8221 -5.64444 1434.22 -750.108 -161.665 0 0 0 0.5 
316 1 1 2.34106 0.388181 9.60346 -124 0 -1 -459.42 -1.25472 -4.31023 -2453.87 -2082.82 -505.592 0 0 0 0.5 
168 1 1 0.566472 0.372164 8.04566 54 1 0 -455.787 8.60611 -0.250389 905.642 -722.512 -211.15 0 0 0 0.5 
972 2 2 3.29941 4.62567 8.90855 15 0 -1 -28.6094 -3.783 -1.53274 1616.86 409.107 802.79 0 0 0 0.5 
208 1 1 4.63932 2.57822 9.24544 -28 0 0 -239.71 17.3987 -19.9392 -1967.46 3017.78 787.255 0 0 0 0.5 
35 1 1 1.39362 0.945398 8.91735 -132 0 1 -404.735 19.2805 9.898 610.861 -399.431 -1984.95 0 0 0 0.5 
125 1 1 1.42507 3.27199 9.95137 -238 -1 0 -170.911 -13.9375 18.6292 131.38 1423 1871.97 0 0 0 0.5 
237 1 1 1.48065 0.218499 9.23243 -107 0 0 -476.728 -1.82554 6.02696 55.664 636.814 -2161.55 0 0 0 0.5 
912 2 2 4.58437 4.71242 8.99316 11 0 -1 -3.36174 -12.8344 8.07376 623.486 1102.5 360.404 0 0 0 0.5 
639 2 2 4.40436 1.42137 9.473 79 1 0 -398.732 17.1664 6.42002 -905.782 -1936.19 -342.809 0 0 0 0.5 
555 2 2 3.80485 3.42539 9.90659 -29 0 -1 -122.167 -9.05114 -20.6818 226.409 2115.94 1166.57 0 0 0 0.5 
581 2 2 1.85909 4.04568 9.74675 -17 0 0 -81.0225 -6.47585 13.7812 -1625.81 -2955.49 1752.36 0 0 0 0.5 
510 2 2 2.03491 2.94205 9.43412 -48 0 -1 -181.969 -1.85921 2.81064 962.181 -94.6016 -57.0549 0 0 0 0.5 
199 1 1 1.57031 1.31041 8.04302 -221 0 -1 -404.581 20.808 13.9583 1949.59 -1010.37 -64.7278 0 0 0 0.5 
759 2 2 0.880491 1.50344 9.5586 -76 0 -1 -381.956 6.38589 -16.8272 1392.38 -1444.16 1782.02 0 0 0 0.5 
424 1 1 2.64439 3.87011 9.37643 -23 0 0 -79.9552 5.98051 6.92128 854.168 38.7611 735.15 0 0 0 0.5 
977 2 2 0.729275 0.366795 9.63399 117 1 -1 -471.603 -3.51784 -0.958658 -289.629 -390.257 -674.701 0 0 0 0.5 
740 2 2 2.12724 2.52117 8.69487 -69 0 0 -198.713 -15.6455 -1.71717 834.799 -343.04 -992.179 0 0 0 0.5 
750 2 2 3.65738 0.884713 9.98446 -123 0 0 -429.471 4.95791 1.97793 -25.1652 2309.95 3146.51 0 0 0 0.5 
596 2 2 0.290255 2.11213 9.19879 -89 0 0 -276.421 -8.50859 -22.8297 -3174.76 3872.95 -1665.67 0 0 0 0.5 
708 2 2 4.60484 0.557213 8.5513 -138 0 0 -413.577 -5.84963 6.24894 176.635 -26.8005 -14.1498 0 0 0 0.5 
645 2 2 2.67553 1.06612 8.58122 116 1 -1 -380.613 14.1505 -23.6066 -1006.64 1186 -1285.06 0 0 0 0.5 
868 2 2 0.506018 3.00652 9.1438 -85 0 1 -210.169 5.53209 17.8536 2716.38 -2923.51 -1879.4 0 0 0 0.5 
95 1 1 1.96614 4.02259 8.74486 -19 0 0 -72.2214 -21.3484 -1.79664 1105.37 -2962.48 -820.939 0 0 0 0.5 
806 2 2 1.43835 3.15298 8.59462 -91 0 0 -186.825 -7.28805 7.05419 733.606 -2665.03 -411.689 0 0 0 0.5 
614 2 2 1.95565 1.52356 9.44585 127 1 0 -371.094 6.7767 -11.906 303.485 -599.543 -636.219 0 0 0 0.5 
481 1 1 3.51321 3.6885 8.9785 72 0 -1 -114.596 -6.6869 -29.4079 1184.01 -1476.58 -311.089 0 0 0 0.5 
90 1 1 1.83786 4.7786 9.73403 53 0 -1 -35.3111 10.441 18.0803 -177.302 -1323.76 453.085 0 0 0 0.5 
496 1 1 0.733412 3.56802 8.45135 89 0 -1 -166.131 2.9024 1.94846 -1913.55 565.172 994.858 0 0 0 0.5 
249 1 1 1.19392 3.79698 9.24353 -76 0 1 -84.6349 -19.19 1.90135 -1685.47 1731.45 -1410.6 0 0 0 0.5 
150 1 1 3.99 0.520578 9.35337 89 1 -1 -484.164 13.6679 -20.0853 4696.99 89.0833 123.582 0 0 0 0.5 
887 2 2 3.79471 0.857671 8.45386 143 1 -1 -432.136 5.83292 -5.26883 -436.677 595.722 -1488.27 0 0 0 0.5 
582 2 2 1.59988 4.64951 8.82324 -7 0 -1 -16.6102 -8.35181 10.4101 -915.163 1466.49 19.3708 0 0 0 0.5 
843 2 2 2.19883 3.28218 8.06846 -31 0 0 -208.245 20.6393 15.7212 -766.954 1446.89 -1180.43 0 0 0 0.5 
652 2 2 4.4599 1.90145 8.60226 -32 0 0 -316.493 -11.5492 -6.88104 -2588.85 2405.14 3865.91 0 0 0 0.5 
827 2 2 4.59272 3.52724 8.84832 -51 0 0 -104.753 -7.72719 -0.683351 -1060.65 -110.239 212.316 0 0 0 0.5 
935 2 2 3.31665 2.14801 8.60606 -63 0 0 -292.805 10.1892 -6.24281 1310.28 -1761.52 1588.92 0 0 0 0.5 
573 2 2 3.35953 1.76521 9.48235 -109 0 0 -343.67 9.72854 10.5585 -12.557 112.102 -256.616 0 0 0 0.5 
138 1 1 4.14675 4.42738 9.84745 -50 0 0 -60.7082 4.98563 -10.4651 -1643.03 2717.19 -1282.2 0 0 0 0.5 
983 2 2 3.91124 2.61972 9.49567 6 0 -1 -236.169 -5.75132 -6.81449 -2774.19 -1076.84 -1646.1 0 0 0 0.5 
988 2 2 2.89928 2.64497 8.04703 20 0 0 -271.384 13.6548 14.1598 762.313 -338.996 -1751.85 0 0 0 0.5 
651 2 2 4.13906 4.87838 8.17754 25 0 -1 -13.0755 -15.8513 11.1862 391.752 -743.104 -313.188 0 0 0 0.5 
954 2 2 3.04378 0.689303 9.19581 184 1 -1 -445.324 9.81635 1.22814 -779.621 -436.795 1076.89 0 0 0 0.5 
317 1 1 0.0672888 4.72851 8.45879 -6 0 0 11.5707 -31.0794 35.2734 -1167.75 -257.966 947.213 0 0 0 0.5 
382 1 1 0.778536 4.25923 9.82966 -198 -1 -2 -76.3329 -0.545148 11.9686 -2563.07 1021.32 -2459.59 0 0 0 0.5 
42 1 1 4.94983 2.75061 8.31686 -85 0 0 -210.803 3.57439 -21.2471 -1367.03 948.432 -766.953 0 0 0 0.5 
692 2 2 3.52391 7.9716 1.90698 163 0 0 286.465 9.19277 -9.48601 -491.02 -177.143 -978.191 0 0 0 0.5 
928 2 2 2.72412 6.6512 0.581123 15 0 0 175.732 -4.96664 -6.96186 -1295.03 34.2894 -487.67 0 0 0 0.5 
683 2 2 2.65325 9.36855 0.637695 58 0 0 402.719 26.0505 7.6271 2054.16 -2577.85 1565.91 0 0 0 0.5 
144 1 1 -0.00741049 5.6783 0.847775 20 0 0 58.1448 -2.65809 0.19878 534.744 -1225.02 -329.262 0 0 0 0.5 
503 2 2 0.412745 9.63546 0.316121 1 0 0 458.302 -4.70566 23.6442 -872.802 -1415.99 336.921 0 0 0 0.5 
178 1 1 3.71381 9.15043 0.949112 55 0 0 364.333 8.21442 21.7265 0 0 0 0 0 0 0.5 
532 2 2 3.87983 6.19565 1.83977 51 0 0 160.631 -5.4649 3.09322 -263.131 89.187 -168.309 0 0 0 0.5 
591 2 2 3.52673 5.532 1.07649 -264 -1 1 72.268 -11.9092 25.6714 -92.2884 -1706.24 885.47 0 0 0 0.5 
852 2 2 2.61162 7.39898 1.01753 -179 -1 1 237.331 9.92411 -2.30721 -525.969 508.934 -1005.41 0 0 0 0.5 
986 2 2 3.00608 5.63713 0.304812 59 0 1 78.9259 -5.90442 5.60171 -151.782 718.759 1543.68 0 0 0 0.5 
202 1 1 0.0927302 7.88487 0.538562 102 0 0 323.888 -14.0719 -5.84646 -1202.73 1377.34 -657.981 0 0 0 0.5 
587 2 2 3.94895 5.6419 0.31928 -22 0 1 53.4252 2.09067 -6.20152 1570.05 -1496.3 1282.42 0 0 0 0.5 
792 2 2 4.81443 5.22984 1.61957 210 1 0 11.7637 -6.08435 19.532 -580.999 -271.856 765.462 0 0 0 0.5 
996 2 2 1.48008 9.59336 1.07601 -72 -1 0 453.404 -1.08574 10.7513 -311.481 1499.89 -94.0856 0 0 0 0.5 
259 1 1 4.67234 9.73155 0.414626 -137 -1 -1 483.647 -15.92 9.49985 -2020.52 1248.68 237.656 0 0 0 0.5 
419 1 1 1.07711 8.62503 1.0116 114 0 0 355.271 -13.3141 8.99663 1126.23 395.106 -1497.34 0 0 0 0.5 
994 2 2 3.46782 7.20774 1.2967 76 0 0 237.83 -0.52391 -5.38269 -1891.41 193.822 219.479 0 0 0 0.5 
273 1 1 0.575371 9.1616 1.66044 -180 -1 2 443.58 -19.9121 3.44911 -3560.08 3388.82 806.984 0 0 0 0.5 
343 1 1 1.23326 9.61929 0.188732 -64 -1 1 454.651 8.19244 8.85678 -1135.21 1342.76 -838.437 0 0 0 0.5 
574 2 2 3.2612 6.24767 0.999043 14 0 1 156.875 7.41265 7.47779 1070.41 340.986 -908.64 0 0 0 0.5 
209 1 1 0.564521 6.54554 1.22473 -236 -1 0 129.356 -1.90953 -0.269096 2285.2 -2696.21 528.584 0 0 0 0.5 
953 2 2 2.6447 5.46926 1.53344 88 0 0 15.7392 18.3244 -30.9568 1235.07 1726.76 -1115.2 0 0 0 0.5 
461 1 1 0.929267 5.27278 1.29957 256 1 0 46.408 -5.99079 -3.67006 -4791.07 1897.89 3144.51 0 0 0 0.5 
29 1 1 -0.0499825 8.76673 0.436465 108 0 0 390.003 12.815 3.96824 291.465 868.94 64.4814 0 0 0 0.5 
578 2 2 2.57351 8.26508 1.30022 106 0 0 306.61 13.3721 3.47347 3706.19 -2709.05 1205.7 0 0 0 0.5 
962 2 2 1.41859 9.39349 1.91309 -136 -1 0 424.33 6.59906 16.4339 -1307.58 -694.968 -1218.96 0 0 0 0.5 
240 1 1 3.24521 8.21999 0.611836 -169 -1 1 299.279 1.35254 13.0279 506.494 76.9422 -611.485 0 0 0 0.5 
171 1 1 1.54563 6.39631 1.39799 -24 0 0 130.131 6.78088 -6.01715 773.632 -694.314 -1367.29 0 0 0 0.5 
969 2 2 1.98728 8.69988 1.74804 121 0 0 353.244 10.5665 22.7204 -119.159 -1244.69 421.574 0 0 0 0.5 
409 1 1 2.908 6.35204 1.77206 325 1 1 150.934 -6.45559 9.5841 421.577 -2057.59 816.792 0 0 0 0.5 
414 1 1 2.71937 9.48962 1.7862 131 0 0 438.265 -13.2412 18.5876 0 0 0 0 0 0 0.5 
303 1 1 4.35492 7.82574 0.741098 151 0 1 261.26 32.3141 9.16791 -359.068 1576.85 1635.93 0 0 0 0.5 
627 2 2 -0.0259441 5.77224 1.85313 -3 0 0 112.795 1.43738 -18.1072 84.164 -1672.16 911.441 0 0 0 0.5 
264 1 1 1.7497 5.19345 1.62586 -20 0 0 28.8669 -14.0294 -3.57916 1176.02 -341.304 450.694 0 0 0 0.5 
357 1 1 1.9066 8.81169 0.865848 -233 -1 1 388.633 -10.5198 -9.92017 -1531.15 461.588 -881.251 0 0 0 0.5 
545 2 2 0.146234 7.33664 1.04979 118 0 -1 222.347 -3.70354 10.1938 567.866 591.58 -995.32 0 0 0 0.5 
615 2 2 1.72712 7.62969 1.64942 160 0 0 282.287 -9.74292 -9.69838 -3326.26 2296.84 -35.8231 0 0 0 0.5 
497 1 1 2.43404 7.13276 1.87211 170 0 1 213.318 14.9948 -9.57704 2711.15 -1123.73 1494.29 0 0 0 0.5 
563 2 2 2.0674 5.7599 0.344838 33 0 1 90.3941 -20.0018 16.9528 -948.913 -2880.66 33.7436 0 0 0 0.5 
817 2 2 0.212163 7.70829 1.87006 43 0 0 293.496 -0.518372 6.33545 3667.78 -2412.71 257.968 0 0 0 0.5 
883 2 2 1.73962 6.53025 0.445555 4 0 0 172.721 6.64954 -6.45948 273.875 1312.32 498.053 0 0 0 0.5 
832 2 2 1.43106 7.86912 0.790287 -1 0 0 291.542 -21.956 -2.80996 139.169 -1552.09 -915.981 0 0 0 0.5 
472 1 1 4.67373 5.80663 0.991745 7 0 1 85.1241 -16.6848 -22.3831 1801.7 -3558.15 -649.173 0 0 0 0.5 
534 2 2 3.89869 6.88465 0.431451 44 0 1 186.804 7.99991 7.06957 -1360.5 1939.89 -1127.91 0 0 0 0.5 
34 1 1 0.929783 6.94753 0.466982 157 0 1 187.594 17.0244 15.5285 -97.3891 607.514 577.917 0 0 0 0.5 
365 1 1 0.0855195 6.85545 0.230224 -191 -1 0 194.297 -18.0569 7.17226 -1258.4 -164.983 -1385.76 0 0 0 0.5 
775 2 2 1.99586 9.2521 0.0937409 -144 -1 0 414.016 0.856613 3.41997 2120.95 292.764 1343.29 0 0 0 0.5 
274 1 1 4.31202 6.4058 0.974381 -196 -1 -1 147.06 -3.3435 -8.83867 -782.731 888.797 1482.13 0 0 0 0.5 
235 1 1 4.33177 7.14754 1.33786 12 0 0 214.683 5.89416 -0.879383 980.537 1320.42 863.8 0 0 0 0.5 
334 1 1 4.51243 7.84234 1.9346 77 0 0 269.944 13.5639 10.487 -156.286 1060.89 -294.285 0 0 0 0.5 
152 1 1 4.785 7.16364 0.45635 45 0 1 200.06 1.8913 10.2139 60.6787 -703.718 440.55 0 0 0 0.5 
897 2 2 3.76179 8.79846 3.7583 50 0 0 360.301 1.98223 -10.5058 235.879 116.5 -266.442 0 0 0 0.5 
238 1 1 3.02466 8.8779 2.7675 -217 -1 0 370.942 15.7027 -3.43215 457.863 2076.28 429.26 0 0 0 0.5 