# vtk DataFile Version 4.2
Generated by LIGGGHTS
ASCII
DATASET POLYDATA
POINTS 1000 float
2.3007 1.74555 1.90981 2.23517 0.0729419 0.546523 0.887609 1.16477 0.281824 
0.884946 0.633533 0.965108 1.02924 1.25113 1.8562 1.97323 1.87788 1.00759 
2.24191 2.97443 1.97986 1.42377 2.28886 0.309543 0.760623 2.95783 1.81896 
1.07361 1.68725 1.10156 3.36799 4.85582 1.19867 4.45594 0.157104 0.458332 
4.49899 3.06886 1.45782 0.213156 2.76205 0.986715 0.492178 2.06072 0.884246 
2.80131 4.95688 0.401801 2.06034 1.30193 0.410924 1.37794 0.473579 1.62323 
2.50707 2.56858 1.49166 2.13709 4.18824 1.6175 1.62456 3.45286 1.13582 
0.315532 0.52799 1.64104 1.47994 2.71107 1.76674 2.54702 3.57199 1.58069 
4.56669 4.27653 1.01241 2.17235 4.01457 0.326237 3.45749 3.84829 0.212007 
3.43818 0.895727 1.20091 4.25788 0.680969 1.379 1.88948 2.71163 0.967423 
0.0260967 1.21848 0.535 2.41482 3.13395 0.281654 3.52984 1.61947 1.86056 
1.23475 3.80539 0.327465 0.798139 4.29264 0.666959 0.20005 4.14915 1.64717 
3.64897 1.46093 0.127448 3.89621 2.98487 0.769325 1.90788 4.78968 0.753694 
0.898283 3.71211 1.32928 2.92988 2.1261 1.08866 2.91678 1.22507 0.700089 
3.39131 3.6121 1.90452 3.03698 3.25546 0.924027 3.79265 4.03147 1.01337 
3.92041 4.53978 1.6833 3.95679 4.79248 0.424728 4.22632 0.862496 0.33647 
4.2728 3.78207 1.8159 4.77279 1.59616 1.09451 4.73106 2.1536 0.13775 
4.80805 3.02554 0.480457 4.85488 2.44499 1.16519 3.05351 4.11529 3.79359 
1.50743 1.55843 3.46238 3.38152 4.63194 3.09749 1.46619 1.52631 2.69885 
1.97481 3.86787 3.9718 0.842751 1.9783 2.9869 0.021856 1.64904 3.10976 
0.720424 1.86134 2.02641 0.537911 0.583052 2.83204 2.54406 1.39093 2.72978 
2.70422 1.00781 3.49305 2.52668 3.77883 2.64961 0.925139 3.17243 3.02542 
3.9049 0.312081 2.36834 0.481242 0.631039 3.74957 0.632202 2.5614 2.60148 
4.31786 0.359796 3.41812 1.45907 0.781983 2.426 1.66359 2.14154 2.11671 
2.52756 0.0230654 3.46975 2.15126 1.52419 3.86263 3.73548 1.90237 2.85904 
3.47604 1.22705 3.90183 3.4645 2.33503 3.62487 1.58626 2.2813 3.84276 
1.56106 3.07754 3.48535 2.49239 2.73488 3.76715 0.746621 1.47786 3.72824 
2.19849 2.86948 2.93373 1.06937 4.2503 2.14535 3.45296 0.698471 2.0859 
1.043 3.56025 3.91569 0.197515 2.77209 3.94485 4.4667 3.02654 3.92274 
3.77117 2.44266 2.21692 0.911781 4.47881 3.92545 4.67921 2.76547 2.33997 
3.44133 3.39719 3.45916 4.15389 1.23633 3.09146 0.449795 4.25337 3.07002 
0.503506 4.94142 3.01287 2.93432 2.98637 2.53759 3.15902 4.40663 2.1788 
3.83316 3.91423 2.80634 3.09091 0.693147 2.86637 2.90995 2.23419 2.91622 
3.82879 3.16538 2.42583 4.48043 3.75544 3.44003 0.658175 3.73753 3.05716 
4.43718 1.79354 2.31638 4.44071 2.18745 3.47284 4.62765 4.9922 2.3695 
4.65116 4.64367 3.83087 4.39849 1.35869 3.99242 0.563121 0.00190194 2.18627 
4.90068 3.95886 2.62755 1.66043 2.71517 5.07471 0.289909 1.60782 5.83166 
3.09304 2.83785 5.93023 4.76786 4.96364 5.36056 1.40094 1.36265 4.43096 
2.6413 0.848779 4.35003 2.18029 3.88415 5.20947 0.790489 2.34973 4.08587 
2.2522 2.64899 5.72536 1.8191 1.73346 5.82838 1.06092 1.87295 5.38369 
1.45305 0.957519 5.24963 1.45128 3.76611 4.74879 1.7124 3.29738 5.86796 
4.3314 4.0971 5.43191 0.19392 1.49544 4.23061 2.54137 0.261407 4.96593 
2.65337 2.93716 4.75334 2.89231 0.985855 5.53937 0.0328493 0.0694863 4.53419 
0.77515 2.86219 4.81919 3.82134 3.92336 4.18886 4.40324 0.949834 5.33737 
0.219123 1.9678 4.98022 0.406135 0.956898 5.23588 2.03178 3.04364 4.28504 
0.463775 0.00577674 5.91623 2.10254 2.14143 4.88175 2.40576 1.52799 4.81079 
1.81854 0.256398 4.86098 0.112529 4.91685 5.59556 3.03016 2.33523 4.3905 
-0.0100125 4.6835 4.4551 2.04145 4.81152 5.09553 1.60779 4.14838 5.85679 
3.30947 4.11477 5.72967 4.128 2.10512 5.11724 3.13861 4.63085 4.59776 
0.819889 3.22838 5.63654 4.00617 2.27193 4.32996 3.39479 0.200433 5.1737 
0.667431 4.2311 5.85036 3.56314 3.21014 4.64959 0.10585 3.60001 4.05445 
2.97984 3.7853 4.86534 4.82719 1.84313 5.51942 2.53683 4.6489 5.7809 
3.31776 2.3829 5.271 -0.0324537 3.33321 5.83691 1.03772 4.35109 4.91818 
4.58168 0.66703 4.36844 3.74128 1.05743 4.78727 4.93409 3.84752 5.03476 
4.19853 0.677107 7.32326 1.74973 0.202483 7.36568 1.10787 0.545195 6.91839 
0.775439 1.29604 6.96802 1.17016 2.12211 7.85841 2.86718 4.2889 6.56616 
1.11801 1.94106 6.29603 4.89885 4.58943 6.62483 4.33677 3.67742 6.07062 
1.36558 1.56311 7.43711 2.60796 3.38254 6.24295 3.29355 4.57015 7.9113 
2.16942 3.74327 7.47595 1.86512 1.08193 7.39073 1.91427 2.32332 6.586 
0.219339 1.72287 6.69622 4.11527 1.80285 7.20911 1.72229 2.44869 7.46405 
2.71819 3.09207 7.12812 0.787095 0.965798 6.11528 0.331785 0.267731 7.69306 
1.78217 0.906397 6.16818 0.880394 2.8252 7.7862 1.59586 3.23088 6.81452 
1.15498 2.45502 6.94865 3.29795 2.15045 7.67688 0.558351 2.51598 6.20528 
3.597 1.01306 7.88308 2.53914 0.250943 7.88839 1.7799 4.14391 6.84197 
2.45993 2.34945 7.50642 1.0014 4.29013 7.23608 0.207561 3.62137 7.67584 
0.70812 3.18687 7.0223 4.46416 2.99307 6.35883 3.44478 3.7687 7.46917 
1.37577 4.70118 6.44089 2.53601 0.727289 6.48387 3.74855 1.71247 6.25145 
2.78415 1.83961 6.03504 4.8448 2.41472 6.06323 4.41322 2.84946 7.20454 
2.31426 4.99142 6.55018 4.42235 3.75991 7.3125 4.60551 4.68245 7.53201 
2.67343 1.20296 7.22115 2.7164 4.96797 7.48072 3.91665 4.18046 6.64542 
4.98727 0.597441 6.03026 2.23211 0.753835 8.43693 4.5003 1.5851 8.77289 
2.56588 0.701931 9.95334 3.38867 4.69816 9.81453 0.591226 0.422219 8.75266 
2.09812 2.09421 9.8528 3.04505 1.2435 8.59288 0.76894 1.29085 8.15105 
4.20766 1.93313 9.35022 1.70011 2.20414 8.38958 1.2133 1.1761 9.07219 
1.69404 1.36395 8.33261 1.75563 4.09028 9.23349 0.025769 0.737076 8.60462 
2.13382 0.25365 9.24615 4.62564 3.12072 9.62974 0.451327 1.95629 8.48259 
1.69567 3.02002 9.74201 2.26969 3.6371 9.24271 2.55267 1.43513 9.45212 
2.36305 3.03713 8.16173 2.30242 3.94719 8.32683 0.125749 1.3346 9.18981 
2.61215 3.13474 9.1873 1.05032 2.58273 8.9304 0.62464 2.31577 9.99141 
1.92033 2.518 9.10328 4.71192 4.88523 8.86183 1.52023 3.1815 8.38197 
3.35863 2.99768 9.84668 1.27968 1.97245 9.42548 4.58201 2.92671 8.64775 
2.46411 4.72474 8.4785 4.29347 0.666984 8.93441 3.37722 3.8832 9.24234 
2.91776 4.51347 9.10683 1.01996 3.82151 8.31617 3.83777 4.87058 9.01853 
0.714122 4.82651 9.93327 4.27535 2.78311 8.04637 4.65534 0.0821966 9.60212 
2.59039 2.14883 8.84432 2.06324 4.6881 9.83462 4.24875 3.94586 9.27001 
3.32162 0.783244 9.41692 3.28257 3.00579 8.86137 3.84112 0.212205 9.67614 
3.89406 2.48077 9.57848 3.8379 3.59337 8.3327 4.0906 4.52502 8.25091 
4.6967 3.81803 8.19913 4.66493 4.62137 9.83469 4.91031 3.6773 8.9912 
2.95056 9.0216 1.36066 2.66991 5.02645 1.71167 3.27686 7.77715 0.700644 
4.14538 6.9532 1.43838 4.14127 7.40226 0.592716 3.17397 6.18992 1.7373 
0.141708 8.92404 1.39226 1.62688 6.64584 0.0815682 0.738032 9.06035 0.465958 
3.87936 8.76147 1.55571 2.64429 9.61651 0.644607 3.36012 7.22732 1.68091 
4.25793 9.72318 1.71601 2.81215 6.82839 0.924413 -0.00280133 6.51788 1.27938 
4.67689 5.67785 1.37728 0.0147426 8.14829 1.00555 0.99034 9.68035 1.20643 
0.247748 9.84077 0.640763 3.98721 6.25309 0.105353 2.40436 7.00412 1.74561 
0.527989 5.04904 1.22387 0.726662 5.79751 0.241468 4.63647 8.52869 1.05624 
2.2988 5.90116 1.39389 2.17014 9.5223 1.39091 1.58138 5.82273 0.344381 
-0.0108357 6.02624 0.62321 1.42788 8.52218 1.49315 1.4964 7.45361 0.129996 
1.81262 7.14399 1.14384 0.696086 6.31924 1.85138 3.83189 9.80342 1.09916 
1.73022 8.54029 0.420069 0.290331 7.20304 1.86106 2.16547 8.15944 1.02781 
0.655461 7.58492 1.03935 2.70952 8.03606 1.61906 3.90587 5.98692 1.48486 
3.16625 5.61758 0.884115 3.25601 9.20214 0.414208 3.54288 6.5036 0.790278 
2.56238 8.09817 0.00580306 4.60558 6.53559 0.755599 4.63561 7.78333 1.65385 
4.60261 9.42318 0.106237 1.26202 5.41766 3.56509 2.11906 9.85207 2.19775 
2.04418 5.07261 3.85924 4.47145 6.06409 2.2249 0.735719 8.71674 2.23549 
3.64332 8.03482 2.72102 3.40822 6.58079 3.37098 0.483317 9.71264 3.28693 
0.109953 6.42672 3.00235 1.82874 6.19208 3.22213 4.58787 8.98941 2.20783 
3.97675 6.77097 2.38873 3.27068 7.14308 2.63703 3.89858 5.24655 2.08113 
2.187 8.61969 3.98994 3.05193 5.26895 3.74774 3.30845 5.32483 2.50464 
2.86661 7.13158 3.53849 0.170076 9.28375 2.18349 4.34885 9.71461 2.67812 
2.8468 8.52428 2.62486 -0.0377489 8.25783 3.75016 4.16019 5.18445 3.3354 
3.61844 5.9016 3.14165 3.46362 9.27517 2.86423 4.33112 6.82485 3.60295 
1.14827 7.51695 3.9683 1.2881 9.87926 2.81733 0.541533 8.17983 2.98882 
1.03663 5.31654 2.1211 0.504902 7.29773 2.75552 0.422544 5.7739 2.89916 
2.4494 7.62824 2.47603 2.42915 6.84446 2.81773 1.97074 7.65004 3.46478 
0.784607 6.45504 3.68105 1.87633 8.37509 2.92275 3.98068 9.40852 3.52717 
2.20797 8.80691 2.03218 2.86181 9.87616 2.83073 2.51373 5.97462 2.35563 
1.65117 6.24789 2.01463 2.47996 5.78917 3.24834 2.24618 7.08386 3.95605 
4.33066 8.06435 3.52011 4.90268 9.3817 3.39372 4.92532 6.78948 2.6682 
0.4498 9.48606 4.85809 2.75425 9.79088 4.18537 2.26353 9.95307 5.88943 
1.24551 5.24949 4.57526 3.08445 7.40088 5.33262 2.97119 7.6348 4.3617 
2.97348 6.3746 5.99153 0.540756 5.52748 4.13169 2.27916 6.89487 5.97408 
3.51515 6.32376 5.22968 3.29185 6.60631 4.29282 4.60029 8.31064 5.42459 
2.49262 5.53184 5.72723 3.25468 8.50884 4.03634 2.57929 6.75928 4.77639 
4.25981 7.36 5.21967 3.83787 8.0656 4.90215 4.37612 5.40779 4.84361 
4.66106 6.89206 5.85323 3.93586 9.02931 4.58724 2.36562 9.30513 4.94827 
1.65734 6.86639 4.68401 4.0112 9.97573 4.56911 1.79643 6.30541 5.3972 
4.21496 7.4944 4.22956 0.963768 6.32381 5.52389 3.34137 5.57086 4.65811 
1.61118 9.01842 5.37639 3.40859 9.59844 4.50355 -0.0608649 6.34027 4.06753 
1.36812 5.02533 5.4989 0.7026 8.23047 4.49259 2.16896 7.81331 4.74574 
1.12058 7.3945 5.65223 2.1292 6.01277 4.12703 2.20889 5.8054 4.99993 
1.55175 8.33014 4.8233 0.430306 7.99535 5.43691 4.60359 8.63784 4.33 
0.420962 6.90752 4.74367 4.90862 5.84724 5.90449 3.81943 5.06869 6.12193 
0.59444 8.70207 7.24147 1.01596 8.79469 6.22685 0.176447 9.69393 6.82493 
1.58945 7.01605 6.48385 4.69048 8.00586 7.5457 2.51943 6.6982 7.54476 
[...]
POINT_DATA 1000
FIELD FieldData 7
id 1 1000 int
309 868 22 19 440 25 530 147 912 
947 741 217 568 130 509 386 443 637 
284 90 735 695 547 39 999 383 214 
556 483 268 711 687 1000 881 427 502 
738 465 742 699 899 372 80 62 549 
126 221 339 23 787 582 361 797 58 
620 196 593 38 182 828 833 267 79 
416 186 816 597 333 533 612 133 288 
647 551 956 783 673 806 65 418 142 
598 472 128 931 700 399 307 927 503 
939 603 481 993 744 213 896 480 542 
894 640 562 207 930 760 917 697 820 
980 510 400 667 871 357 658 454 848 
616 278 674 693 492 86 889 459 565 
875 270 626 608 624 168 24 763 327 
71 782 656 714 5 364 352 949 935 
970 961 445 748 785 666 53 484 40 
575 61 860 798 50 231 923 614 743 
441 491 237 253 277 766 180 369 199 
31 184 685 433 389 155 572 43 84 
992 208 751 225 148 621 606 241 356 
661 112 767 125 586 276 910 532 249 
245 747 737 346 464 264 840 879 415 
945 764 580 156 854 595 954 971 211 
524 402 756 601 132 809 290 219 717 
859 354 645 550 977 373 408 479 863 
644 537 660 287 171 485 665 858 926 
772 115 554 403 305 349 587 672 670 
861 438 865 431 391 1 877 281 107 
298 198 579 997 212 135 681 696 704 
664 946 310 202 713 160 109 370 317 
12 920 323 701 412 451 468 261 141 
404 96 285 627 514 429 847 975 966 
424 723 807 832 857 768 244 618 774 
489 651 855 325 342 841 522 902 434 
176 11 273 707 727 387 442 215 226 
407 206 893 344 197 490 164 799 810 
340 358 811 617 181 942 888 409 449 
518 576 401 299 471 754 26 194 437 
825 85 583 262 63 873 507 817 506 
436 70 625 64 642 289 113 294 788 
570 81 59 92 227 535 54 729 824 
230 996 973 379 914 250 120 246 600 
791 936 334 72 375 836 512 476 421 
519 691 351 749 328 998 122 716 872 
390 866 555 195 331 605 382 757 363 
183 884 99 781 564 308 452 599 359 
776 175 236 834 242 546 223 265 793 
953 531 501 898 297 719 292 32 30 
252 44 508 869 677 734 28 111 69 
362 684 559 462 411 397 494 527 432 
296 682 188 882 419 822 539 77 962 
710 322 758 137 678 615 928 534 209 
972 315 46 867 578 291 837 498 189 
913 426 958 652 376 984 97 163 853 
683 557 880 630 439 9 941 266 360 
316 56 497 78 778 395 842 761 269 
108 581 986 631 329 648 526 689 911 
461 904 726 563 410 724 870 21 91 
263 347 561 254 478 511 712 406 139 
520 428 203 318 850 994 769 566 786 
952 909 477 414 293 702 895 845 228 
919 921 247 251 823 149 35 243 138 
153 232 974 104 629 843 553 957 6 
447 780 654 51 10 619 641 995 216 
844 708 983 49 740 821 905 450 812 
777 248 336 101 609 306 482 185 210 
205 746 470 272 413 901 161 826 938 
803 337 835 258 596 504 804 366 588 
771 540 380 222 964 951 190 312 88 
76 548 102 552 295 792 178 827 282 
487 200 33 989 675 495 374 573 721 
486 314 646 815 280 978 897 862 8 
460 662 759 136 224 639 671 770 220 
47 908 592 311 446 929 201 610 204 
988 95 435 348 422 67 7 611 796 
159 650 987 607 42 378 613 257 338 
536 733 955 969 134 932 430 2 425 
319 981 17 353 544 959 16 940 655 
167 300 283 157 878 577 623 692 722 
541 162 82 165 140 393 350 736 93 
795 98 773 106 891 694 173 590 960 
521 453 569 739 335 405 890 170 874 
423 571 60 728 83 839 235 394 887 
634 73 274 218 529 885 794 420 324 
116 118 925 4 643 886 991 789 567 
814 851 680 279 341 313 152 151 20 
632 856 13 515 916 466 187 633 545 
560 234 45 801 982 455 918 686 129 
29 709 174 385 703 808 802 14 779 
3 191 396 591 41 259 948 659 636 
538 715 883 731 177 944 765 179 831 
114 574 679 657 493 286 110 725 907 
143 365 669 934 367 131 516 543 169 
121 240 458 68 500 444 158 903 604 
963 638 87 800 55 75 154 829 330 
377 238 117 730 469 145 745 838 594 
523 663 698 255 499 473 558 417 398 
900 602 488 830 260 864 892 456 990 
233 784 818 653 915 622 752 649 172 
74 332 813 475 15 124 193 166 589 
985 388 192 968 239 819 720 66 937 
256 371 496 123 304 474 668 525 676 
584 688 467 967 57 852 36 229 585 
933 628 718 705 924 105 732 271 89 
48 119 34 528 762 965 368 943 52 
384 775 876 381 805 392 690 150 127 
706 976 345 343 355 27 906 326 18 
922 753 517 94 846 979 301 750 849 
790 302 146 275 303 505 103 144 463 
755 635 950 513 457 448 100 321 320 
37 
type 1 1000 int
1 2 1 1 1 1 2 1 2 
2 2 1 2 1 2 1 1 2 
1 1 2 2 2 1 2 1 1 
2 1 1 2 2 2 2 1 2 
2 1 2 2 2 1 1 1 2 
1 1 1 1 2 2 1 2 1 
2 1 2 1 1 2 2 1 1 
1 1 2 2 1 2 2 1 1 
2 2 2 2 2 2 1 1 1 
2 1 1 2 2 1 1 2 2 
2 2 1 2 2 1 2 1 2 
2 2 2 1 2 2 2 2 2 
2 2 1 2 2 1 2 1 2 
2 1 2 2 1 1 2 1 2 
2 1 2 2 2 1 1 2 1 
1 2 2 2 1 1 1 2 2 
2 2 1 2 2 2 1 1 1 
2 1 2 2 1 1 2 2 2 
1 1 1 1 1 2 1 1 1 
1 1 2 1 1 1 2 1 1 
2 1 2 1 1 2 2 1 1 
2 1 2 1 2 1 2 2 1 
1 2 2 1 1 1 2 2 1 
2 2 2 1 2 2 2 2 1 
2 1 2 2 1 2 1 1 2 
2 1 2 2 2 1 1 1 2 
2 2 2 1 1 1 2 2 2 
2 1 2 1 1 1 2 2 2 
2 1 2 1 1 1 2 1 1 
1 1 2 2 1 1 2 2 2 
2 2 1 1 2 1 1 1 1 
1 2 1 2 1 1 1 1 1 
1 1 1 2 2 1 2 2 2 
1 2 2 2 2 2 1 2 2 
1 2 2 1 1 2 2 2 1 
1 1 1 2 2 1 1 1 1 
1 1 2 1 1 1 1 2 2 
1 1 2 2 1 2 2 1 1 
2 2 1 1 1 2 1 1 1 
2 1 2 1 1 2 2 2 2 
1 1 2 1 2 1 1 1 2 
2 1 1 1 1 2 1 2 2 
1 2 2 1 2 1 1 1 2 
2 2 1 1 1 2 2 1 1 
2 2 1 2 1 2 1 2 2 
1 2 2 1 1 2 1 2 1 
1 2 1 2 2 1 1 2 1 
2 1 1 2 1 2 1 1 2 
2 2 2 2 1 2 1 1 1 
1 1 2 2 2 2 1 1 1 
1 2 2 1 1 1 1 2 1 
1 2 1 2 1 2 2 1 2 
2 1 2 1 2 2 2 2 1 
2 1 1 2 2 1 2 1 1 
2 1 2 2 1 2 1 1 2 
2 2 2 2 1 1 2 1 1 
1 1 1 1 2 1 2 2 1 
1 2 2 2 1 2 2 2 2 
1 2 2 2 1 2 2 1 1 
1 1 2 1 1 2 2 1 1 
2 1 1 1 2 2 2 2 2 
2 2 1 1 1 2 2 2 1 
2 2 1 1 2 1 1 1 1 
1 1 2 1 2 2 2 2 1 
1 2 2 1 1 2 2 2 1 
2 2 2 1 2 2 2 1 2 
2 1 1 1 2 1 1 1 1 
1 2 1 1 1 2 1 2 2 
2 1 2 1 2 2 2 1 2 
2 2 1 1 2 2 1 1 1 
1 2 1 2 1 2 1 2 1 
1 1 1 2 2 1 1 2 2 
1 1 2 2 1 2 2 2 1 
1 2 2 1 1 2 2 2 1 
1 2 2 1 1 2 1 2 1 
2 1 1 1 1 1 1 2 2 
1 2 2 2 1 1 2 1 1 
2 2 2 2 1 2 1 1 1 
1 2 1 1 2 2 1 2 2 
1 1 1 1 2 2 2 2 2 
2 1 1 1 1 1 1 2 1 
2 1 2 1 2 2 1 2 2 
2 1 2 2 1 1 2 1 2 
1 2 1 2 1 2 1 1 2 
2 1 1 1 2 2 2 1 1 
1 1 2 1 2 2 2 2 2 
2 2 2 1 1 1 1 1 1 
2 2 1 2 2 1 1 2 2 
2 1 1 2 2 1 2 2 1 
1 2 1 1 2 2 2 1 2 
1 1 1 2 1 1 2 2 2 
2 2 2 2 1 2 2 1 2 
1 2 2 2 1 1 1 2 2 
1 1 2 2 1 1 2 2 1 
1 1 1 1 1 1 1 2 2 
2 2 1 2 1 1 1 2 1 
1 1 1 2 1 1 2 2 2 
2 2 2 1 1 1 2 1 1 
2 2 1 2 1 2 2 1 2 
1 2 2 2 2 2 2 2 1 
1 1 2 1 1 1 1 1 2 
2 1 1 2 1 2 2 1 2 
1 1 1 1 1 1 2 2 2 
2 2 1 2 1 2 1 1 2 
2 2 2 2 2 1 2 1 1 
1 1 1 2 2 2 1 2 1 
1 2 2 1 2 1 2 1 1 
2 2 1 1 1 1 2 1 1 
2 2 2 1 2 2 1 2 2 
2 1 1 1 1 2 1 1 1 
2 2 2 2 1 1 1 1 1 
1 
i 3 1000 int
132 1 0 -118 0 2 208 1 0 
-164 0 0 -41 0 0 -165 0 0 
-89 0 2 -144 0 0 0 0 0 
-28 0 1 -123 0 0 -101 0 0 
-92 0 0 -79 0 0 -136 0 0 
113 0 0 176 1 0 -157 0 2 
-121 0 0 47 0 0 49 0 0 
137 1 0 49 0 0 -117 0 0 
-48 0 0 -95 0 1 -30 0 0 
173 1 -1 219 1 0 35 0 0 
186 1 0 219 1 1 -127 0 0 
-17 0 0 -32 0 0 -155 0 1 
261 1 1 -41 0 1 2 0 -1 
22 0 -1 -171 0 0 -176 0 1 
-67 0 1 -57 0 0 -164 0 0 
267 1 -1 100 0 1 -90 0 1 
-151 0 1 -89 0 1 -23 0 0 
-74 0 0 241 1 0 38 0 -1 
-47 0 0 309 1 0 -4 0 1 
-76 0 1 30 0 -1 -80 0 1 
-40 0 0 -194 0 0 -136 0 1 
-123 0 0 247 1 0 -23 0 0 
-162 0 1 -57 0 0 350 1 0 
-62 0 1 186 1 1 -62 0 -1 
-124 0 0 69 1 0 -121 0 1 
-108 0 1 198 1 -1 -114 0 0 
-92 0 0 -163 0 1 -112 0 -1 
-101 0 1 12 0 1 102 1 1 
21 0 0 178 1 1 -136 0 -1 
281 1 -1 3 0 0 64 1 0 
-60 0 0 253 1 0 55 0 -1 
34 0 1 233 1 0 341 1 1 
-24 0 -1 -139 0 2 -243 0 1 
7 0 0 -143 0 0 119 0 1 
239 1 1 -70 0 0 -59 0 1 
37 0 0 -51 0 -1 -188 0 0 
226 1 2 -72 0 -1 -153 0 0 
-61 0 0 -10 0 0 -283 0 1 
-90 0 0 281 1 0 -244 0 1 
-61 0 0 261 1 -1 -73 0 0 
95 1 -1 -158 0 0 -43 0 1 
1 0 0 -6 0 0 -144 0 0 
-69 0 1 -132 0 1 -86 0 -1 
-58 0 0 6 0 -1 118 1 0 
239 1 -1 141 1 1 -70 0 0 
124 1 0 58 0 -1 -127 0 1 
503 2 0 21 0 -1 -73 0 0 
-105 0 0 97 0 1 -83 0 0 
211 0 -1 -35 0 0 -51 0 0 
284 1 -1 347 1 1 -17 0 0 
79 0 0 22 0 0 -50 0 0 
218 1 -1 -160 0 0 -35 0 1 
-190 0 0 35 0 0 -41 0 1 
196 1 0 191 1 0 -74 0 0 
23 0 0 130 1 -1 -153 0 0 
-230 0 0 -161 0 0 -73 0 0 
-20 0 0 -26 0 0 -238 0 -1 
216 1 0 54 0 0 34 0 1 
288 1 -1 -118 0 -1 27 0 0 
-111 0 0 -166 0 0 99 0 0 
-146 0 0 -58 0 1 219 1 1 
-155 0 0 -46 0 0 -2 0 0 
-159 0 -2 373 1 1 17 0 0 
-98 0 -1 41 1 0 -112 0 0 
-364 -1 0 327 1 0 -295 -1 0 
-65 0 1 53 0 0 -97 0 1 
-24 0 0 -223 0 0 -94 0 0 
293 1 0 10 0 0 -25 0 -1 
-6 0 0 170 0 1 -8 0 -1 
124 1 -1 -47 0 0 258 1 -1 
94 1 0 50 1 -1 161 1 0 
240 1 -1 45 0 0 221 1 0 
-109 0 1 -240 0 0 -142 0 1 
156 1 0 28 0 0 235 1 -1 
235 1 0 21 0 -1 -128 0 0 
-262 0 1 -80 0 0 177 1 -1 
47 0 0 192 1 -1 -181 0 -1 
-48 0 -1 83 0 0 -80 0 0 
393 1 0 181 1 0 -34 0 0 
243 1 0 -14 0 -1 -130 0 1 
193 1 0 -5 0 -1 226 1 0 
-57 0 1 197 1 -1 -292 -1 -1 
-9 0 -1 64 0 -1 82 0 0 
-10 0 0 -23 0 -1 -138 0 0 
-83 0 0 13 0 -1 -129 0 -1 
-156 0 -1 -16 0 -1 -237 0 -1 
261 1 0 -13 0 -1 -302 -1 1 
-164 0 -1 -13 0 0 -65 0 -1 
72 0 1 212 0 0 20 0 0 
39 0 1 53 0 0 138 0 -1 
145 0 0 111 0 0 130 0 1 
135 0 0 -240 -1 1 102 0 0 
97 0 1 -6 0 0 -2 0 1 
-97 0 0 -241 -1 1 -315 -1 0 
139 0 0 -298 -1 1 56 0 1 
5 0 1 9 0 0 -142 -1 1 
26 0 1 -132 -1 0 52 0 -1 
8 0 0 -135 -1 0 21 0 1 
40 0 0 280 1 1 -102 -1 1 
0 0 1 119 0 0 -153 -1 1 
26 0 0 -67 -1 0 -140 0 -1 
-413 -1 0 -149 -1 2 -255 -1 1 
115 0 -1 31 0 0 -294 -1 0 
167 0 -1 -4 0 1 101 0 0 
-1 0 1 345 1 1 -162 -1 0 
89 0 1 -24 0 0 -232 -1 2 
-411 -1 0 9 0 1 -258 -1 0 
33 0 0 92 0 0 -237 -1 1 
61 0 0 -48 0 1 16 0 0 
87 0 0 160 0 0 -256 -1 0 
104 0 -1 165 0 0 31 0 1 
19 0 0 -100 -1 0 84 0 0 
115 0 1 167 0 0 82 0 0 
462 1 1 438 1 1 44 0 0 
-276 -1 0 130 0 0 74 0 0 
26 0 0 107 0 1 -150 -1 0 
182 0 0 -314 -1 0 -82 0 0 
154 0 -1 101 0 1 -188 -1 1 
-228 -1 0 131 0 0 -242 -1 0 
-226 -1 0 82 0 0 -131 -1 0 
71 0 0 110 0 0 -27 0 0 
44 0 -1 -320 -1 0 -308 -1 -1 
41 0 -1 104 0 0 133 0 0 
-324 -1 1 91 0 1 109 0 -1 
103 0 0 -186 -1 1 144 0 0 
93 0 0 220 0 1 39 0 0 
123 0 0 -137 -1 0 5 0 0 
-233 -1 0 58 0 0 -49 0 1 
-196 -1 0 235 0 0 -25 0 1 
47 0 -1 55 0 0 111 0 0 
200 0 0 261 1 -1 141 0 -1 
93 0 -1 -177 -1 1 237 0 -1 
-215 -1 -1 277 1 0 1 0 1 
-264 -1 0 42 0 -1 -92 0 0 
145 0 0 -21 0 -1 10 0 0 
175 0 -1 54 0 -1 -33 0 -1 
-294 -1 1 -13 0 -1 50 0 0 
-304 -1 -2 96 0 0 103 0 -1 
154 0 -2 105 0 0 -243 -1 -1 
203 0 0 38 0 0 -122 -1 1 
25 0 0 122 0 -1 10 0 0 
-200 -1 0 54 0 -1 -238 -1 0 
70 0 0 -378 -1 0 47 0 0 
35 0 -1 -51 0 0 178 0 -1 
100 0 -1 -61 0 0 257 1 0 
-29 0 0 134 0 -1 187 0 0 
-403 -1 -1 227 0 -1 50 0 0 
242 1 0 108 0 -1 -363 -1 0 
28 0 0 45 0 0 -52 0 0 
94 0 -1 167 0 -1 -176 -1 0 
86 0 0 94 0 0 -203 -1 0 
155 0 -1 4 0 -1 113 0 -1 
58 0 -1 1 0 -1 71 0 0 
85 0 -2 53 0 -1 25 0 0 
0 0 0 141 0 -1 -165 -1 0 
-104 0 0 181 0 0 -196 -1 -1 
100 0 -1 179 0 -1 19 0 -1 
-240 -1 -1 65 0 -1 182 0 -1 
39 0 -1 56 0 0 -332 -1 -1 
23 0 -1 66 0 0 101 0 0 
70 0 0 139 0 -1 -169 -1 0 
-287 -1 -1 232 0 0 250 1 0 
-49 0 0 176 1 -1 241 1 2 
-62 0 1 -229 0 0 243 1 1 
69 1 0 238 1 1 221 1 0 
114 1 0 223 1 0 -7 0 1 
134 1 1 -104 0 0 351 1 0 
-69 0 0 -323 -1 0 -297 -1 1 
-169 0 0 -68 0 0 179 0 1 
-40 0 1 -170 0 1 167 1 0 
-153 0 1 -180 0 1 -201 0 0 
-203 0 1 -35 0 1 57 0 1 
35 0 0 -155 0 1 265 1 1 
-154 0 1 -166 0 1 -318 -1 -1 
360 1 0 219 1 0 190 1 0 
42 0 1 -78 0 0 -255 0 0 
-4 0 1 -109 0 1 -28 0 0 
-126 0 1 -29 0 -1 105 1 0 
-26 0 0 -33 0 1 -26 0 0 
152 1 0 -73 0 1 -65 0 0 
66 0 1 -106 0 1 -205 0 0 
-103 0 1 85 0 1 82 0 0 
-70 0 1 324 1 1 -186 0 1 
-28 0 0 -132 0 1 125 0 0 
188 1 0 -161 0 1 265 1 0 
-117 0 0 -43 0 0 -134 0 1 
-237 -1 0 -84 0 1 -194 0 0 
-93 0 0 271 1 -1 -17 0 0 
-148 0 1 -60 0 0 -61 0 1 
15 0 0 -112 0 1 443 1 0 
-9 0 0 -192 0 -1 -43 0 1 
-340 -1 1 22 0 0 25 0 -1 
54 0 1 -187 0 0 -98 0 1 
-37 0 1 -192 0 1 -106 0 1 
-29 0 0 -155 0 1 -133 0 1 
225 1 0 -184 0 1 -28 0 -1 
33 1 0 -103 0 0 255 1 0 
-84 0 0 203 1 0 2 0 1 
-218 0 -1 -289 0 0 88 0 0 
-115 0 0 -54 0 0 83 0 -1 
133 1 0 -24 0 0 207 1 0 
-56 1 -1 -70 0 -1 153 1 -1 
-229 0 -1 -68 0 0 -178 0 0 
-11 0 1 345 1 0 -6 0 -1 
291 1 0 201 1 0 -63 0 1 
-155 0 1 -127 0 0 67 0 0 
-192 0 -1 -2 0 1 113 1 1 
-193 0 0 -343 -1 0 -43 0 1 
325 1 0 73 0 -1 -55 0 0 
-56 0 1 -2 0 1 60 0 0 
108 0 1 -165 0 1 -39 0 -1 
70 0 -1 179 1 -1 306 1 0 
110 1 0 -66 0 0 289 1 0 
-142 0 -1 -154 0 0 306 1 0 
41 0 0 -91 0 -1 -103 0 1 
-34 0 0 -147 0 0 263 1 0 
283 1 1 -118 0 0 -70 0 0 
194 1 -1 -168 0 0 19 0 -1 
107 1 0 -53 0 0 119 1 1 
-32 0 0 -148 0 1 -97 0 -1 
-12 0 -1 -193 0 0 136 1 0 
-36 0 0 -72 0 0 370 1 0 
-167 0 -1 -94 0 1 -44 0 0 
-40 0 0 -54 0 0 -32 0 1 
-90 0 0 45 0 -1 -146 0 1 
3 0 0 -47 0 0 60 0 -1 
-40 0 0 -344 -1 -2 328 1 1 
-97 0 0 -55 0 0 26 0 -1 
295 1 -1 -56 0 0 249 1 0 
72 0 0 -106 0 0 -203 0 0 
-68 0 0 -74 0 0 170 1 0 
-224 0 0 91 0 -1 2 0 1 
162 1 0 -187 0 -1 -103 0 0 
-41 0 0 -78 0 0 -194 0 0 
60 1 -1 149 1 -1 -147 0 -1 
185 1 0 -28 0 0 216 1 0 
-155 0 0 -38 0 -2 -276 0 0 
228 1 -1 161 1 -1 -183 0 0 
-85 0 0 157 0 0 248 1 -1 
-58 0 0 202 1 -1 -152 0 -1 
260 1 -1 238 1 -1 22 0 -1 
12 0 -1 161 1 0 177 1 -1 
253 1 -1 -291 0 1 199 1 -1 
-104 0 -1 -66 0 -1 -148 0 -1 
-81 0 -1 9 0 -1 -253 0 0 
233 1 0 -36 0 -1 231 1 0 
-122 0 0 78 0 0 263 0 0 
45 0 0 -155 -1 1 18 0 0 
-83 -1 -1 168 0 0 146 0 0 
-315 -1 1 64 0 1 54 0 1 
38 0 1 182 0 0 -10 0 1 
49 0 0 254 1 -1 202 0 0 
110 0 -1 -48 -1 0 -284 -1 -1 
8 0 0 -22 0 1 69 0 0 
-27 -1 0 -62 -1 1 151 0 0 
75 0 1 198 0 1 167 0 0 
-210 -1 0 51 0 2 397 1 0 
77 0 0 -73 0 0 57 0 1 
-282 -1 2 -165 0 0 -216 -1 0 
511 1 0 19 0 0 -225 -1 -1 
80 0 1 4 0 0 -251 -1 0 
43 0 0 -231 -1 1 24 0 0 
-284 -1 -1 -165 -1 0 147 0 0 
-42 0 1 -224 -1 1 140 0 -1 
68 0 0 -51 0 0 138 0 1 
-316 -1 -1 101 0 -1 46 0 0 
-144 -1 0 89 0 -1 -280 -1 0 
142 0 0 177 0 0 106 0 -1 
-307 -1 0 -211 -1 0 63 -1 0 
95 0 1 59 0 1 12 0 0 
55 0 0 192 0 0 7 0 1 
-365 -1 1 -175 0 0 -201 -1 -1 
265 0 0 -172 -1 0 -213 -1 1 
239 0 1 195 0 0 20 0 0 
378 1 0 52 0 1 -88 0 1 
323 1 0 125 0 0 72 0 0 
-306 -1 -1 43 0 1 7 0 0 
122 0 0 238 0 0 106 0 1 
-142 -1 1 -14 0 -1 -182 -1 0 
122 0 0 -277 -1 -1 -346 -1 0 
82 0 -1 170 0 -1 143 0 0 
-112 0 1 -211 -1 1 271 0 0 
290 0 -1 -249 -1 1 44 0 0 
146 0 0 83 0 0 104 0 1 
-127 -1 1 -22 0 -1 137 0 1 
126 0 0 111 0 -1 23 0 0 
406 1 0 179 0 0 316 1 1 
-18 -1 0 -115 -1 0 83 0 -1 
-346 -1 1 -286 -1 0 -219 -1 0 
-253 -1 -1 172 0 0 176 0 0 
-98 -1 1 17 0 1 -197 -1 1 
-180 -1 1 121 0 0 111 0 -1 
-219 -1 1 102 0 0 75 0 0 
88 0 0 146 0 0 135 0 -1 
-228 -1 0 158 0 0 -118 0 1 
384 1 -1 -167 -1 0 -17 0 1 
54 0 -1 -126 -1 0 21 0 0 
-155 -1 0 -44 0 1 167 0 0 
373 1 0 73 0 0 65 0 0 
42 0 -2 74 0 0 -212 -1 0 
-46 -1 0 -139 0 0 249 0 0 
84 0 0 -189 -1 2 155 0 0 
232 0 -1 100 0 -1 120 0 0 
116 0 0 -234 -1 0 47 0 0 
270 0 0 -324 -1 0 -60 0 0 
48 0 -1 -139 -1 0 -134 -1 0 
37 0 0 -23 0 0 89 0 -1 
-6 0 -1 -241 -1 0 78 0 0 
40 0 0 -315 -1 -1 128 0 -1 
-152 -1 0 -90 -1 1 403 1 0 
202 0 -1 171 0 0 -268 -1 0 
-280 -1 -1 -188 -1 0 -183 -1 0 
-10 0 0 42 0 1 -245 -1 0 
-193 -1 0 -55 0 0 187 0 0 
-348 -1 1 -29 0 0 -196 -1 0 
90 0 -1 17 0 0 181 0 0 
110 0 -1 -169 -1 0 97 0 -1 
78 0 -1 -210 -1 0 202 0 0 
-9 0 -1 -205 -1 -1 -129 -1 0 
68 0 0 -168 -1 -1 -9 0 -1 
174 0 -1 141 0 -1 -213 -1 0 
69 0 0 66 0 -1 239 0 0 
-139 -1 0 173 0 0 -198 -1 0 
128 0 0 23 0 0 -43 0 0 
21 0 0 70 0 0 18 0 0 
1 0 0 -38 0 0 111 0 0 
76 0 -1 -185 -1 0 43 0 0 
-261 -1 0 138 0 -1 -2 0 0 
-205 -1 -1 182 0 0 -240 -1 0 
43 0 0 29 0 -1 193 0 0 
-37 0 -1 -381 -1 0 35 0 -2 
-77 0 -1 69 0 -1 52 0 0 
1 0 -1 -23 0 -1 41 0 0 
-359 -1 -1 
v 3 1000 double
-315.88474938 -11.437248216 -5.5664792877 -466.85345999 -7.3638889172 30.258526472 -393.22112627 19.372135579 -42.15796358 
-458.66514346 -1.858838539 -21.203550979 -365.40707069 -15.791473165 -2.2051302318 -312.91324223 -8.1714185494 6.926349112 
-216.33380929 7.7176603005 44.371054932 -317.32404563 3.3674204443 8.3557993847 -189.74610609 -0.21572149278 -3.5178661984 
-317.58298383 -9.2690704333 -13.03266802 6.732071496 -0.91372667056 -7.9186793716 -474.2352928 -6.9157033768 -0.51733516982 
-176.8822535 -12.606602305 0.48331522288 -244.09448762 33.919835348 11.042136041 -323.3910166 -5.4014257589 15.480226901 
-35.255275936 10.481650119 6.9894742415 -374.29913927 -21.390127994 0.14347091985 -452.22373324 -8.1825599458 0.81617309353 
-238.03347755 2.2328825809 10.751386965 -110.20069362 31.227005044 3.8264589918 -114.61352884 17.272828017 6.9993259449 
-456.04863534 -0.34640705082 6.6580320724 -195.39427765 5.5048444086 -3.282008067 -121.64852363 2.3192729917 -1.7211790492 
-111.95641806 29.457541322 19.395167562 -113.86517579 4.9134910768 17.213793508 -143.19406093 2.425896029 10.311214291 
-390.65205082 -12.902539611 -18.543814189 -387.88577265 -7.6980631848 5.5181502575 -194.81920339 -0.96140110082 -17.089423217 
-384.64583881 -9.4177176495 28.277049328 -157.2978985 -14.163807105 -5.3581221283 -348.83014473 4.0389635887 -19.709654096 
-110.47097463 -17.720380905 -16.119805456 -26.195805094 -9.7039825981 11.057623586 -99.416214757 7.2835813165 -10.619443099 
-382.34936889 18.124371936 -3.2853237595 -169.16202473 -6.9971503696 -4.6379801007 -29.962804125 9.1661657803 20.104618392 
-110.17837751 5.1626066168 -10.162162073 -298.5454314 4.1988953266 -13.663955414 -375.34792829 0.93886958277 8.1128181734 
-119.06828478 -13.186805829 -8.4253101573 -161.28406001 0.56733761623 13.48972102 -111.08663804 -24.694150543 -2.7549784529 
-28.33844466 3.0203670189 3.1220556878 -49.912647905 21.29610454 26.465298099 -411.78169839 -1.6041675008 -2.2317319012 
-99.968953148 3.180494807 22.767522353 -350.32260705 -5.5998328508 -5.0440892202 -284.56054695 -13.272745675 7.4969507263 
-213.63582919 5.7915476386 0.10224894036 -258.16418088 -9.6332425729 8.8662085375 -65.59875614 -6.339000731 13.034097918 
-305.61338827 -11.746730505 3.1056242644 -1.2046903572 0.69122069454 -2.983220807 -313.85821888 2.5781914926 -3.6596755043 
-112.89247699 25.594596077 -22.991490411 -301.02141279 11.422665116 12.476033026 -307.13406571 -29.578175659 4.6327721286 
-268.82610151 0.097983472679 -14.180545065 -429.28423496 6.6709547699 15.280365878 -334.27099641 -8.3879523552 -7.8514669727 
-357.39124953 -18.896204038 17.823123007 -121.65336635 10.747285375 8.9616265078 -154.61077338 -16.121395033 -6.3451156119 
-474.81925344 -1.912096878 31.500809801 -468.19445266 -3.3269810379 22.889871417 -230.57897966 -0.62068814851 -4.0489074425 
-439.73744256 -8.6700216038 -8.3327158294 -395.08206735 -25.375704804 29.943527062 -260.54055935 -2.1042617071 15.939458353 
-475.16676849 -10.699413153 -11.774041393 -315.84052919 16.756893817 31.609497558 -306.5836257 -10.048465255 11.624376304 
-355.4224541 4.4796660059 5.3167455799 -265.18751804 9.9663107269 16.561458415 -210.34126848 -2.7232277928 23.768873433 
-158.74523672 4.6159869449 12.709959625 -198.26736223 -7.1429349379 -5.1328698425 -321.20062039 -7.6829778878 -17.240847815 
-196.54901804 -13.351884196 -3.1422615037 -68.865394439 10.132068172 -23.395270201 -422.29478165 9.2052655346 -29.666588685 
-130.3024438 -6.7240311009 6.3438419551 -209.04959731 -2.1501690969 -17.999360043 -168.62197683 -16.507340786 7.170811228 
-253.26719912 -9.0076839991 -14.886121105 -57.025328901 15.746193346 -2.1769110427 -245.52686398 6.3178098664 17.021314376 
-64.345045005 -47.65138307 -3.5360562092 -338.8266853 -27.449285776 -4.8455964189 -92.892523012 9.1033787666 -0.45231422086 
-8.0709765844 23.512070992 7.7326179898 -174.51415412 7.8773657094 -2.7314314094 -32.432602636 -2.9541583902 6.4768048598 
-98.70885529 15.227598456 1.7350333622 -374.36207441 -9.0556547413 -1.8304786474 -261.20937745 -16.092046098 15.466569365 
-164.96235172 3.8877492787 25.031825715 -101.61696555 -7.4928739869 -5.9130121196 -124.28585238 -5.7900886316 -10.149400331 
-342.43213058 2.2138343945 -0.11966380522 -278.11870485 3.2375971704 -14.069840656 6.7310367803 9.5022228516 -27.13565355 
-30.155654777 2.2775307339 5.4291462116 -365.7676413 27.344486694 -15.792014108 -499.20652047 6.9642411386 -6.7894931843 
-84.405655753 -13.223559626 4.3559169421 -219.41459586 8.2861837709 -11.589041544 -259.93919467 -10.638266881 12.568037385 
-220.32887302 17.126380291 21.815187894 44.385142945 -10.624996126 27.320116721 -341.58131379 0.5603945529 2.1750736768 
-348.92475485 -21.557093345 9.3063664055 -88.914552292 -3.3885337708 11.363538046 -213.8580017 -20.229701631 4.9097701496 
-221.29861536 -13.082957135 7.3555728055 -297.35864856 4.1223629111 -3.3487014489 -272.45644326 5.2500314316 -20.958595278 
-404.42870842 -1.4768499003 7.8216250668 -95.530822521 -34.719182251 -4.6977835646 -145.81625042 -10.946902461 -1.7995311688 