# vtk DataFile Version 4.2
Generated by LIGGGHTS
ASCII
DATASET POLYDATA
POINTS 1000 float
2.21914 0.233763 0.965708 1.88129 0.745238 0.355676 1.38402 0.496722 1.15314 
1.68975 3.24329 1.14949 2.2309 1.37691 1.62817 3.5922 3.97957 1.17993 
0.495271 0.524377 0.692113 2.10543 4.05199 1.59587 1.31145 2.17068 1.26913 
1.29535 2.79843 1.78997 0.929959 2.7541 0.5497 4.36818 3.89649 0.665922 
3.64725 0.6755 1.52799 4.20835 4.93969 1.06442 0.592833 0.398319 1.64613 
4.90621 2.35995 0.379733 4.00177 0.239846 0.228391 2.41803 3.54439 0.676146 
1.02386 1.73404 0.520032 2.34118 2.04108 1.01394 4.84243 3.21256 0.531576 
4.50516 1.34985 0.145191 0.280256 1.21406 0.294938 0.751596 1.21208 1.62596 
4.52912 0.761379 0.949886 1.47494 1.30284 1.05634 0.623642 1.88971 1.9811 
3.8731 3.01465 0.350682 0.10555 2.93421 0.324598 1.4551 4.03917 0.831833 
2.15275 4.8498 1.87117 0.935341 4.51625 0.527152 3.27688 3.04266 1.36604 
-0.00808583 4.79638 0.69778 3.20436 1.83481 0.269231 3.12754 1.42081 1.98 
4.19737 3.18451 1.29275 3.82168 1.58374 1.5787 4.31983 2.36417 0.789506 
4.30925 0.286902 1.83591 3.74482 1.32562 0.566925 0.51346 3.59987 1.06501 
3.098 4.46113 0.749241 3.88394 2.39113 1.83531 2.77104 3.61231 1.75917 
1.00034 4.51941 1.48389 2.51579 4.48839 0.0284034 2.94519 2.66468 0.350644 
2.97458 1.31361 1.05788 3.28308 3.7063 0.186211 3.39518 2.26712 1.03055 
3.42161 4.88029 1.59307 4.86017 1.45115 1.91806 4.91846 4.76765 0.498815 
2.01838 3.09136 3.05261 1.44132 3.5282 3.60005 0.994156 2.44005 2.81509 
1.1518 1.46236 2.98367 0.810592 1.115 3.92013 1.69413 1.52129 2.20608 
0.325473 1.39646 3.17738 1.73277 0.653851 2.1168 2.87137 0.556031 3.51983 
1.66756 3.28945 2.38984 0.750658 2.23466 3.59389 2.11702 4.04306 2.78099 
0.702629 2.92436 2.20779 1.85484 1.33794 3.5575 1.38251 2.15052 2.32406 
3.67167 4.49321 3.19771 0.927529 0.578808 2.58431 4.23886 1.32004 2.57903 
4.66639 4.75782 2.7229 4.27612 2.75124 2.8157 4.55052 1.43117 3.53218 
0.539468 2.9309 3.6191 3.3639 2.8063 2.39278 0.0679213 0.570707 2.37877 
2.03231 0.599312 3.02629 2.39096 4.94604 2.86119 4.52276 2.80997 3.65574 
1.45086 4.77808 2.90863 3.01631 1.88975 2.62516 0.106247 4.51332 2.15685 
0.599423 3.35787 2.90617 2.48356 0.320311 2.1573 0.206892 4.56944 3.43054 
3.89746 1.89142 3.44424 3.82713 1.89551 2.64505 4.6584 0.679955 3.74174 
2.88645 2.95377 3.13974 1.22365 4.49663 3.88032 1.33089 3.86141 2.01842 
2.99806 2.0551 3.48959 3.57812 1.27072 3.8855 0.591721 3.94219 2.2812 
4.52445 0.719878 2.79696 0.654296 4.05672 3.25453 4.83657 2.24765 3.9816 
1.36547 3.08142 4.59282 2.13619 1.90714 5.68473 1.39249 3.64346 5.72336 
4.45909 4.65589 5.36669 1.9875 3.94984 4.50502 4.05272 3.45423 4.21994 
4.02429 1.11039 4.90846 0.362277 1.05973 4.94503 0.944934 2.29582 5.33561 
0.00351853 2.16743 4.72608 1.89341 2.63838 4.1492 2.6576 1.26761 5.74855 
4.53156 4.95682 4.00439 0.49433 2.77821 5.98619 2.07135 0.688495 4.15766 
1.67153 4.97519 5.66082 0.512587 3.0944 5.0301 2.30445 1.64966 4.76094 
3.81814 2.90239 4.89499 0.557729 0.40805 5.5035 2.00087 3.17493 5.26838 
1.39219 0.755311 5.37196 0.575922 1.82228 4.42235 3.48574 2.1015 4.25798 
2.40064 4.38385 5.29749 3.41542 2.85368 5.74214 4.71269 3.00511 5.18156 
4.2679 4.23441 4.47228 1.14241 4.11337 5.094 0.150102 4.93652 4.67125 
3.23575 1.32144 4.72975 4.23641 2.51101 4.48422 2.66908 0.542718 4.77653 
0.099567 3.89488 4.16932 3.63058 0.584394 4.10155 3.26751 2.08639 5.2001 
2.23214 2.71289 5.98846 1.79994 4.81461 4.61374 4.69983 3.91106 5.09102 
2.69517 0.296039 5.61878 3.97233 1.10676 5.93342 3.41075 3.73805 5.6643 
4.28153 2.01359 5.26584 0.908341 3.65658 4.31246 0.815927 4.97432 5.56264 
4.92736 0.99198 5.80096 4.9194 2.60557 5.83543 4.26005 3.81872 6.01715 
2.59863 0.325722 6.7718 0.384294 2.86568 7.81835 2.0551 3.54411 6.14745 
4.47223 2.8242 7.63774 1.00684 2.59013 6.86455 3.85935 4.41735 6.42096 
1.66862 1.08697 6.15085 1.36521 1.92309 7.01505 1.35473 1.8671 6.09716 
1.88317 0.0143678 6.06847 2.3887 3.13164 6.81924 4.22374 4.67786 7.20162 
2.15546 4.54309 7.11381 2.11165 0.818307 6.79832 3.31444 1.8657 7.91881 
1.51491 1.59424 7.72513 1.90751 2.99869 7.62739 1.0589 0.829023 7.12416 
2.27432 4.62039 6.1587 0.303467 0.126844 6.44082 0.380502 1.31612 7.53013 
3.00249 4.31582 6.2484 1.72257 3.48368 6.96143 1.00548 2.29383 7.82935 
2.12952 1.74256 6.80947 1.85407 0.137741 7.60403 2.72603 3.99919 7.26708 
1.43077 3.77099 7.54613 0.0832912 2.6122 6.89101 2.73272 2.71318 7.37267 
3.47062 0.568184 6.75872 0.492234 4.4707 6.31581 3.48849 3.70919 7.66105 
3.96523 0.571367 7.56684 4.91646 0.191643 6.33908 3.57182 2.73179 7.55134 
3.9123 2.24278 6.09984 3.15693 0.0976906 7.93936 1.08709 4.61734 7.24817 
3.35046 1.64368 6.72261 0.683317 3.6248 6.316 1.45466 4.38667 6.43387 
2.79846 2.30734 6.52329 4.52246 1.6636 7.84681 4.83905 0.335892 7.71659 
4.86469 1.87001 6.35668 2.45016 0.572936 8.29732 2.62662 2.22063 9.40555 
2.13114 2.54573 8.64696 2.0124 3.15451 9.86245 1.80562 0.528513 9.33768 
2.16813 1.4186 9.17271 0.595448 0.827609 9.02579 1.48486 1.72686 8.59834 
4.08656 4.96823 8.88142 2.22586 4.41123 8.99049 0.360902 2.04195 8.26343 
0.672158 0.74284 9.88876 4.80232 4.71181 8.52157 4.42521 1.08573 8.65688 
1.56592 3.51009 9.20562 0.595213 1.36788 8.49923 1.71225 3.04751 8.42505 
2.13847 3.93092 8.0205 3.55051 2.40367 9.69655 2.98475 3.70486 8.71514 
0.895749 1.6097 9.64267 0.469136 2.0148 9.7233 0.674877 2.86082 9.37595 
-0.00230622 2.56937 8.76254 1.02595 2.22635 8.96284 3.35267 3.13434 9.32773 
1.00273 3.30078 8.48187 0.315652 4.31947 9.97479 3.48461 2.25097 8.87813 
2.84805 0.595525 9.09074 1.36858 4.217 8.81241 3.27685 4.47396 8.19451 
0.803117 3.64195 9.81125 4.45832 0.288692 8.49115 0.483344 4.10335 9.11679 
0.905005 4.87142 8.16836 1.62015 4.50548 9.79835 2.79475 1.08412 9.88019 
3.67655 0.87665 9.66064 2.91254 2.57628 8.36237 3.98196 1.72519 8.43371 
3.9598 4.20274 9.40612 4.19218 3.44845 8.18004 4.18709 4.64068 8.00264 
4.25126 2.0259 9.74545 4.29308 2.44884 8.98768 4.28327 3.19459 9.10529 
4.81469 3.93493 8.8628 4.86447 2.30171 8.80989 4.85602 4.31216 9.68478 
4.88659 3.54167 9.73347 1.55134 9.04181 1.84342 1.23089 6.79721 0.00612723 
2.59229 6.653 1.48031 4.2706 9.19742 1.21656 1.30597 7.60555 0.889028 
0.130878 8.90707 0.605968 0.529605 9.555 1.37658 4.78141 9.24389 0.294194 
3.19576 6.44201 0.824631 3.03062 7.18617 0.257894 0.304339 6.18764 0.400217 
2.6025 7.32695 1.23596 3.75606 9.15633 1.93317 3.1395 9.1077 0.0569596 
-0.00275383 6.52462 1.72151 3.34006 6.24009 1.71226 3.16892 7.87045 0.541608 
1.27209 9.81069 0.315592 3.01492 5.3822 0.847897 2.90203 9.23004 1.62916 
2.33697 8.81445 0.864837 1.43997 9.82856 1.55692 1.31618 5.34387 0.890194 
4.82229 5.98113 0.0573508 0.861612 5.28051 1.98514 1.98298 6.18997 0.357854 
2.1934 7.7971 1.8634 1.89527 7.61047 0.363133 2.16392 5.46033 1.19219 
2.5253 5.49651 0.277938 3.8346 8.18147 1.18087 1.09266 5.95388 0.424936 
4.38031 9.90329 0.800441 1.25219 8.3927 1.21797 1.88703 6.12776 1.40527 
3.75064 8.61232 0.370275 0.498558 8.10835 0.461166 1.54073 7.31007 1.66189 
0.594228 5.62391 1.22999 1.65136 6.71609 0.996706 4.74684 7.80241 1.87018 
2.3849 9.64056 1.39097 3.30931 9.16181 0.987356 2.25652 7.01304 0.0755754 
2.47307 8.0689 0.977385 0.939988 6.46663 1.70848 3.77077 5.60487 0.628721 
0.89598 6.69208 0.884416 1.85135 9.20879 0.0307576 4.26714 6.83867 0.0232922 
4.63833 6.39103 1.58003 4.77881 7.40504 1.05666 3.92973 8.29671 3.95876 
1.63022 9.189 2.82198 3.88132 5.62159 2.1086 1.42063 9.84803 2.47814 
1.83966 6.7673 3.46196 2.93094 8.09854 2.51074 2.96464 6.05903 2.90031 
2.07134 9.77073 3.489 0.07313 9.55347 3.76099 4.19662 8.67713 2.0644 
2.74243 6.65083 3.30635 0.852126 9.44045 3.17446 2.63796 9.55431 2.59608 
2.92439 7.18823 2.59635 3.20072 9.22122 3.10231 4.35664 6.63883 3.90436 
0.0242531 9.47082 2.29559 2.84138 7.5912 3.38735 3.9166 7.10898 3.83361 
3.38075 9.67181 2.14396 1.31087 8.79063 3.80715 3.82835 7.80006 2.12656 
3.65266 8.47798 3.02936 1.80307 8.02492 2.86363 0.440735 6.24674 2.64577 
1.7992 5.57894 2.07716 0.270232 7.09721 3.2313 4.05987 9.73777 2.73736 
2.22495 6.90426 2.28115 1.12797 6.00851 2.90345 0.31551 5.31614 3.71975 
2.16193 5.84034 3.83414 1.45118 6.20861 2.14485 3.82208 6.32988 3.08998 
0.40515 6.34096 3.67036 1.30861 7.8443 3.67766 1.83755 7.32264 2.66405 
3.45172 6.9419 2.24038 2.28374 8.91303 3.25567 1.07637 8.37127 2.84915 
1.06298 6.97097 2.48911 0.866927 7.71561 2.01151 2.05993 8.66016 2.24679 
2.25381 8.08939 3.60219 2.46042 5.6657 2.29103 0.848384 5.22704 2.91406 
2.54491 5.19817 3.71615 1.98287 6.09473 2.91984 3.15189 8.61209 3.82292 
3.66654 7.59111 3.2661 4.50409 7.88207 2.87303 4.59818 9.08289 2.88406 
4.56442 6.59755 2.51862 4.75262 9.8786 3.48668 4.84719 6.50561 3.4032 
4.88576 5.75353 2.20555 1.53979 9.20016 5.54362 3.88648 9.81549 4.56877 
4.29638 9.42432 5.74516 0.955143 9.93041 4.00875 4.42684 7.86733 5.94497 
3.55955 5.76794 5.80747 3.09324 6.89387 4.03976 2.85755 6.54898 5.95654 
3.06297 8.26549 4.62568 3.11005 5.27606 4.93351 2.81259 8.67082 5.32281 
1.00299 9.87014 4.97088 4.12188 5.38096 5.12641 0.675269 8.89966 5.32682 
0.457052 7.80108 5.97912 2.96375 7.34887 4.86073 1.80841 9.799 4.67733 
0.10549 7.74908 4.04451 2.68159 6.04883 5.21395 0.768128 8.95827 4.51483 
2.68793 7.71271 5.5966 2.79153 6.13421 4.36091 0.0984605 9.67485 4.74823 
0.850505 9.70199 5.91291 1.68717 6.84001 5.48796 1.02007 6.5742 4.67657 
2.42776 8.73363 4.19539 1.87671 6.29959 4.6534 2.11114 9.08352 4.58581 
0.565499 5.80277 4.39454 3.43924 9.97636 5.95182 3.69851 6.93826 4.74484 
3.94324 8.43046 4.94789 1.94276 8.30925 5.08418 1.26067 7.4823 4.98911 
0.991181 7.34789 5.86308 2.46631 6.73235 5.29352 0.426598 7.06124 4.32625 
1.01743 5.22171 4.41858 0.951761 5.77729 5.50785 1.94867 7.81049 4.39228 
0.252071 6.06181 5.31588 1.94936 8.65726 5.96639 4.6313 8.0164 4.38175 
4.44638 7.01866 4.76824 2.43323 7.27467 4.21689 3.66401 7.60124 5.45818 
-0.0179631 6.94612 5.5106 2.69121 9.48793 5.17355 4.2717 9.14491 4.37357 
[...]
POINT_DATA 1000
FIELD FieldData 7
id 1 1000 int
853 443 263 530 395 80 958 549 503 
665 130 383 439 213 376 140 683 266 
689 797 21 108 899 557 695 654 79 
644 56 511 520 468 894 13 509 952 
568 909 652 51 97 461 9 833 186 
888 285 787 483 904 360 993 947 741 
428 161 413 178 185 318 619 895 823 
91 785 816 62 588 778 196 777 247 
760 850 620 327 251 802 844 481 566 
222 956 216 744 724 88 139 769 626 
905 994 912 919 995 699 333 562 780 
875 798 609 862 40 931 142 629 278 
572 598 923 944 987 10 570 608 182 
821 763 484 208 782 702 889 510 803 
477 454 352 826 540 272 935 745 737 
42 231 312 901 156 76 61 35 791 
740 356 190 573 485 938 7 929 770 
168 613 180 363 607 486 245 225 253 
159 298 378 743 211 16 435 201 544 
346 300 611 204 610 992 270 970 621 
756 55 277 827 257 796 31 672 199 
721 241 854 495 373 582 863 891 167 
425 388 645 403 162 84 981 305 2 
393 595 878 433 254 541 738 287 687 
132 601 98 214 198 733 869 924 879 
795 960 281 438 321 372 868 959 125 
623 249 276 147 353 430 550 537 911 
881 920 758 409 419 680 368 874 420 
950 752 60 83 164 19 261 768 696 
561 3 514 424 202 427 849 177 513 
839 384 742 209 135 976 701 855 244 
152 28 370 529 429 847 887 618 317 
111 174 651 46 322 404 723 412 715 
890 129 941 625 401 449 817 829 26 
602 808 820 883 14 215 128 703 633 
637 916 832 407 493 811 731 451 181 
728 974 206 642 873 179 85 942 825 
279 636 191 576 574 324 29 41 831 
810 765 81 471 518 387 707 358 160 
902 985 246 172 273 70 732 779 934 
334 800 963 260 917 233 936 838 565 
187 59 466 523 591 258 71 469 250 
698 535 543 344 154 240 99 227 669 
757 784 583 951 375 512 289 718 499 
473 663 271 145 158 421 691 836 705 
120 359 990 223 639 328 456 15 564 
559 584 112 884 933 94 474 308 297 
381 296 998 89 54 840 48 304 628 
330 229 555 371 819 558 531 852 968 
377 937 585 720 444 589 594 87 57 
965 813 34 775 72 501 664 103 463 
183 144 52 362 27 496 494 753 882 
710 643 343 73 326 402 692 635 127 
943 972 527 676 275 508 467 546 528 
505 539 706 392 302 764 36 171 47 
397 962 928 315 690 453 979 291 310 
124 157 579 25 630 316 526 922 465 
966 440 794 648 354 880 431 309 877 
762 189 547 980 23 288 307 913 986 
207 268 217 556 735 858 347 921 226 
90 426 361 761 339 842 410 593 480 
845 418 548 267 416 996 243 700 406 
640 930 104 658 848 78 210 551 806 
284 357 603 153 414 497 896 478 149 
843 828 472 957 939 553 786 631 138 
228 542 447 232 502 24 870 65 673 
712 1000 293 533 459 961 596 364 506 
614 6 612 351 575 647 295 624 989 
804 616 586 783 400 532 666 674 835 
516 445 693 101 812 492 792 667 53 
399 5 482 504 38 224 366 988 205 
337 656 949 729 927 33 470 908 306 
450 697 95 983 860 200 662 446 646 
460 136 311 290 606 314 479 415 115 
759 441 336 237 102 17 86 50 815 
8 487 977 408 661 43 107 464 93 
747 552 671 348 184 766 767 910 49 
580 748 67 264 282 650 592 166 155 
338 746 714 148 675 369 660 971 165 
524 694 235 932 283 590 861 726 773 
809 897 350 722 521 940 391 670 280 
711 954 955 106 736 320 423 577 865 
386 329 554 173 163 374 1 221 39 
978 193 22 319 926 82 109 925 545 
4 597 442 116 100 627 323 133 569 
991 876 634 96 170 682 571 259 857 
345 515 801 851 20 567 681 750 632 
335 194 269 886 150 739 789 341 807 
411 837 405 151 218 581 587 274 134 
238 313 12 434 490 679 893 131 385 
918 342 455 234 126 948 708 885 45 
110 975 141 704 997 841 394 982 641 
75 63 657 294 340 686 727 799 396 
436 11 538 286 176 522 197 709 437 
118 212 563 114 379 864 121 143 604 
248 892 122 230 638 771 560 754 964 
262 688 169 113 781 195 476 117 92 
519 203 973 871 788 488 58 255 458 
907 915 68 818 600 914 903 398 380 
500 507 299 830 452 659 175 599 900 
725 422 242 491 390 824 74 749 859 
719 119 866 66 536 716 649 105 751 
969 256 239 872 730 32 668 331 188 
653 123 382 292 622 332 192 220 367 
605 617 734 64 685 525 967 365 462 
578 898 475 417 946 834 953 18 498 
713 678 867 44 717 137 325 655 984 
349 389 252 906 814 30 677 684 303 
776 301 265 355 774 69 615 793 448 
457 77 236 772 146 489 37 999 517 
534 219 846 856 790 432 822 755 805 
945 
type 1 1000 int
2 1 1 2 1 1 2 2 2 
2 1 1 1 1 1 1 2 1 
2 2 1 1 2 2 2 2 1 
2 1 2 2 1 2 1 2 2 
2 2 2 1 1 1 1 2 1 
2 1 2 1 2 1 2 2 2 
1 1 1 1 1 1 2 2 2 
1 2 2 1 2 2 1 2 1 
2 2 2 1 1 2 2 1 2 
1 2 1 2 2 1 1 2 2 
2 2 2 2 2 2 1 2 2 
2 2 2 2 1 2 1 2 1 
2 2 2 2 2 1 2 2 1 
2 2 1 1 2 2 2 2 2 
1 1 1 2 2 1 2 2 2 
1 1 1 2 1 1 1 1 2 
2 1 1 2 1 2 1 2 2 
1 2 1 1 2 1 1 1 1 
1 1 1 2 1 1 1 1 2 
1 1 2 1 2 2 1 2 2 
2 1 1 2 1 2 1 2 1 
2 1 2 1 1 2 2 2 1 
1 1 2 1 1 1 2 1 1 
1 2 2 1 1 2 2 1 2 
1 2 1 1 1 2 2 2 2 
2 2 1 1 1 1 2 2 1 
2 1 1 1 1 1 2 2 2 
2 2 2 1 1 2 1 2 1 
2 2 1 1 1 1 1 2 2 
2 1 2 1 1 1 2 1 2 
2 1 2 1 1 2 2 2 1 
1 1 1 2 1 2 2 2 1 
1 1 2 1 1 1 2 1 2 
2 1 2 2 1 1 2 2 1 
2 2 2 2 1 1 1 2 2 
2 2 2 1 1 2 2 1 1 
2 2 1 2 2 1 1 2 2 
1 2 1 2 2 1 1 1 2 
2 2 1 1 2 1 2 1 1 
2 2 1 1 1 1 2 2 2 
1 2 2 1 2 1 2 2 2 
1 1 1 2 2 1 1 1 1 
2 2 2 1 1 1 1 1 2 
2 2 2 2 1 2 1 2 1 
1 2 1 1 1 1 2 2 2 
1 1 2 1 2 1 1 1 2 
2 2 1 2 2 1 1 1 1 
1 1 2 1 1 2 1 1 2 
1 1 2 1 2 2 2 2 2 
1 2 2 2 1 2 2 1 1 
2 2 1 2 1 2 2 1 1 
1 1 1 1 1 1 1 2 2 
2 2 1 1 1 1 2 2 1 
2 2 2 2 1 2 1 2 2 
2 2 2 1 1 2 1 1 1 
1 2 2 1 2 1 2 1 1 
1 1 2 1 2 1 2 2 1 
2 1 2 2 1 2 1 1 2 
2 1 2 2 1 1 1 2 2 
1 1 1 2 2 2 1 2 1 
1 1 1 2 1 2 1 2 1 
2 1 2 1 1 2 1 2 1 
2 2 1 2 2 1 1 2 2 
1 1 2 1 1 1 2 1 1 
2 2 1 2 2 2 2 2 1 
1 2 1 1 2 1 2 1 2 
2 2 1 2 1 2 2 1 2 
2 1 2 1 2 2 1 2 2 
2 2 2 2 1 2 2 2 2 
2 1 2 1 2 1 2 2 1 
1 1 1 2 1 1 1 2 1 
1 2 2 2 2 1 1 2 1 
1 2 1 2 2 1 2 1 2 
1 1 1 1 2 1 1 1 1 
2 1 1 1 1 1 1 1 2 
1 1 2 1 2 1 1 1 1 
2 2 2 1 1 2 2 2 1 
2 2 1 1 1 2 2 1 1 
1 2 2 1 2 1 2 2 1 
2 2 1 2 1 2 2 2 2 
2 2 1 2 2 2 1 2 1 
2 2 2 1 2 1 1 2 2 
1 1 2 1 1 1 1 1 1 
2 1 1 1 2 1 1 2 2 
1 2 1 1 1 2 1 1 2 
2 2 2 1 1 2 2 1 2 
1 2 2 2 1 2 2 2 2 
1 1 1 2 1 2 2 1 2 
1 2 1 1 1 2 2 1 1 
1 1 1 1 1 2 2 1 1 
2 1 1 1 1 2 2 2 1 
1 2 1 2 2 2 1 2 2 
1 1 2 1 1 2 2 2 1 
1 1 2 1 1 2 1 2 1 
1 1 2 1 1 2 1 1 2 
1 2 1 1 2 2 2 2 2 
1 2 1 1 2 1 1 1 1 
2 1 2 2 2 1 1 1 1 
2 2 1 2 2 2 2 1 1 
1 2 1 2 1 2 1 2 2 
2 1 1 1 1 2 1 2 2 
2 1 2 1 2 2 2 1 2 
2 1 1 2 2 1 2 1 1 
2 1 1 1 2 1 1 1 1 
2 2 2 1 2 2 2 1 1 
2 2 1 1 2 2 2 1 1 
2 2 2 1 2 1 1 2 2 
1 1 1 2 2 1 2 2 1 
2 1 1 1 2 1 2 2 1 
1 1 1 2 1 1 1 2 2 
2 1 2 2 2 1 2 2 2 
2 
i 3 1000 int
216 1 0 170 1 0 -121 0 1 
-87 0 2 161 1 0 -66 0 1 
236 1 2 -163 0 0 57 1 0 
185 1 1 -77 0 0 -94 0 1 
-99 0 0 331 1 1 -224 0 0 
154 1 1 109 1 0 -311 -1 0 
-162 0 1 234 1 0 -107 0 1 
-199 0 1 -167 0 0 217 1 0 
131 1 0 -94 0 1 -133 0 1 
385 1 1 -65 0 0 -25 0 0 
67 0 1 5 0 1 9 0 0 
25 0 0 -133 0 0 -24 0 0 
-90 0 0 -128 0 1 -59 0 1 
-32 0 1 63 1 0 352 1 0 
342 1 0 -38 0 0 238 1 0 
452 1 1 52 0 -1 -86 0 1 
213 1 0 211 1 0 -284 -1 1 
34 0 1 -25 0 1 -123 0 0 
-103 0 1 -9 0 1 -65 0 0 
104 1 0 -20 0 0 -99 0 1 
-102 0 1 -112 0 0 266 1 -1 
-25 0 0 340 1 1 -22 0 0 
-55 0 0 107 1 1 -167 0 1 
299 1 0 -213 0 -1 -190 0 0 
-59 0 1 87 0 1 -44 0 0 
-68 0 0 -91 0 0 90 1 1 
220 1 0 55 0 -1 316 1 1 
316 1 0 -118 0 1 -132 0 1 
225 1 0 -250 0 0 61 0 0 
-62 0 0 -67 0 1 -82 0 -1 
-82 0 0 83 0 0 1 0 0 
-224 -1 0 -151 0 1 23 0 -1 
-53 0 0 120 0 1 -184 0 0 
-67 0 1 -187 0 0 -52 0 0 
-52 0 0 -49 0 0 22 0 0 
-109 0 -1 -187 0 -1 254 1 -1 
-108 0 0 -99 0 1 190 1 0 
-88 0 1 242 1 0 -187 0 1 
-314 -1 1 -56 0 0 33 0 -1 
247 1 0 135 1 1 24 0 0 
-54 0 1 61 0 -1 258 1 0 
2 0 0 -70 0 -1 283 1 0 
126 0 0 272 1 0 -105 0 0 
339 1 0 -330 -1 0 -224 0 -1 
-82 0 0 -93 0 1 -91 0 0 
-103 0 0 -41 0 1 -1 0 1 
-173 0 0 88 1 0 110 0 1 
-157 0 0 -146 0 1 47 0 -1 
-99 0 0 19 0 0 -54 0 1 
-142 0 0 -128 0 1 -4 0 -1 
-95 0 0 -29 0 1 -71 0 0 
112 1 0 -64 0 0 -17 0 0 
98 1 -1 74 0 0 274 1 1 
-24 0 0 -151 0 0 -227 0 0 
289 1 -1 -162 0 -1 -198 0 0 
-73 0 0 216 1 0 -151 0 0 
61 0 -1 -88 0 0 -25 0 0 
286 1 0 156 1 -1 -53 0 0 
-144 0 1 48 0 -1 -144 0 0 
-128 0 1 212 0 -1 -1 0 0 
-138 0 1 174 1 0 -159 0 0 
-63 0 0 -69 0 0 27 0 -1 
209 1 0 -21 0 -1 -237 0 -1 
256 1 0 366 1 1 44 1 -1 
-99 0 1 -177 0 -1 -20 0 -1 
-77 0 0 11 0 -1 223 1 -1 
-190 0 0 -229 0 0 170 1 -1 
-9 0 -1 229 1 -1 102 0 0 
144 1 -1 64 0 -1 -74 0 0 
169 1 -1 155 1 0 159 0 0 
279 1 -1 -23 0 -1 252 1 -1 
255 1 0 236 1 0 211 1 0 
31 0 0 149 1 0 -64 0 -1 
-28 0 -1 -12 0 0 94 0 -1 
23 1 0 -54 0 0 171 0 1 
-102 0 -1 226 1 0 -12 0 -1 
13 0 -1 -22 0 -1 -172 0 0 
-114 0 1 209 1 0 -351 -1 0 
-57 0 0 -96 0 1 -285 -1 0 
-141 0 -1 178 1 0 -39 0 0 
48 0 0 173 1 0 -307 -1 -2 
-16 0 -1 -235 -1 1 17 0 0 
426 1 1 137 0 0 -208 -1 0 
75 0 0 142 0 0 -56 -1 1 
34 0 -1 40 0 -1 54 0 1 
180 0 0 100 0 -1 -159 -1 0 
8 0 0 -141 0 -1 50 0 0 
101 0 0 55 0 0 -129 -1 0 
-4 0 1 131 0 0 -32 0 0 
43 0 1 52 0 1 -78 0 0 
-12 0 1 -12 0 0 2 0 -1 
-322 -1 0 17 0 0 66 0 0 
134 0 0 -287 -1 0 -404 -1 0 
77 0 1 91 0 0 -8 0 0 
-22 0 1 19 0 1 37 0 0 
198 0 0 -143 -1 2 -4 0 1 
164 0 0 105 0 -1 30 0 0 
99 0 1 175 0 0 24 0 1 
117 0 0 -290 -1 1 192 0 0 
-77 -1 -1 -270 -1 0 -63 -1 0 
-29 0 0 71 0 0 43 0 0 
77 0 0 -109 -1 0 178 0 0 
157 0 0 69 -1 0 -183 -1 0 
18 0 0 55 0 1 90 0 0 
97 0 1 -203 -1 0 -216 -1 1 
-152 -1 2 -158 -1 0 23 0 0 
57 0 0 235 0 0 83 0 0 
368 1 0 54 0 1 162 0 0 
37 0 1 433 1 0 -48 0 1 
-311 -1 0 -233 -1 0 124 0 0 
100 0 1 79 0 0 152 0 -1 
499 1 0 -206 -1 1 189 0 0 
128 0 0 41 0 1 148 0 0 
139 0 0 -175 0 0 72 0 0 
31 0 1 312 1 0 87 0 1 
104 0 1 -269 -1 0 -252 -1 0 
-403 -1 0 -95 -1 0 100 0 0 
334 1 1 112 0 0 230 0 0 
-206 -1 0 -227 -1 2 107 0 0 
-338 -1 1 11 0 0 81 0 -1 
108 0 0 396 1 0 123 0 0 
-161 -1 0 37 0 0 -148 -1 0 
52 0 0 15 0 1 -139 -1 0 
-44 0 1 108 0 -1 144 0 0 
-172 -1 1 -356 -1 1 -149 -1 1 
119 0 0 171 0 0 -50 0 1 
108 0 -1 143 0 0 -205 -1 1 
86 0 0 -13 -1 0 -240 -1 1 
-237 -1 -1 -179 -1 1 -338 -1 0 
94 0 0 -45 0 1 -180 -1 1 
-54 0 0 250 1 -1 90 0 -1 
-299 -1 -1 -238 -1 0 99 0 0 
73 0 0 119 0 0 -31 0 0 
175 0 0 -121 -1 1 233 0 -1 
266 1 0 140 0 -1 -186 -1 0 
-190 -1 0 7 0 0 21 0 0 
33 0 -1 132 0 0 39 0 -1 
-119 -1 0 -181 -1 2 35 0 0 
-197 -1 0 -146 -1 0 37 0 0 
101 0 0 -12 0 0 1 0 0 
77 0 0 -116 -1 1 132 0 -1 
66 0 0 82 0 -2 -97 0 0 
-189 -1 0 92 0 0 -6 0 0 
89 0 -1 -233 -1 0 42 0 1 
82 0 -1 -180 -1 0 -33 0 -1 
-23 0 0 -60 0 0 88 0 0 
-63 0 0 -259 -1 0 269 0 0 
-337 -1 1 -128 -1 0 -176 -1 0 
48 0 -1 102 0 1 117 0 0 
-189 -1 1 23 0 0 168 0 0 
95 0 -1 245 0 0 179 0 0 
-199 -1 -1 198 0 0 246 1 0 
141 0 -1 41 0 0 189 0 0 
150 0 -2 29 0 -1 199 0 0 
82 0 0 -192 -1 0 89 0 -1 
57 0 -1 69 0 0 -2 0 0 
98 0 -1 48 0 1 -131 -1 0 
-42 -1 -1 20 0 0 -235 -1 0 
198 0 -1 -373 -1 0 -205 -1 0 
-203 -1 0 21 0 -1 0 0 -1 
128 0 -1 -198 -1 -1 -357 -1 0 
392 1 0 45 0 0 108 0 -1 
-232 -1 0 -105 0 0 69 0 0 
-10 0 -1 135 0 -1 -47 0 0 
-271 -1 -1 -14 0 -1 -162 -1 -1 
112 0 -1 -188 -1 -1 36 0 -1 
65 0 0 170 0 -1 77 0 -1 
108 0 0 -163 -1 0 125 0 0 
152 0 0 -82 0 1 -64 0 0 
-162 0 0 128 1 1 -165 0 0 
-152 0 1 21 0 1 -39 0 1 
-98 0 1 -38 0 0 -22 0 0 
258 1 1 -78 0 1 -5 0 1 
-152 0 0 125 1 0 253 1 1 
-164 0 1 244 1 0 50 0 0 
217 1 2 -150 0 1 -60 0 -1 
273 1 -1 -45 0 0 58 0 1 
232 1 1 36 0 0 -97 0 0 
166 1 -1 49 0 0 -3 0 0 
-28 0 -1 -83 0 1 -227 -1 1 
47 0 0 169 1 -1 -72 0 0 
-176 0 1 -87 0 1 -151 0 1 
-75 0 0 -2 0 1 -136 0 2 
-41 0 0 -161 0 1 -162 0 1 
-190 0 0 -120 0 0 -132 0 0 
-59 0 0 169 1 1 -71 0 1 
-142 0 0 -68 0 0 -8 0 0 
-87 0 0 -242 0 1 -39 0 1 
201 1 0 62 1 0 -112 0 0 
-119 0 0 -280 0 1 247 1 0 
15 0 0 182 1 0 179 0 1 
-23 0 -1 -32 0 1 -17 0 0 
-41 0 1 -78 0 1 12 0 1 
24 0 0 -59 0 0 -330 -1 1 
-182 0 1 36 0 0 -59 0 1 
-133 0 1 -241 0 1 54 0 1 
-108 0 1 -155 0 1 231 1 -1 
-4 0 1 -91 0 0 190 1 -1 
146 1 0 -124 0 0 -158 0 1 
341 1 0 -4 0 0 -32 0 0 
-123 0 0 -71 0 0 -127 0 0 
184 1 0 27 0 -1 -58 0 1 
1 0 1 209 1 -1 -120 0 0 
173 1 -1 7 0 -1 45 0 0 
-188 0 -1 -59 0 0 316 1 0 
-105 0 1 -151 0 0 54 0 0 
-13 0 0 -71 0 0 -62 0 1 
-112 0 1 -51 0 0 89 1 -1 
-114 0 0 4 0 1 -158 0 0 
298 1 0 -59 0 0 79 0 0 
-135 0 -1 20 0 -1 124 1 0 
69 0 0 -75 0 1 -189 0 0 
-1 0 1 3 0 0 -63 1 -1 
195 1 0 -124 0 1 97 0 1 
215 1 1 3 0 0 300 1 0 
145 1 -1 -92 0 1 83 0 -1 
197 1 0 -48 0 -1 -44 0 0 
-25 0 -1 -35 0 1 -151 0 0 
-143 0 1 -53 0 0 -67 0 0 
-30 0 0 -10 0 -1 -39 0 0 
229 1 0 -157 0 -2 -115 0 0 
83 0 0 -8 0 -1 191 1 -1 
-96 0 -1 27 0 0 91 0 0 
-150 0 0 -35 0 -1 -143 0 -1 
-42 0 1 36 0 0 189 1 -1 
113 1 1 -141 0 -1 183 1 -1 
-46 0 -1 -94 0 -1 -163 0 0 
-292 -1 1 12 0 0 192 1 -1 
-219 0 0 71 0 -1 -34 0 0 
-38 0 0 55 0 0 -73 0 0 
-112 0 0 -65 0 1 28 1 0 
248 1 -1 275 1 -1 318 1 1 
-24 0 -1 281 1 0 -55 0 0 
-43 0 0 95 1 -1 29 0 0 
163 1 0 -67 0 -1 487 2 0 
-45 0 0 -89 0 -1 -26 0 0 
-32 0 0 45 0 0 14 0 -1 
-106 0 1 -250 0 0 44 1 -1 
-99 0 0 -179 0 0 -35 0 -1 
-80 0 0 184 1 -1 -143 0 -1 
228 1 -1 100 1 0 246 1 -1 
-147 0 -1 -117 0 0 -34 0 -2 
-14 0 -1 -134 0 0 -164 0 0 
179 1 -1 234 1 -1 4 0 1 
-78 0 -1 -287 0 1 41 0 0 
-304 -1 0 240 1 -1 -128 0 -1 
113 0 -1 -153 0 0 -282 -1 -1 
225 1 0 231 1 0 -33 0 0 
-233 0 -1 100 0 0 -116 0 -1 
21 0 -1 227 1 -1 201 1 -1 
54 1 -1 218 1 0 23 0 -1 
92 0 1 162 0 0 138 0 -1 
-203 -1 0 -157 -1 1 31 0 0 
72 0 1 0 0 0 7 0 0 
-310 -1 0 180 0 1 258 0 0 
76 0 0 -123 -1 1 107 0 -1 
-127 -1 0 164 0 0 51 0 0 
62 0 1 -194 -1 -1 -61 -1 0 
236 0 1 -275 -1 -1 -309 -1 -1 
-166 0 0 -244 -1 0 54 0 1 
37 0 1 -177 -1 1 41 0 0 
-148 -1 1 -309 -1 0 -196 -1 0 
386 1 0 137 0 0 42 0 0 
-74 0 0 18 0 0 -147 -1 1 
2 0 0 -278 -1 0 15 0 0 
2 0 0 7 0 0 -35 0 1 
-11 0 1 -275 -1 -1 -182 -1 0 
-279 -1 0 -218 -1 -1 -98 0 0 
-157 -1 0 -251 -1 0 5 0 0 
15 0 0 138 0 0 -299 -1 0 
-139 -1 0 -5 0 1 44 0 0 
-52 0 0 257 1 -1 261 0 0 
-179 -1 1 65 0 0 134 0 1 
-136 -1 1 268 1 1 -136 -1 1 
136 0 -1 68 0 1 96 0 0 
243 1 -1 97 0 -1 -29 0 0 
304 1 1 126 0 0 120 0 0 
102 0 0 18 0 0 86 0 -1 
7 0 1 162 0 0 4 0 1 
70 0 0 -26 0 0 236 0 1 
103 0 1 86 0 1 -2 0 1 
155 0 0 173 0 0 -84 0 0 
194 0 1 211 0 0 42 0 1 
-300 -1 -1 -226 -1 0 -20 0 1 
285 0 -1 119 0 0 133 0 1 
-284 -1 0 54 0 -1 142 0 0 
121 0 0 107 0 -1 -188 -1 0 
65 0 0 -145 -1 0 72 0 -1 
-222 -1 0 -83 -1 1 266 0 0 
40 0 -1 199 0 0 -285 -1 1 
-170 -1 1 -213 -1 0 100 0 0 
-207 -1 -1 -200 -1 0 3 0 0 
-11 0 0 129 0 0 -120 0 1 
38 0 -1 -211 -1 1 43 0 0 
-174 -1 0 72 0 0 142 0 0 
164 0 0 -27 0 1 56 0 0 
-24 0 -1 133 0 -1 -43 0 1 
79 0 0 -220 -1 0 24 0 0 
374 1 -1 24 0 0 -166 -1 0 
52 0 -1 117 0 -1 -219 -1 0 
-18 0 -1 -334 -1 -2 -370 -1 0 
125 0 -1 170 0 -1 35 0 0 
-40 -1 0 -258 -1 0 -257 -1 1 
183 0 0 15 0 0 53 0 -1 
-133 -1 0 -219 -1 0 -24 0 -1 
71 0 0 183 0 0 214 0 1 
157 0 0 33 0 0 -318 -1 0 
8 0 0 -244 -1 -1 223 0 -1 
37 0 0 -14 0 -1 24 0 0 
361 1 0 -8 0 -1 -295 -1 -2 
-395 -1 -1 63 0 0 -139 0 0 
46 0 0 360 1 0 167 0 -1 
46 0 0 112 0 1 -54 0 0 
43 0 -1 34 0 1 -306 -1 -1 
201 0 -1 -270 -1 -1 151 0 -1 
136 0 -1 -31 0 0 82 0 0 
143 0 0 109 0 -1 67 0 0 
98 0 -1 -44 0 0 228 0 0 
-235 -1 0 62 0 -1 68 0 0 
104 0 -1 -124 -1 0 -234 -1 -1 
162 0 -2 -271 -1 0 238 0 0 
82 0 0 -114 -1 -1 231 1 0 
124 0 0 -273 -1 1 46 0 0 
40 0 0 89 0 0 179 0 0 
-193 -1 0 73 0 -1 -54 0 0 
170 0 0 -248 -1 0 -169 -1 0 
179 0 -1 177 0 -1 50 0 0 
67 0 -1 177 0 0 -230 -1 0 
-58 0 1 -2 0 0 111 0 -2 
-353 -1 -1 -48 0 -1 16 0 0 
54 0 0 20 0 -1 -40 0 0 
-224 -1 0 -251 -1 0 68 0 0 
-160 -1 0 -38 0 -1 -162 -1 -1 
118 0 -1 
v 3 1000 double
-493.58887923 18.989854768 -1.5664885974 -476.91001819 30.966278951 -27.98127948 -455.69446177 -0.50859263521 3.3143887879 
-144.59813341 -15.454110148 -20.637381467 -350.37612064 -0.88671225794 -17.517083472 -126.21488743 0.4547110072 23.130701613 
-432.22837828 -14.325052456 15.95111913 -83.734038492 -12.112835667 -14.286262426 -289.36071694 2.1818009579 0.31807226669 
-229.51420637 16.549086547 -18.971120531 -258.92909134 11.263816268 3.5214236136 -152.22984546 19.721543225 -4.3478184565 
-420.49629734 -12.119841888 -13.731536105 -48.9073657 2.6254262704 43.098312889 -438.69689191 -12.224923832 10.470024048 
-306.76743935 -1.9295448428 -12.598626379 -471.97189231 -3.9778612909 -5.4067313158 -156.44814875 2.5141504775 11.347995279 
-340.96650924 15.381533349 -4.5215298712 -300.71346488 0.90330631798 -4.5383710274 -187.28365042 -4.9801803766 16.826377949 
-367.92506761 -9.8790642063 8.0485448962 -342.69825993 -10.355995599 5.1273264722 -332.98762524 -5.7184747471 -5.2824673349 
-432.57040449 22.573674802 -5.8344882574 -350.70595702 2.8838097179 -8.152634818 -262.83024879 4.0676858395 10.672174286 
-211.03186628 14.430700714 -1.0557584831 -262.69029007 20.126420554 -1.5438695175 -85.445768823 -1.6439898811 3.799656458 
-19.977040233 -3.5032390725 9.1350232743 -45.009959139 16.019601783 -11.232235629 -201.67161943 6.5685799893 6.4903688574 
14.39161091 -6.5857020396 27.002691929 -326.48089791 -12.550832005 -5.2027468418 -345.82983202 -22.58403135 1.9215425857 
-197.01318265 9.4908581296 8.7925657297 -322.72351602 -0.57133260726 -17.926468283 -291.66800169 -23.267165372 33.036726269 
-434.09216183 -13.172635543 6.6525889684 -360.77976005 -10.209619695 -3.9709135397 -106.07332734 -17.592575364 4.0991035056 
-94.632161583 13.709233051 -15.834481087 -203.50862791 6.8591838659 1.3095538956 -126.41519099 -7.9422002638 31.882994146 
-22.229922073 -5.3165642536 -6.360491302 -91.022419054 13.857278399 -11.755350361 -238.45338939 6.7482395818 -0.52261609025 
-360.64321453 -21.281811489 2.4727632358 -168.53766779 14.333131486 0.38129484622 -278.2588617 -12.679940619 11.204256747 
-14.524122712 -3.5323076355 13.026280979 -335.70496208 3.0148751602 -27.551114637 -49.913238069 12.989201175 20.738338147 
-179.41207741 -6.408860209 -0.76640386332 -178.9960274 15.306418451 -11.668594453 -236.13924313 5.6454307272 21.509501682 
-325.59586474 2.0767630715 7.8373671757 -352.69622585 -16.222910834 14.126910408 -333.50033179 -5.1702574138 7.9580227959 
-318.14915879 -17.444760311 -5.4634117548 -458.71087504 9.1376909091 -13.943005334 -409.70740526 -13.381936921 -11.954821403 
-165.27890933 0.27562792735 8.1280267397 -247.04826752 -31.050862975 7.7501170925 -103.54531726 10.294480017 23.997891532 
-196.28525087 -3.1774440613 -30.251925627 -334.49768007 16.766877443 32.892741318 -262.6874989 15.362902744 2.584426567 
3.7222743184 -18.679089326 -8.1594805897 -389.44485411 -2.6268606428 13.366133472 -317.71039731 -9.6294694867 -13.494674916 
37.961318535 -27.201788124 8.4571608505 -195.92837724 3.0597797825 -11.094915131 -293.78862798 -2.1443988065 -6.423766187 
-203.58643467 4.5836098511 28.035589218 -200.24885378 7.9917064819 2.4518951608 -385.46261355 -23.838608285 7.6678717563 
-427.45820713 -0.8331299994 -4.9325051529 -37.715885258 14.6446704 14.672054776 -224.36150309 33.322772902 0.61923877981 
-33.621063419 -11.221933747 5.3085311651 -308.28617298 -0.38152775187 12.135949224 -49.032603233 12.552643524 -7.5487493649 
-142.76569885 -24.770328775 -3.8101426644 -489.55089921 16.868235508 -26.368211214 -89.601636476 10.375952177 5.6200746118 
-258.27648639 22.975553739 7.7776381489 -280.98931105 15.390116606 -9.5856806853 -418.71786593 -6.4661177185 14.3152991 
-185.50268205 7.8932529166 5.4345425113 -57.917882154 -0.43683744672 -3.0249659692 -73.161623638 1.0591216864 -13.152820346 
-270.28879478 -5.2497165485 20.89099971 -315.70676008 -7.4928994229 -6.015991751 -68.800448634 -15.758180539 -5.8846253267 
-419.73118305 -15.882339168 19.797586716 -87.239578483 -1.3238610268 5.8124889028 -252.29373691 -8.5035986235 -10.411233685 
-215.39634122 4.5589031377 16.826626683 -295.38834663 1.5009406515 -21.621162388 -161.55926763 4.5595559829 0.35061614158 
-33.874375722 2.7680163532 10.028444869 -127.56614409 -4.6207317525 0.3707964068 -112.62861546 -15.022930756 -31.24245559 
-335.07970928 -17.557312283 7.9565970833 -369.01484464 1.4649585252 -6.2699028125 -244.406609 -12.126793786 -29.112873642 
-302.36743191 6.7193682643 19.508820133 -224.77075832 -1.2338033314 -7.8758987987 -321.85657539 -25.127613527 1.643869844 
46.346017699 5.2744326836 -19.107018128 -208.13332054 -0.22133555617 12.721981459 -420.18960752 -11.376170438 -9.0635751017 
-51.601900302 16.231017175 -10.896034369 -225.74929991 16.282383541 8.4025807967 -268.15277454 -20.751268573 -16.066369524 
-215.20192243 7.0596949926 32.001251559 -426.2536851 -9.9765389198 26.178920523 -163.71830819 -0.19755811799 -37.477990619 
-427.97770687 5.7939791941 1.5920896209 -310.86864905 7.4221203795 23.931478902 -248.51921745 3.5993465785 17.813983205 