ITEM: TIMESTEP
13500
ITEM: NUMBER OF ATOMS
1000
ITEM: BOX BOUNDS xy xz yz pp pp pp
0 10 0
0 10 0
-0 10 0
ITEM: ATOMS id type type x y z ix iy iz vx vy vz fx fy fz omegax omegay omegaz radius 
677 2 2 1.10003 3.57664 0.947025 -8 0 1 -176.925 29.3039 -1.67932 729.218 -2403.91 1260.61 0 0 0 0.5 
864 2 2 3.57801 1.63379 0.823125 -12 0 1 -254.831 -5.87649 14.0543 -4157.18 4505.4 -359.407 0 0 0 0.5 
212 1 1 2.0221 0.411233 1.31136 70 1 0 -462.404 -10.5994 -15.7769 2124.55 -891.188 1149.56 0 0 0 0.5 
373 1 1 4.09879 1.06939 0.868148 -19 0 0 -336.085 16.6654 1.29285 3287.69 -1792.83 74.9797 0 0 0 0.5 
598 2 2 1.89123 3.62186 0.283962 -9 0 1 -133.635 -23.2495 26.1402 -473.854 581.88 914.771 0 0 0 0.5 
142 1 1 1.24818 1.04946 1.69458 -24 0 0 -307.076 -24.6702 12.676 -78.2145 847.332 1818.69 0 0 0 0.5 
805 2 2 2.22322 1.50761 0.946799 -37 0 0 -302.584 -8.08832 -34.3062 0 0 0 0 0 0 0.5 
342 1 1 1.87991 4.31332 0.958321 -8 0 1 -70.3662 -9.47438 15.2964 -291.26 -1402.06 -1468.2 0 0 0 0.5 
86 1 1 2.42514 4.03305 1.80302 -13 0 1 -73.4094 -15.4583 15.8454 -307.285 84.9227 -701.612 0 0 0 0.5 
697 2 2 0.828648 2.4726 1.60839 -17 0 0 -253.157 12.9054 4.19113 771.393 -1825.52 97.4107 0 0 0 0.5 
431 1 1 0.869345 1.81806 0.319088 -25 0 0 -275.728 -4.30587 -7.46345 833.431 -419.238 -355.317 0 0 0 0.5 
749 2 2 0.351639 0.864144 0.740332 -73 0 1 -413.023 -8.37396 1.69112 -452.073 -2049.9 -931.124 0 0 0 0.5 
579 2 2 2.83232 2.11346 1.72568 -10 0 0 -230.568 -3.75525 -18.1041 -1239.49 1589.72 -700.548 0 0 0 0.5 
636 2 2 -0.00807671 1.65058 0.971354 -29 0 1 -309.891 2.26577 13.804 362.709 2263.29 712.472 0 0 0 0.5 
12 1 1 3.41004 3.10067 1.96819 -38 0 0 -193.309 24.4446 -10.9733 2849.72 884.694 292.348 0 0 0 0.5 
134 1 1 3.62443 2.59809 0.511309 -15 0 1 -219.489 -9.23357 2.19722 -992.502 1474.85 -238.305 0 0 0 0.5 
485 1 1 4.61225 1.74075 1.45782 -33 0 1 -279.645 -6.87824 16.6285 -3066.24 2045.34 647.874 0 0 0 0.5 
267 1 1 1.2659 0.728441 0.902185 -52 0 1 -430.76 3.71372 10.2633 -933.881 796.95 -2107.98 0 0 0 0.5 
903 2 2 1.55609 2.79159 0.708033 -9 0 0 -208.608 1.52673 -7.94844 -152.634 -610.758 231.463 0 0 0 0.5 
339 1 1 0.207661 2.15394 0.014931 -9 0 1 -290.51 -7.70537 -6.98384 -707.27 538.924 -1009.23 0 0 0 0.5 
680 2 2 0.972327 1.67015 1.13051 -26 0 0 -289.05 -3.48587 -11.1604 -555.108 -184.2 2037.68 0 0 0 0.5 
770 2 2 2.5942 2.49523 0.769711 -24 0 0 -235.107 10.9505 7.193 -449.61 151.302 645.046 0 0 0 0.5 
264 1 1 4.42757 4.15668 0.516008 -2 0 0 -82.4089 -5.80321 -1.04775 759.429 2018.48 -410.25 0 0 0 0.5 
787 2 2 0.942183 3.35929 1.742 -25 0 1 -130.143 -14.8621 10.4508 920.693 -743.247 436.166 0 0 0 0.5 
10 1 1 3.63403 0.461238 1.91858 -27 0 1 -468.686 30.7381 15.3589 -1185.45 -614.24 807.222 0 0 0 0.5 
637 2 2 2.70823 3.08981 1.55799 -16 0 1 -195.754 1.40351 -20.3549 -1155.16 692.126 249.069 0 0 0 0.5 
138 1 1 0.163476 2.91669 0.463737 -7 0 1 -206.294 3.17224 14.6098 -269.763 -1534.79 845.759 0 0 0 0.5 
933 2 2 3.95556 3.84465 1.95451 -2 0 0 -76.9724 -2.53145 3.86724 466.186 -2507.42 -287.954 0 0 0 0.5 
871 2 2 0.957942 4.4228 0.610206 -8 0 0 -49.5837 -0.921956 -23.2531 1015.56 1876.14 -2171.43 0 0 0 0.5 
574 2 2 3.78304 4.7225 1.471 -4 0 1 -58.2774 20.2214 -11.1466 -1056.4 752.616 123.147 0 0 0 0.5 
943 2 2 4.01514 3.17465 1.2055 -11 0 0 -142.656 -2.57652 -3.23404 -1398.34 -299.938 811.737 0 0 0 0.5 
627 2 2 0.166872 3.66167 0.500012 -2 0 0 -118.499 18.8825 29.1327 1357.74 962.526 766.123 0 0 0 0.5 
359 1 1 2.78689 4.2513 0.905531 -7 0 0 -89.3548 4.46763 3.0697 565.691 -503.963 -570.951 0 0 0 0.5 
809 2 2 4.45595 0.360351 0.0358828 48 1 0 -434.663 0.4811 -16.1308 1944.91 -1924.66 -166.616 0 0 0 0.5 
802 2 2 2.5635 4.80616 0.183336 -7 0 1 -60.5842 23.9898 -2.48542 43.5442 530.4 -261.12 0 0 0 0.5 
100 1 1 4.50145 4.21068 1.38726 -4 0 0 -64.8268 11.0441 19.4293 1119.28 -119.824 -477.525 0 0 0 0.5 
674 2 2 0.943757 3.64611 0.0640398 -4 0 0 -139.178 0.670159 -10.7388 748.94 -1292.52 -2289.15 0 0 0 0.5 
517 2 2 0.498555 3.94335 1.76487 -17 0 0 -109.999 -0.595224 -3.45697 -1507.29 2182.88 -13.3814 0 0 0 0.5 
318 1 1 4.75134 2.11016 0.387124 -14 0 1 -256.892 8.26526 -8.40492 305.521 533.155 -662.572 0 0 0 0.5 
765 2 2 2.42028 0.0816386 0.186344 51 1 0 -488.029 19.6287 -14.0622 45.2706 2.60351 -9.84359 0 0 0 0.5 
907 2 2 3.08726 1.34971 1.8451 -7 0 0 -299.867 -23.5159 17.4065 554.96 -1662.51 259.96 0 0 0 0.5 
40 1 1 0.450411 4.86499 1.04809 -5 0 1 -7.20416 0.567696 -3.80912 152.149 -111.102 1155.64 0 0 0 0.5 
255 1 1 4.59641 2.95628 0.349313 -13 0 1 -198.241 19.7001 17.7521 1468.86 -431.218 1859.41 0 0 0 0.5 
775 2 2 2.73062 2.08763 0.030054 -41 0 0 -257.125 -2.90524 20.8023 739.323 -688.051 -676.911 0 0 0 0.5 
425 1 1 1.5334 0.0306343 0.379185 -31 0 0 -504.141 1.86916 -15.2915 303.963 -825.571 -670.377 0 0 0 0.5 
91 1 1 3.55486 3.84655 1.03478 1 0 0 -91.618 12.6285 4.55392 -122.189 1406.86 -312.204 0 0 0 0.5 
538 2 2 2.95881 3.63806 0.0942183 68 1 0 -153.855 18.3123 -8.14041 17.4103 -30.2229 -132.594 0 0 0 0.5 
161 1 1 1.46539 4.84859 1.55682 -3 0 1 -4.20691 -4.71567 3.63747 -294.446 -341.202 180.964 0 0 0 0.5 
103 1 1 2.69215 4.96151 1.52465 -1 0 0 12.9912 -2.35938 8.22812 -105.956 2059.08 142.826 0 0 0 0.5 
703 2 2 4.31179 0.37369 0.90818 -48 0 1 -431.427 -9.49382 -0.0636394 -1765.27 -1904.34 -348.85 0 0 0 0.5 
275 1 1 4.28335 2.3319 1.03943 -10 0 0 -240.488 2.73037 4.22568 751.094 -877.429 513.924 0 0 0 0.5 
803 2 2 1.07396 0.721105 2.7258 37 1 0 -458.182 -4.23552 7.13378 4503.08 -3497.28 998.948 0 0 0 0.5 
804 2 2 0.70826 1.45668 2.74495 -61 0 0 -329.77 0.0710809 17.3619 1477.22 3890.85 -204.834 0 0 0 0.5 
779 2 2 1.5941 3.22422 2.18396 -5 0 0 -118.947 -1.59813 34.718 770.534 -159.639 522.379 0 0 0 0.5 
112 1 1 3.9637 4.14964 2.8599 -1 0 0 -61.7232 -10.9188 12.6983 -707.301 -184.53 -542.581 0 0 0 0.5 
457 1 1 1.92157 4.92874 2.47682 2 0 0 34.5366 -28.4948 6.0814 -204.606 695.399 -15.3536 0 0 0 0.5 
157 1 1 1.47229 3.08721 3.51021 -5 0 0 -181.445 11.0793 10.0592 177.237 114.908 150.814 0 0 0 0.5 
208 1 1 2.8095 4.72632 2.45234 4 0 0 32.1533 0.376026 2.5222 -38.8364 1856.15 -184.29 0 0 0 0.5 
167 1 1 4.47155 0.124113 2.50108 41 1 0 -488.845 15.6252 14.4407 5.05478 -973.852 102.039 0 0 0 0.5 
365 1 1 1.97498 0.607209 3.58758 -54 0 0 -439.12 -10.8571 8.95759 1674.66 -416.333 -1364.41 0 0 0 0.5 
507 2 2 1.82199 1.54529 3.55044 -25 0 0 -343.178 9.59137 -15.3665 3672.2 -3225.19 1350.74 0 0 0 0.5 
465 1 1 2.56267 3.67797 3.18985 6 0 0 -66.9585 -12.7065 16.1974 -45.6463 204.007 935.703 0 0 0 0.5 
868 2 2 1.54821 1.60097 2.50073 -18 0 1 -309.32 -4.81691 -5.9628 1022.45 1709.58 -138.768 0 0 0 0.5 
548 2 2 0.0427782 1.97823 3.24314 -31 0 0 -258.568 -0.0190814 10.3655 -1239.38 1357.22 1731.23 0 0 0 0.5 
416 1 1 0.740265 2.44571 2.59379 -17 0 0 -242.176 8.15069 8.83817 -721.931 478.921 -1215.21 0 0 0 0.5 
147 1 1 1.18669 2.15489 3.27448 -46 0 0 -245.501 -0.348453 5.67041 -3531.95 1675.2 -1735.93 0 0 0 0.5 
606 2 2 0.191863 0.644905 2.39483 -26 0 0 -410.157 -22.4714 0.0500654 -1193.92 -3150.72 -1038.75 0 0 0 0.5 
392 1 1 2.55539 3.25767 2.54307 -12 0 0 -158.462 11.087 -21.5032 -2027.13 2366.02 -1394.58 0 0 0 0.5 
729 2 2 0.2971 0.393149 3.33522 49 1 1 -438.758 0.951184 4.59676 2836.29 -332.508 -49.1956 0 0 0 0.5 
361 1 1 3.86695 3.77846 3.7172 -9 0 0 -68.0942 -9.3978 8.0513 -709.871 1117.31 946.013 0 0 0 0.5 
785 2 2 2.07701 2.37241 2.4173 77 1 0 -215.537 -6.35666 -7.42679 -1159.97 -1727.46 194.996 0 0 0 0.5 
999 2 2 2.69443 4.53058 3.34569 -9 0 0 -17.9401 -3.48614 2.01771 -4048.89 834.955 -805.733 0 0 0 0.5 
646 2 2 0.373029 2.60671 3.89327 -12 0 0 -206.567 -1.55088 -12.2069 2364.51 -1680.29 -122.936 0 0 0 0.5 
117 1 1 2.65386 1.26065 3.07584 -22 0 0 -343.763 -22.0892 -8.12878 -2543.48 5603.09 2026.67 0 0 0 0.5 
231 1 1 2.93878 2.67603 2.60603 -24 0 1 -203.903 -1.71435 -0.554827 722.499 -1212.18 469.911 0 0 0 0.5 
937 2 2 4.68651 3.95051 3.3195 -8 0 0 -57.8392 -4.5289 14.0081 -231.742 -1382.99 -945.738 0 0 0 0.5 
15 1 1 3.57117 2.24226 2.19677 -27 0 1 -231.23 -9.43645 -3.21675 2118.35 -705.197 -519.251 0 0 0 0.5 
585 2 2 3.58073 1.45795 2.72694 -17 0 1 -307.86 -10.6601 23.3616 -183.646 189.923 -73.1197 0 0 0 0.5 
21 1 1 4.45687 1.58834 2.37131 -51 0 0 -304.674 -2.27444 21.2747 -1024.44 1411.78 385.615 0 0 0 0.5 
370 1 1 0.384431 4.28695 3.72128 -2 0 0 -24.4812 -3.03432 -10.2417 -128.545 113.148 -106.667 0 0 0 0.5 
151 1 1 2.85405 2.08668 3.15053 -17 0 0 -270.316 -0.421695 19.2932 -258.076 -1337.01 557.627 0 0 0 0.5 
773 2 2 4.36521 3.01579 3.43313 -8 0 0 -147.809 16.1334 -12.092 1570.63 -2358.08 -1091.59 0 0 0 0.5 
136 1 1 0.676098 4.66565 2.10436 -15 0 0 2.32167 5.18118 4.84513 918.932 336.328 -279.62 0 0 0 0.5 
385 1 1 3.06071 0.457512 2.77371 -71 0 0 -481.846 25.5795 -10.3634 2434.29 -4683.93 -1724.67 0 0 0 0.5 
759 2 2 3.42163 2.89167 3.46514 -13 0 0 -159.225 -6.29828 0.582157 191.454 84.2016 177.653 0 0 0 0.5 
901 2 2 4.52782 2.19407 3.75757 -26 0 0 -216.02 -12.6527 -5.32015 -577.641 810.676 -549.137 0 0 0 0.5 
889 2 2 0.623301 4.83865 3.02441 1 0 0 15.6978 -4.52643 2.87771 -227.262 104.992 179.496 0 0 0 0.5 
6 1 1 4.04144 4.82634 2.44739 -7 0 0 1.24718 -4.65648 -4.47323 -434.62 322.691 -520.863 0 0 0 0.5 
682 2 2 3.18651 4.05564 2.2795 -4 0 0 -55.6717 -9.03238 3.85627 -46.8319 -2744.59 225.061 0 0 0 0.5 
429 1 1 3.26338 4.31838 3.57692 -15 0 0 -37.082 12.4905 -6.10341 2985.57 -382.37 316.139 0 0 0 0.5 
555 2 2 1.116 4.16394 3.04934 -6 0 0 -0.0445981 -28.1895 8.73929 663.171 -908.148 33.5536 0 0 0 0.5 
307 1 1 4.52392 0.242774 3.81501 51 1 0 -487.428 11.8979 -8.30064 135.879 -1253.66 -1118.53 0 0 0 0.5 
95 1 1 4.86018 3.60706 2.1592 -4 0 0 -70.6026 -16.8433 -3.98584 -33.3205 -32.1105 -45.1126 0 0 0 0.5 
254 1 1 4.92218 4.8861 2.71578 6 0 0 -5.58247 -16.5698 10.1269 -1496.96 1305.73 -743.368 0 0 0 0.5 
594 2 2 0.251255 1.39291 5.89509 -23 0 0 -331.881 -3.06974 2.94652 -3605.07 -1902.42 -734.592 0 0 0 0.5 
129 1 1 1.90629 0.539455 5.66641 -38 0 0 -432.119 -11.3455 6.96419 -261.348 -1070.99 1124.86 0 0 0 0.5 
19 1 1 1.93156 3.17135 5.06001 -27 0 0 -186.838 11.0524 -6.22293 -2327.58 1508.93 -204.522 0 0 0 0.5 
149 1 1 3.83873 4.55372 5.0136 -3 0 0 -41.8035 8.65851 12.2695 2473.46 -2336.5 -11.6651 0 0 0 0.5 
767 2 2 1.25807 1.35785 4.8447 -21 0 0 -347.18 6.63256 -2.53464 1823.68 -1420.87 -138.174 0 0 0 0.5 
206 1 1 1.11687 1.97049 5.70493 -23 0 0 -327.838 13.6716 -30.2621 -840.757 396.223 -1243.1 0 0 0 0.5 
799 2 2 1.72926 0.0547884 4.3703 55 1 0 -438.492 -29.5668 -9.62184 -1141.15 119.297 -623.177 0 0 0 0.5 
445 1 1 2.46475 4.30958 5.81341 1 0 0 -23.1424 -5.25941 7.07004 -1710.04 749.145 27.4197 0 0 0 0.5 
33 1 1 1.71188 1.3421 5.6445 66 1 0 -361.433 13.2786 -6.33078 2148.95 -619.118 960.946 0 0 0 0.5 
954 2 2 1.27246 0.804038 4.08172 36 1 0 -431.004 8.62609 -13.7255 4361.55 -1540.7 211.073 0 0 0 0.5 
409 1 1 4.95086 1.53488 4.17848 98 1 0 -243.72 -24.3854 -3.30764 -6914.54 3209.41 -977.887 0 0 0 0.5 
497 1 1 0.872406 0.379427 5.16808 56 1 0 -447.566 2.51898 -1.07242 1995.93 1068.11 -2649.89 0 0 0 0.5 
719 2 2 0.0272515 0.502166 5.6027 44 1 0 -411.73 -15.0363 -25.542 -2003.24 1900.84 1791.76 0 0 0 0.5 
873 2 2 0.560576 1.38709 5.11067 -16 0 0 -351.284 -12.8615 4.99891 -626.477 -1843.02 -8.66528 0 0 0 0.5 
420 1 1 1.97906 4.2886 4.15853 9 0 0 -43.5206 12.0647 -3.7413 2672.38 710.233 -123.938 0 0 0 0.5 
204 1 1 3.96199 1.3508 4.84609 -59 0 0 -343.681 17.5913 -8.91608 -132.166 -1209.3 880.112 0 0 0 0.5 
584 2 2 2.32709 0.317402 4.94936 -16 0 0 -444.117 2.50261 -9.97603 -437.59 1954.6 2221.58 0 0 0 0.5 
743 2 2 2.12496 3.51036 4.06558 -17 0 0 -126.215 -13.599 -13.1452 71.1058 -1546.98 -283.424 0 0 0 0.5 
909 2 2 2.42325 3.96089 4.92379 2 0 0 -48.1866 -17.2946 -5.30714 -735.006 -2771.98 937.814 0 0 0 0.5 
764 2 2 1.01845 2.90829 4.50532 -33 0 1 -242.337 27.4013 17.4858 428.253 -35.7938 374.359 0 0 0 0.5 
428 1 1 1.09258 1.96662 4.16707 -14 0 0 -276.557 -4.44019 9.52139 1182.4 1166.99 -2419.32 0 0 0 0.5 
25 1 1 0.321567 1.01567 4.24306 -37 0 0 -326.82 -33.4908 2.30394 -4396.16 -211.012 1299.14 0 0 0 0.5 
529 2 2 4.76273 4.75275 5.72479 -5 0 0 2.21254 -13.6322 14.5548 -1410.72 -1090.71 -1656.09 0 0 0 0.5 
705 2 2 0.430999 2.79742 5.30964 0 0 0 -201.769 4.95778 16.5869 255.391 736.937 -1668.97 0 0 0 0.5 
291 1 1 1.63406 2.27901 4.96569 -18 0 0 -246.549 -8.06177 -12.3338 -120.162 1255.97 605.504 0 0 0 0.5 
235 1 1 0.306408 2.08024 4.73084 -17 0 0 -255.011 -3.90812 -17.9146 -1584.15 1298.87 1047.17 0 0 0 0.5 
7 1 1 1.79959 3.29054 5.99181 -7 0 0 -142.24 -5.99382 29.4044 1224.59 -1467.62 -3047.37 0 0 0 0.5 
364 1 1 0.30961 3.74574 4.37233 -7 0 0 -115.987 -7.60722 -10.6026 -867.293 -1150.11 83.3822 0 0 0 0.5 
863 2 2 0.762521 3.67349 5.10413 -19 0 0 -105.236 14.2763 -5.27332 1508.96 -2161.73 1014.85 0 0 0 0.5 
679 2 2 2.80592 2.2543 4.53208 -7 0 0 -235.685 -21.4476 -10.2012 58.6407 2123.21 -1328.37 0 0 0 0.5 
816 2 2 2.35944 4.88645 4.83172 -5 0 0 24.1779 -22.338 7.12829 -2777.58 2502.99 921.358 0 0 0 0.5 
543 2 2 4.64508 0.523003 4.9075 -35 0 0 -430.515 14.6592 3.55481 -1628.83 1489.16 -1111.61 0 0 0 0.5 
69 1 1 2.73804 2.85585 5.25232 -18 0 0 -222.036 14.5744 -20.5554 2055.44 -1295.34 1085.5 0 0 0 0.5 
641 2 2 1.19052 4.5805 4.27597 -8 0 0 -16.5245 -3.61662 0.343349 -362.528 -1195.11 513.387 0 0 0 0.5 
750 2 2 2.81524 1.84852 5.26135 -29 0 0 -308.566 -13.8251 1.38557 -169.055 -353.679 1123.27 0 0 0 0.5 
126 1 1 4.91996 0.22457 5.97542 37 1 -1 -516.362 9.88314 16.9064 3936.07 -2866.17 2763.08 0 0 0 0.5 
498 1 1 4.26764 0.793041 5.5135 84 1 0 -390.715 -12.3689 35.8227 -4505.02 4031.23 -4496.11 0 0 0 0.5 
358 1 1 4.60552 3.45018 4.31544 -6 0 0 -119.337 -8.04323 -4.94358 1143.84 -513.083 -1058.21 0 0 0 0.5 
408 1 1 1.14948 4.90249 5.24832 -6 0 0 20.8905 6.13882 12.0673 -370.674 -112.649 -293.474 0 0 0 0.5 
948 2 2 3.58994 1.9875 4.06316 52 1 0 -224.754 -22.2406 1.7707 255.066 -86.7963 -152.553 0 0 0 0.5 
187 1 1 4.0223 2.87059 5.93902 -28 0 0 -212.889 -3.97231 -14.8612 482.98 -2482.2 1462.12 0 0 0 0.5 
858 2 2 3.04861 4.44896 4.40398 -2 0 0 -43.7893 5.2326 -1.57608 3537.57 -3124.5 839.943 0 0 0 0.5 
539 2 2 3.23148 1.04491 5.38364 -37 0 0 -328.926 -32.8349 15.2849 589.319 -160.39 -255.207 0 0 0 0.5 
80 1 1 3.03075 3.09471 4.27237 -4 0 0 -166.206 14.4955 14.0176 -2477.23 -308.55 -1960.22 0 0 0 0.5 
568 2 2 3.08248 2.29704 5.9608 -15 0 0 -243.704 2.41709 -4.36756 128.576 128.419 726.707 0 0 0 0.5 
245 1 1 3.90704 3.68351 4.58703 -15 0 0 -110.666 3.81114 9.50937 -2061.77 -201.866 644.266 0 0 0 0.5 
836 2 2 3.79418 0.538901 4.38061 52 1 0 -428.137 4.26951 8.80768 -1621.71 1065.07 1532.37 0 0 0 0.5 
521 2 2 0.394283 4.69768 4.67606 4 0 0 3.94515 -1.02747 11.6077 -931.107 301.796 1079.26 0 0 0 0.5 
146 1 1 3.15507 3.93642 5.63068 -3 0 0 -36.2207 -20.5551 -8.72879 -959.422 990.269 534.227 0 0 0 0.5 
396 1 1 0.627248 4.17932 5.88419 -8 0 0 -106.79 28.1998 3.06196 165.266 -67.6718 -936.342 0 0 0 0.5 
514 2 2 3.64251 2.81758 4.86703 -18 0 0 -224.672 11.6895 9.30728 3269.14 -341.71 1586.4 0 0 0 0.5 
374 1 1 3.9263 3.55221 5.4933 -4 0 0 -78.2347 -6.91623 -6.81442 2835.48 697.86 -644.97 0 0 0 0.5 
352 1 1 1.50972 2.08002 7.04078 -12 0 0 -288.068 8.56765 21.1639 2313.3 -2096.45 1215.47 0 0 0 0.5 
207 1 1 0.432111 0.604221 7.00104 46 1 1 -438.427 -8.97534 -2.61994 -15.6848 221.742 1278.27 0 0 0 0.5 
930 2 2 1.01062 4.75792 6.89794 -8 0 0 -28.3038 11.1576 -21.7726 -228.4 208.124 -64.304 0 0 0 0.5 
860 2 2 3.75176 3.48755 7.54099 2 0 0 -118.827 -0.0580131 8.39006 -1681.53 1579.54 978.889 0 0 0 0.5 
272 1 1 2.59036 1.09413 7.71326 -49 0 -1 -352.53 -27.5813 16.061 -1302.2 -92.2337 -746.057 0 0 0 0.5 
924 2 2 1.05787 2.99599 7.7507 -16 0 0 -239.028 7.19471 17.6406 -280.497 -4294.49 -632.702 0 0 0 0.5 
314 1 1 0.4328 2.07391 7.27324 -19 0 0 -287.058 16.7459 -8.93548 1005.36 -180.994 375.135 0 0 0 0.5 
929 2 2 4.66124 3.90106 7.7948 -5 0 0 -104.318 4.43174 11.6728 31.0771 1672.86 1273.79 0 0 0 0.5 
329 1 1 4.51533 1.47751 6.88812 -24 0 0 -357.353 -1.95177 12.0372 624.913 208.352 66.32 0 0 0 0.5 
830 2 2 1.79193 0.129199 6.53388 37 1 -1 -527.526 18.0654 18.4628 2085.65 845.775 -520.233 0 0 0 0.5 
38 1 1 2.5661 1.9923 7.4983 -33 0 0 -268.865 -13.8997 18.4175 147.093 905.362 -1423.62 0 0 0 0.5 
740 2 2 1.04988 1.29698 6.39795 -25 0 0 -386.767 -7.13576 -15.242 1822.1 1894.98 464.501 0 0 0 0.5 
229 1 1 0.979196 2.85418 6.95708 -17 0 0 -166.223 1.41477 -10.9661 -59.5081 3033.92 -531.037 0 0 0 0.5 
226 1 1 3.90049 1.18528 7.73955 -28 0 0 -377.052 15.7437 -6.02536 -877.601 1218.3 -1485.73 0 0 0 0.5 
460 1 1 4.7116 4.27078 7.03325 1 0 0 -30.2916 -12.6294 5.99978 -2134.11 1597.41 -1167.74 0 0 0 0.5 
282 1 1 4.7772 0.710439 7.72103 49 1 -1 -407.954 11.5122 12.1644 748.604 -64.0514 -662.863 0 0 0 0.5 
448 1 1 1.94928 3.71416 7.93478 -4 0 0 -90.8063 -13.2437 -0.375053 -430.481 755.652 -765.075 0 0 0 0.5 
734 2 2 1.72758 3.81322 6.72369 -16 0 0 -100.568 5.71586 -11.9158 -116.367 1264.91 1739.63 0 0 0 0.5 
195 1 1 0.627562 1.48072 7.92986 -33 0 0 -341.99 -20.6819 6.35124 19.4126 510.28 10.7063 0 0 0 0.5 
67 1 1 2.32658 0.884971 6.93594 67 1 0 -403.702 -5.35081 17.3282 2458.75 -1974.28 -178.114 0 0 0 0.5 
565 2 2 2.66343 2.82562 7.28054 -11 0 0 -183.542 11.8915 27.4077 -64.607 -121.331 -151.182 0 0 0 0.5 
668 2 2 0.868015 2.32306 6.38165 -10 0 0 -272.601 -6.46908 -0.694468 -1139.92 300.077 263.794 0 0 0 0.5 
439 1 1 3.73241 3.69751 6.6847 -7 0 0 -115.935 5.08899 14.2135 -565.943 -1491.56 -1017.15 0 0 0 0.5 
152 1 1 3.28342 4.97511 6.0131 -4 0 0 11.7921 11.5609 -1.02789 142.942 1111.46 -291.343 0 0 0 0.5 
313 1 1 1.74375 1.24499 6.77388 -32 0 0 -385.459 3.91015 3.80587 -945.966 14.2388 -533.277 0 0 0 0.5 
259 1 1 0.884914 0.364438 6.20619 -31 0 -1 -456.082 17.5973 18.6816 -2653.65 -98.8777 -2789.64 0 0 0 0.5 
608 2 2 2.67808 3.4329 6.55636 -5 0 0 -134.297 2.31737 -1.94064 -1663.28 1132.45 -49.792 0 0 0 0.5 
237 1 1 3.42742 2.8212 6.69795 -9 0 0 -194.337 -11.469 2.16925 465.809 -326.593 -439.013 0 0 0 0.5 
564 2 2 3.81925 4.37527 6.18419 -2 0 0 -40.6577 11.7361 5.78271 1847.91 -2433.93 -31.4004 0 0 0 0.5 
250 1 1 0.870058 3.14512 6.06575 -7 0 0 -143.099 14.607 -22.5642 -591.928 -187.684 758.976 0 0 0 0.5 
241 1 1 0.0156404 2.89648 7.79111 76 1 0 -213.687 26.4779 -20.4821 -7.44095 360.858 87.0288 0 0 0 0.5 
424 1 1 1.96241 4.79019 6.7375 3 0 0 -14.2853 -17.1749 1.3527 -10.7244 -292.136 214.311 0 0 0 0.5 
263 1 1 1.52668 4.32817 7.51554 -9 0 0 -42.455 7.8686 -1.10825 1865.09 -770.802 -1715.66 0 0 0 0.5 
47 1 1 0.0808404 3.96666 6.63087 -25 0 0 -100.641 15.7117 -1.11278 21.5727 1126.69 -1016.57 0 0 0 0.5 
220 1 1 3.14334 1.83744 6.78033 65 1 0 -281.75 -16.3987 13.7087 495.615 149.516 -1186.92 0 0 0 0.5 
79 1 1 4.04501 0.463749 7.17367 -14 0 0 -419.365 -18.4338 19.6767 -199.438 -26.223 1797.19 0 0 0 0.5 
53 1 1 0.750707 4.68049 7.80215 5 0 0 11.013 3.01407 6.04507 -1963 1096.65 682.265 0 0 0 0.5 
327 1 1 0.323201 3.25912 7.06229 1 0 0 -155.444 1.13533 -10.6045 -1345.92 432.612 255.986 0 0 0 0.5 
727 2 2 4.08664 2.81229 7.93198 -33 0 0 -165.239 -26.982 17.2561 170.487 -560.566 -1504.05 0 0 0 0.5 
661 2 2 4.20969 2.8609 6.98719 -9 0 -1 -190.224 5.17083 -2.28247 961.328 -844.553 -59.218 0 0 0 0.5 
403 1 1 0.881776 3.73835 7.81968 5 0 -1 -47.7482 -18.0372 4.45112 -1178.98 6296.76 643.673 0 0 0 0.5 
288 1 1 2.80654 4.88041 6.95048 7 0 -1 9.36884 -7.37769 4.28246 998.328 -3022.26 -522.337 0 0 0 0.5 
278 1 1 4.19115 0.33455 6.3606 60 1 -1 -514.894 9.48603 6.7102 -625.518 -656.178 529.02 0 0 0 0.5 
524 2 2 4.08858 4.89472 7.61083 -13 0 0 -11.8372 -7.99293 -4.12115 475.356 -718.265 -904.779 0 0 0 0.5 
247 1 1 3.32493 0.124572 6.26401 -42 0 0 -515.381 9.87911 -6.29868 -2739.95 2772.68 1474.15 0 0 0 0.5 
384 1 1 4.96754 2.58391 6.8836 -26 0 0 -188.602 -3.08612 -20.1544 -1270.11 4043.01 -773.522 0 0 0 0.5 
896 2 2 4.92749 4.83399 7.88746 -1 0 -1 -5.89506 13.3175 11.5292 203.059 -1593.87 -29.3433 0 0 0 0.5 
771 2 2 3.99927 1.34811 6.00168 -30 0 -1 -343.862 11.5027 26.1191 -822.551 1701.29 1496.26 0 0 0 0.5 
232 1 1 3.29328 2.98959 8.33152 -13 0 0 -180.987 -5.56474 -9.85291 1307.38 35.8803 -156.639 0 0 0 0.5 
265 1 1 1.46895 1.68941 8.74812 -15 0 0 -269.707 -29.0026 -6.22781 723.371 -1035.66 426.282 0 0 0 0.5 
106 1 1 2.02268 3.60547 9.26489 -13 0 -1 -162.73 1.56229 6.08648 3452.06 -2162.61 1372.52 0 0 0 0.5 
786 2 2 3.16999 1.1439 8.33438 -36 0 1 -368.167 -8.91986 5.67871 -1579.65 1629.28 1352.15 0 0 0 0.5 
920 2 2 3.85975 0.927541 9.94691 -40 0 0 -389.532 25.1558 3.74662 3545.95 673.357 389.089 0 0 0 0.5 
795 2 2 1.67419 2.49113 8.03988 -40 0 -1 -257.13 2.8906 -0.125548 1123.47 -773.069 466.977 0 0 0 0.5 
258 1 1 2.39481 3.23786 8.4456 -25 0 0 -154.481 -9.53456 14.2637 31.2321 -1424.18 1968.32 0 0 0 0.5 
533 2 2 0.95916 1.9636 9.4367 77 1 -1 -272.517 -0.00933802 -5.62414 -360.191 358.866 -533.154 0 0 0 0.5 
205 1 1 1.28242 0.172082 8.14807 -59 0 -1 -458.405 15.803 -10.9168 0 0 0 0 0 0 0.5 
745 2 2 3.85968 4.20257 9.41094 4 0 0 -95.7312 6.10385 -9.25819 426.635 1879.31 -290.805 0 0 0 0.5 
865 2 2 1.04474 2.88997 9.00127 -21 0 -1 -200.456 11.737 -11.185 1184.68 -1443.98 -443.174 0 0 0 0.5 
819 2 2 2.08601 2.7538 9.87787 -12 0 0 -226.016 11.8839 -23.0542 -205.814 -989.554 -854.747 0 0 0 0.5 
495 1 1 2.23919 1.89343 8.3601 -19 0 0 -263.299 -11.7333 -5.52572 256.473 -652.54 1593.96 0 0 0 0.5 
766 2 2 0.818022 2.16047 8.45085 -15 0 0 -256.237 -2.28325 3.01221 591.183 -750.871 -442.278 0 0 0 0.5 
563 2 2 3.9415 3.79707 8.42823 -5 0 0 -131.14 -16.2032 0.187888 -2168.62 1550.3 110.676 0 0 0 0.5 
619 2 2 4.59287 3.4322 8.60429 -7 0 0 -144.88 -2.96266 15.5999 117.47 -1257.64 13.7967 0 0 0 0.5 
826 2 2 4.65573 1.6686 9.61388 55 1 -1 -314.13 2.54222 -1.42713 -792.702 1965.9 211.618 0 0 0 0.5 
840 2 2 2.50324 4.45151 9.2164 -6 0 0 -39.2424 -2.35934 12.0985 477.419 -4658.65 726.357 0 0 0 0.5 
139 1 1 0.460699 2.91394 9.58969 -9 0 0 -196.396 0.201767 14.2019 2627.93 -1512.9 1588.73 0 0 0 0.5 
293 1 1 1.89825 1.67211 9.66108 -40 0 -1 -264.238 -18.1959 -6.77078 -3124.99 -251.274 1795.79 0 0 0 0.5 
11 1 1 0.265827 2.62524 8.41101 -15 0 -1 -254.512 20.2543 29.0098 -1248.28 951.576 892.774 0 0 0 0.5 
467 1 1 3.26394 2.04081 8.19129 76 1 0 -270.312 -4.41149 20.9223 73.28 -324.308 -50.786 0 0 0 0.5 
190 1 1 2.64451 4.2404 8.40736 -17 0 0 -92.9389 20.7186 -11.7426 -169.013 -541.388 -1291.48 0 0 0 0.5 
928 2 2 1.82232 4.30915 9.90845 -5 0 -1 -55.5706 -13.8282 4.31135 -394.276 2378.75 841.516 0 0 0 0.5 
311 1 1 4.11746 4.58881 8.48558 3 0 0 -27.9028 -9.95148 -0.441534 197.895 -1967.72 -408.272 0 0 0 0.5 
842 2 2 3.34118 0.740538 9.32451 -23 0 0 -382.114 -8.85525 -18.8851 -3003.2 3430.43 1541.69 0 0 0 0.5 
950 2 2 4.84239 4.86011 8.84329 9 0 -1 -36.3408 33.8875 14.0243 1904.64 832.325 -2665.01 0 0 0 0.5 
310 1 1 -0.0149953 4.07004 9.7279 -9 0 0 -82.9682 -0.0960835 -6.27906 783.191 -362.768 378.096 0 0 0 0.5 
372 1 1 3.89004 1.09169 8.58998 -23 0 0 -372.16 -3.07852 -8.93248 546.042 -666.521 708.149 0 0 0 0.5 
116 1 1 1.65788 4.25861 8.7114 -3 0 0 -56.2893 -26.1996 24.0597 190.757 994.628 -3788.48 0 0 0 0.5 
990 2 2 1.60518 4.97784 8.17453 1 0 -1 22.731 -5.98722 4.28737 1637.34 -2692.68 307.657 0 0 0 0.5 
120 1 1 4.53953 1.08414 9.04365 -38 0 -1 -373.99 -9.88982 -23.6624 2941.57 -1481.27 798.522 0 0 0 0.5 
413 1 1 0.674623 3.6554 8.77078 -26 0 -1 -158.572 28.914 -6.29699 2821.74 867.651 279.999 0 0 0 0.5 
480 1 1 3.93964 1.8142 9.18432 -17 0 0 -311.724 -2.18459 -5.01222 -821.24 -1298.29 -771.539 0 0 0 0.5 
531 2 2 3.99528 3.4484 9.9405 -20 0 -1 -155.698 -8.48101 -20.0529 -1706.61 812.226 -762.873 0 0 0 0.5 
34 1 1 3.25753 0.214409 8.21586 64 1 0 -445.927 5.10981 -15.2507 -5171.11 329.423 -656.605 0 0 0 0.5 
612 2 2 1.10529 4.91746 8.97928 5 0 0 2.45626 -22.4896 -3.6696 -1824.15 2074.21 1257.78 0 0 0 0.5 
839 2 2 4.53703 2.50207 8.7669 -21 0 0 -204.438 -24.1739 4.69106 -243.97 10.9657 -358.811 0 0 0 0.5 
877 2 2 0.0684205 0.625253 8.19123 67 1 0 -494.672 -5.02461 35.5985 2507.02 -3076.98 -1872.56 0 0 0 0.5 
662 2 2 3.08015 3.42742 9.1701 -8 0 0 -178.107 20.1226 -23.1671 74.3412 -127.892 469.6 0 0 0 0.5 
935 2 2 3.51442 2.61503 9.29356 -9 0 0 -195.214 -6.55171 10.8109 -1950.58 3671.5 411.583 0 0 0 0.5 
406 1 1 2.72969 1.73896 9.18329 -25 0 0 -317.524 -10.1827 24.111 3357.42 -197.742 -2165.99 0 0 0 0.5 
46 1 1 3.6985 0.248029 8.97863 49 1 0 -486.647 4.43767 -15.6363 3794.03 -3454.35 -1264.4 0 0 0 0.5 
597 2 2 2.96637 1.16119 9.93658 -17 0 0 -314.137 -15.8415 26.2694 -5701.53 1778.01 1096.48 0 0 0 0.5 
399 1 1 3.72917 0.0137739 8.03446 -31 0 -1 -447.303 13.1894 -11.9459 2137.09 1287.18 -1048.02 0 0 0 0.5 
798 2 2 1.70524 9.18948 1.35928 -42 -1 0 430.722 6.40869 33.2581 -735.022 -524.08 -467.6 0 0 0 0.5 
407 1 1 4.77351 6.72697 0.732925 14 0 0 157.965 -1.10175 -12.3268 384.261 1181.41 1551.76 0 0 0 0.5 
605 2 2 2.76545 5.93207 1.44412 6 0 0 85.6578 15.6671 -0.0190409 2576.95 -3298.86 1451.99 0 0 0 0.5 
285 1 1 3.92203 8.40231 0.364989 46 0 0 355.956 -14.6095 18.9083 -1371.46 603.936 -220.268 0 0 0 0.5 
739 2 2 4.36143 5.80791 0.949871 3 0 1 73.6229 -26.9258 -24.9029 790.525 -1209.18 1147.77 0 0 0 0.5 
791 2 2 3.21107 7.68855 1.6028 11 0 0 238.24 28.5778 0.840009 4679.1 -3743.74 -3031.69 0 0 0 0.5 
199 1 1 3.27583 9.00197 1.6225 -81 -1 0 464.225 -14.7769 -12.6178 -2339.4 543.881 -126.008 0 0 0 0.5 
625 2 2 4.32973 5.90552 0.0160051 5 0 0 53.7733 -5.63243 4.18112 -336.939 -556.595 -2173.18 0 0 0 0.5 
663 2 2 3.03951 6.8697 1.93048 17 0 1 159.812 15.2521 -5.08875 191.676 1301.56 -844.544 0 0 0 0.5 
578 2 2 1.44007 7.49699 0.614943 21 0 0 288.528 -22.8953 -11.8335 -2694.12 -356.978 530.428 0 0 0 0.5 
362 1 1 1.18283 6.57934 0.658286 -13 0 0 145.657 13.7759 16.9551 401.362 -867.484 819.683 0 0 0 0.5 
37 1 1 3.17542 6.87602 0.992191 -83 -1 0 167.087 12.5857 -6.07513 -834.479 462.985 -160.464 0 0 0 0.5 
423 1 1 0.0324325 9.85581 1.6782 -42 -1 0 457.72 -2.27083 -17.5061 -13674.6 -400.923 -16599.9 0 0 0 0.5 
866 2 2 3.40925 5.61919 0.756596 3 0 0 76.3165 -4.04975 3.91925 -663.464 -202.082 -363.402 0 0 0 0.5 
17 1 1 1.34544 9.09899 0.517321 -34 -1 1 445.803 1.81702 12.1073 -2850.93 2043.43 -1296.61 0 0 0 0.5 
302 1 1 2.69391 8.7923 0.438615 40 0 1 389.078 14.9795 -9.31431 3202.46 -1419.09 2538.59 0 0 0 0.5 
63 1 1 2.28593 7.28679 0.350821 23 0 0 248.273 8.60599 2.11236 2146.23 1496.43 -826.888 0 0 0 0.5 
160 1 1 4.2003 7.60466 1.54065 28 0 0 228.871 -0.342747 -0.349253 -515.955 339.594 -341.448 0 0 0 0.5 
685 2 2 2.73588 6.58507 0.104833 11 0 1 168.357 -4.82047 -10.3284 5.53702 -326.992 -22.7189 0 0 0 0.5 
390 1 1 0.564663 7.16451 1.60937 10 0 0 244.401 -20.8218 -17.8786 -240.361 -1004.01 -1112.49 0 0 0 0.5 
3 1 1 1.8314 8.47419 0.832308 34 0 1 375.399 -5.2157 -15.5508 -530.001 -78.0377 316.732 0 0 0 0.5 
248 1 1 1.2317 8.24331 0.290578 -73 -1 1 348.682 -13.9003 -17.2471 -923.561 2740.86 297.199 0 0 0 0.5 
885 2 2 2.23286 5.73104 0.651484 4 0 0 92.7432 -21.8187 -3.04218 249.284 -867.796 570.111 0 0 0 0.5 
328 1 1 1.5236 5.74402 1.29211 -1 0 0 86.7956 -19.863 -15.0389 545.048 -860.744 -63.9712 0 0 0 0.5 
788 2 2 2.2604 6.56588 0.91558 19 0 0 171.754 -16.7168 -1.65729 -2110.54 3089.39 -2150.05 0 0 0 0.5 
309 1 1 2.16412 6.72075 1.85915 17 0 0 166.104 -0.89002 -3.08143 1831.53 -4339.85 563.323 0 0 0 0.5 
292 1 1 1.32848 5.77012 0.364982 -81 -1 0 90.925 -30.5193 -15.8983 -388.348 -828.629 1954.13 0 0 0 0.5 
60 1 1 0.194127 5.63301 0.516568 2 0 1 68.2173 -8.44801 4.69034 90.001 14.6905 -2521.67 0 0 0 0.5 
419 1 1 2.07813 8.11871 1.47349 13 0 0 339.888 -7.189 4.57567 7.56779 1821.55 415.455 0 0 0 0.5 
763 2 2 0.515078 5.74762 1.33285 4 0 1 77.4319 3.88502 18.9418 70.0902 -100.946 160.632 0 0 0 0.5 
709 2 2 1.43842 7.2855 1.48106 35 0 1 248.485 4.85622 -7.9572 -2195.17 821.5 -901.087 0 0 0 0.5 
810 2 2 1.2662 6.40692 1.69881 29 0 0 158.905 -8.21855 2.25672 266.062 1647.38 -1542.78 0 0 0 0.5 
108 1 1 4.18252 9.93382 1.57565 -25 -1 1 502.435 -9.55649 13.5496 -2332.27 -311.019 891.269 0 0 0 0.5 
960 2 2 4.22385 8.82108 1.76355 47 0 1 403.461 -30.2011 -5.13568 1627.02 455.881 1315.15 0 0 0 0.5 
83 1 1 2.55565 9.27853 1.57296 36 0 1 443.792 9.3677 4.97372 -3.67531 369.914 102.059 0 0 0 0.5 
88 1 1 2.58223 8.05217 0.865301 11 0 1 345.648 -8.15253 -15.0961 2769.74 -2082.9 -409.848 0 0 0 0.5 
535 2 2 1.9903 9.08112 0.0197817 47 0 1 450.61 -0.103317 -19.4091 -3091.68 1301.62 -1739.23 0 0 0 0.5 
614 2 2 1.3176 8.25976 1.76282 22 0 1 356.344 -10.0943 19.7603 -2110.46 391.4 802.877 0 0 0 0.5 
337 1 1 3.64724 9.48077 0.810278 49 0 0 472.423 -2.15049 18.4222 63.2167 -184.955 -451.018 0 0 0 0.5 
699 2 2 3.92687 7.595 0.471035 11 0 0 251.589 -13.3405 -0.909507 78.1872 -2293.71 777.048 0 0 0 0.5 
165 1 1 0.26632 7.43357 0.796769 32 0 0 263.829 -7.66693 -19.043 -333.054 300.368 -907.148 0 0 0 0.5 
904 2 2 3.98801 6.55029 1.28788 13 0 0 153.688 -5.07445 12.1567 823.574 773.703 297.857 0 0 0 0.5 
812 2 2 2.23583 7.33236 1.32186 16 0 1 263.207 7.17676 -1.05701 2078.67 -1505.82 -1262.67 0 0 0 0.5 
622 2 2 3.62203 6.61545 0.267568 3 0 0 172.071 -7.75457 -7.50004 -1096.04 -452.043 997.385 0 0 0 0.5 
655 2 2 4.67256 9.36032 0.510473 -72 -1 1 443.638 7.32854 -31.8467 266.514 257.934 -296.183 0 0 0 0.5 
301 1 1 4.72687 8.47199 0.604857 40 0 0 358.04 -11.9717 10.485 210.194 -496.775 -882.842 0 0 0 0.5 
599 2 2 4.83368 5.01313 0.254205 3 0 0 -17.3517 26.1603 23.6613 -1067.7 -1786.56 814.908 0 0 0 0.5 
969 2 2 4.83568 7.41933 0.043829 28 0 0 249.666 -12.3216 6.0027 -1515.81 -487.951 -960.772 0 0 0 0.5 
85 1 1 4.8388 9.74047 1.5552 34 0 1 508.16 -0.481818 -13.3253 547.322 1038.15 -1682.64 0 0 0 0.5 
435 1 1 4.86064 6.05727 1.53858 2 0 0 78.2479 21.9793 -20.4169 -672.336 51.6945 -938.357 0 0 0 0.5 
289 1 1 0.0115224 9.57989 3.82972 -60 -1 -1 506.094 -11.8359 -8.84678 572.562 429.934 -507.388 0 0 0 0.5 
593 2 2 3.63657 6.5213 2.39766 8 0 1 147.357 -0.10016 -1.69873 -914.401 -1247.75 2069.09 0 0 0 0.5 
515 2 2 4.3827 9.17263 2.63169 -55 -1 0 446.806 -13.7151 -2.45024 -1555.75 923.226 94.4564 0 0 0 0.5 
61 1 1 1.15223 9.83253 2.38447 -56 -1 1 487.508 -4.18698 -13.8228 80.721 -402.338 -154.552 0 0 0 0.5 
357 1 1 1.10059 7.14822 2.26635 -49 -1 1 229.748 0.318816 -18.2166 -2576.23 -772.677 649.156 0 0 0 0.5 