# vtk DataFile Version 4.2
Generated by LIGGGHTS
ASCII
DATASET POLYDATA
POINTS 1000 float
1.72023 2.47913 1.10213 0.988904 3.61362 1.95616 2.28337 0.236692 0.67794 
2.18473 3.53705 0.0468791 0.796776 3.23 1.1032 2.72084 4.44933 0.0833031 
4.17213 4.73386 0.445167 2.55993 0.991034 0.16183 1.07903 0.152789 0.36339 
0.416927 0.745228 0.295735 1.44458 2.00973 0.283984 4.00492 4.31487 1.5966 
0.246898 4.85801 1.64675 1.45182 3.09798 1.61657 4.60473 4.10967 0.926084 
4.5254 3.12509 1.55874 1.37641 1.27256 1.94595 1.34673 0.873042 0.97774 
1.98382 1.5353 0.42527 0.684631 1.24771 1.11053 0.958819 2.69546 0.513585 
0.656417 0.305578 1.90222 3.68203 3.3462 0.585363 0.062113 2.43032 0.498342 
1.96558 0.702381 1.43098 3.17562 0.45082 0.0598281 2.21469 4.80334 0.868945 
4.45245 2.13716 0.338612 2.79121 0.622665 1.4578 2.8883 3.18725 0.186557 
1.72623 4.44159 1.84256 0.0131613 4.47846 0.561469 0.185422 3.34805 1.89022 
4.60081 0.946256 1.62277 4.04787 0.343761 0.0681948 3.43403 1.96836 0.373573 
4.66047 1.04548 0.611816 0.737907 4.24859 1.31275 3.34412 4.38048 1.01166 
4.12489 2.61093 0.848801 0.469048 3.73235 0.384084 2.6842 3.45494 1.50508 
3.80557 0.339345 1.00298 3.83169 1.25468 0.747584 4.02187 1.45292 1.69495 
3.85058 4.84693 3.38904 2.07245 0.27915 2.15591 2.10217 0.979787 2.93184 
4.21571 2.23306 3.07184 4.62218 0.514492 2.58434 0.509706 0.346326 3.86797 
2.58738 0.234966 2.71825 2.42521 3.46159 3.58887 2.9749 4.54033 2.16776 
0.468208 1.25716 3.75987 1.29099 1.09757 2.96071 1.72482 3.25912 2.46441 
2.25408 0.880722 3.94381 4.05779 3.90724 3.95082 1.73578 2.33559 2.14637 
4.84342 3.2995 2.59676 0.810504 1.74164 2.84428 4.55114 4.23696 2.75072 
2.59968 3.40001 2.70404 1.70491 3.16662 3.36459 2.72708 2.56602 2.7345 
0.176427 2.52953 2.28608 2.59764 4.27336 3.05825 4.16415 4.97158 2.63175 
0.295487 1.08453 2.0081 1.90743 1.97104 3.44021 0.882224 0.204652 2.83112 
0.98573 3.57209 2.89736 1.76682 4.17366 3.62989 3.78239 3.24131 3.20474 
3.369 3.87283 2.19784 3.71712 0.910867 3.39791 2.51845 1.83994 3.76424 
4.05092 3.39959 2.26968 4.79681 1.40451 2.80441 3.43485 2.17843 2.94615 
3.40484 4.27498 3.97374 4.10893 2.47124 3.86323 4.12434 1.68906 2.49924 
0.249839 3.86929 3.45777 2.89765 1.1342 3.24313 0.681035 4.38518 2.47506 
0.131437 4.72697 3.6456 4.96964 2.56029 2.30925 2.58531 4.16128 4.95032 
2.09813 0.58834 5.134 1.24149 0.786598 5.90979 3.89799 1.17763 4.2573 
4.84405 0.544107 5.91752 2.50074 2.29457 4.63808 1.72367 4.12647 5.24645 
2.07945 1.64766 5.44403 2.6483 3.41497 4.3992 3.91407 1.7874 4.86332 
2.67649 1.37579 5.41272 1.6712 2.41888 5.10957 1.81775 3.31396 4.35958 
0.879368 1.45887 4.71614 3.33341 3.44402 4.52727 0.776491 2.60725 4.85186 
1.1568 0.605294 4.95891 2.70581 0.786887 5.92654 2.92688 0.768237 4.59932 
3.2851 2.57047 4.14882 1.68715 1.29878 4.29214 2.16284 3.57838 5.88642 
3.67112 1.74225 5.85098 2.73474 3.33118 5.33165 3.1985 3.03908 5.90304 
2.1288 0.0720997 4.1533 0.233969 4.19852 5.74813 4.08371 3.38978 4.73145 
3.14605 0.237849 5.14689 3.35925 4.79863 5.53028 4.39236 2.87277 5.08509 
3.04925 2.14522 5.90563 4.68512 0.0244014 5.28304 3.20065 2.66517 5.08726 
1.15925 3.78292 4.59148 3.23293 1.84154 4.74094 1.97727 2.62807 4.0383 
2.60949 4.40732 4.03877 4.50093 4.79434 5.65383 3.56202 0.302343 4.08271 
4.40321 1.50788 5.36893 4.34983 4.21783 4.86002 3.85058 4.97567 4.7311 
4.71303 1.96936 4.42424 4.66444 3.25225 4.02689 4.1777 0.867412 5.99288 
4.74794 3.98352 5.74194 4.83014 4.96138 4.37311 4.90064 0.940741 5.012 
0.588098 2.09667 5.99832 4.03937 3.18314 6.20687 2.97885 3.62922 6.46837 
2.77316 0.418815 6.95732 2.49482 1.08168 7.43555 0.342881 1.92913 7.74757 
0.470604 3.26485 6.27721 4.59315 3.18331 7.86407 1.92903 3.67816 6.9425 
1.48129 4.31905 7.28266 0.346498 1.14511 7.97496 1.32756 1.80224 6.96194 
0.384927 2.57653 7.01685 1.15523 0.86342 7.86555 1.06745 3.39532 7.41433 
2.4512 2.66863 7.05619 3.83041 4.55939 6.86273 1.64719 4.16139 6.20101 
1.80615 0.389442 7.90644 4.63337 2.29542 7.2301 2.18625 1.58554 6.65095 
1.38499 2.57962 6.01083 2.47148 1.78213 7.72828 4.69188 0.194424 7.86928 
4.25107 1.00144 7.46902 1.36246 2.68171 6.99952 1.98589 3.36229 7.85772 
0.411613 1.63715 6.80751 2.81494 3.71135 7.38763 3.77012 3.70973 6.97965 
4.3872 4.61065 7.60651 3.7892 1.64021 7.902 2.51142 4.37706 6.44182 
3.81615 2.71115 7.10495 3.70301 0.635327 6.64653 4.41913 1.61881 6.45521 
3.15663 1.49228 6.77872 4.4106 2.50358 6.30517 3.3853 0.0944609 7.7004 
4.22819 0.266679 7.17498 1.43976 4.95764 6.26936 0.608527 4.13924 7.72932 
2.98777 3.00712 7.98812 0.12554 3.26822 7.45972 2.23006 0.850303 9.25489 
1.68706 2.6024 9.12366 0.673509 2.08752 8.88878 1.58821 0.24885 9.68835 
0.621575 2.88037 8.23162 0.906212 2.38866 9.68619 0.651905 3.07553 9.24061 
1.67286 1.57469 9.2703 4.27457 4.21995 9.06024 4.11105 1.71048 8.84386 
2.67669 2.66979 8.89402 2.31336 2.32395 9.8505 3.79261 0.842571 9.30954 
1.15518 2.22067 8.10912 4.32647 0.551445 8.46254 1.82348 3.91919 9.08892 
1.28864 3.45693 9.98841 3.54902 0.0054052 9.11166 0.725732 0.813277 8.80357 
0.704318 1.444 9.61993 3.6124 3.40732 9.6062 3.28631 3.57956 8.81296 
2.06831 4.63032 8.38396 1.2723 3.77057 8.29948 3.48256 1.37074 9.79827 
1.81913 4.55987 9.91735 4.89327 2.5431 8.18672 1.30734 4.69834 9.071 
4.11851 2.5619 9.56268 3.63079 4.35692 9.5165 0.40811 4.80099 9.10494 
4.35868 0.191815 9.20594 2.74589 4.06482 9.18171 4.80306 3.73733 8.69147 
3.5791 2.51011 8.64137 3.56298 4.43039 8.15055 3.94266 3.6386 8.24208 
2.02835 2.31955 8.01175 0.465527 3.82626 8.7593 2.70656 1.0306 8.39902 
3.21749 2.42982 9.57995 4.70161 1.53921 9.75766 4.72505 4.3176 9.93441 
1.27812 9.70866 1.5648 3.16478 7.38079 0.85196 0.581982 8.55213 1.89649 
4.05081 5.29695 1.03357 3.32025 9.61559 0.350674 4.51225 8.54172 1.58578 
1.60449 9.45093 0.24553 3.10537 8.02109 1.65146 2.33199 5.47724 1.59845 
4.16283 5.29681 1.908 2.84179 9.85283 0.912102 4.0626 6.7611 1.15326 
3.07433 8.96087 0.851714 0.831535 8.8784 0.723207 2.9855 6.48355 1.12461 
0.286688 9.4227 0.605708 3.83951 5.7023 0.18772 4.20442 9.73231 1.42217 
4.42894 9.9275 0.509709 4.06966 7.98554 0.258607 0.0669104 8.68883 1.27641 
4.10168 7.53086 0.787111 3.83236 7.49282 1.65469 0.943337 7.13517 0.958959 
3.54798 5.93797 1.0654 1.75343 7.67572 1.99182 2.20521 9.11638 0.68831 
1.19287 5.61389 1.37658 0.5424 8.0177 0.755902 2.39553 8.8742 1.66922 
2.01 6.51302 0.775484 1.54824 8.94432 1.24508 0.221905 7.05172 0.433507 
0.908523 6.81787 1.99807 3.9197 8.72716 0.158211 0.776869 5.84837 0.479446 
1.32831 5.04442 0.679745 2.01924 7.71578 0.290268 1.72209 6.78063 1.89703 
2.2935 8.4926 0.208961 2.25572 5.90437 0.222679 2.21706 6.32743 1.73352 
2.007 7.9174 1.1355 2.88244 8.09551 0.683952 2.85726 6.93851 0.0376453 
3.57927 6.8186 0.389854 4.66511 5.76716 0.384457 4.74076 9.39705 1.1431 
4.74522 7.56448 1.40629 4.88272 8.8098 0.686832 4.93129 5.51552 1.3062 
0.0639836 7.96573 2.47823 3.73982 7.12803 3.02178 4.49646 9.7287 2.52632 
0.228248 8.80401 2.90456 1.11124 9.59308 3.25041 2.85102 5.1383 3.51988 
0.401004 8.29886 3.69643 3.53462 5.69279 2.99706 3.87713 8.04585 2.78762 
2.19404 8.92093 3.6289 4.4231 7.21934 3.48381 3.16204 8.73587 2.67023 
3.12496 7.22746 2.20091 0.189255 9.42105 2.11841 1.11445 8.73848 3.08969 
2.92734 6.32511 3.26005 1.13904 7.10386 3.98678 3.64529 6.62664 2.16191 
0.966617 9.33021 2.37361 2.77615 7.71968 2.74591 3.18737 7.44193 3.78315 
1.61357 8.79779 2.22173 2.45858 9.92957 3.58837 0.654532 7.05881 3.11837 
3.43753 8.41599 3.56652 1.63779 6.0772 2.58148 1.93126 8.18257 2.78508 
2.56993 8.31308 3.33289 4.80089 8.13245 2.21852 1.46898 5.01819 3.04764 
0.88655 7.87078 3.0408 2.21205 5.5077 2.8584 4.61978 6.11929 2.22186 
1.62024 7.92933 3.76481 0.62314 5.68999 2.07923 0.760808 5.48053 3.18992 
0.0879842 7.01699 2.3149 1.77189 6.61416 3.33118 0.887512 6.19102 3.74469 
1.4812 7.22435 3.27693 3.74339 9.52911 2.09536 2.87247 5.3266 2.41021 
0.762303 6.31283 2.78632 4.23221 6.45066 2.66888 1.34157 8.54801 3.97618 
4.83656 9.36454 2.02801 3.05472 9.97918 2.01087 2.17028 5.54681 3.87818 
2.60475 9.38136 2.86123 4.88311 7.12297 2.21717 4.28611 9.93919 4.37084 
0.356471 9.71749 4.49485 4.66824 6.83456 4.18034 1.34296 9.19017 5.97207 
1.40042 9.34237 4.12517 1.10514 9.23117 5.02266 0.0942549 9.84968 5.83034 
3.02735 8.90412 4.11519 0.554817 8.84088 4.35353 3.70015 6.82891 4.13267 
2.75298 8.65493 5.43359 2.1712 9.82058 5.12167 0.450355 7.48936 4.01297 
3.0068 5.58818 5.52575 2.49379 7.45021 4.67625 0.48967 8.93621 5.73074 
4.51963 5.54142 5.13221 3.40567 9.87414 5.83366 3.57171 8.76272 4.51151 
2.50171 8.12175 4.23399 4.63787 9.28017 4.92999 0.258093 5.18826 5.02319 
4.07864 6.32464 4.89132 1.52536 6.61445 5.10399 3.62955 8.16798 5.99847 
4.49609 7.73925 5.19683 3.17188 7.33805 5.80916 1.07622 8.33771 5.11886 
1.06395 7.49901 4.809 1.9928 8.25001 4.94983 2.63271 7.82945 5.50724 
2.04748 6.02499 5.34242 2.10807 9.11551 4.75807 1.45894 7.02929 5.90586 
1.56501 8.56549 5.81818 0.530491 6.00823 5.47494 2.27387 7.02678 5.9067 
2.43973 9.27158 5.71587 -0.0601928 6.34485 4.98101 3.75795 8.85987 5.37463 
3.73745 7.98173 4.97066 0.684915 7.69556 5.68978 4.25996 5.53564 4.01629 
1.64898 7.8202 5.73905 3.08237 5.48553 4.61851 1.5318 5.8023 4.60525 
0.837195 6.49456 4.61573 0.0040115 7.20625 4.81361 1.88506 6.81958 4.22006 
0.701089 6.86309 5.64242 2.94973 6.95295 4.70574 2.90091 9.56818 4.17038 
3.20132 9.39667 5.01131 3.31865 6.6418 5.1809 4.92524 7.09647 4.93793 
0.0202162 8.13362 7.84796 0.0727076 7.77507 7.01223 3.78481 5.17312 6.25631 
3.00469 9.18922 6.42024 3.53062 5.14878 7.49808 2.15883 9.9549 6.12835 
2.82552 8.62035 7.1231 2.89092 7.80841 6.44155 3.99464 9.44785 6.98755 
3.20652 6.70595 7.29022 0.977824 7.27064 7.81679 4.48177 9.24656 7.73753 
4.67939 5.49683 7.16614 1.72422 8.64828 7.4445 3.3059 6.43816 6.027 
3.48558 8.23039 7.58329 2.99247 5.86915 7.55711 2.55405 6.88461 6.81025 
1.94962 5.6753 7.57513 0.743814 9.04709 7.23599 3.2651 7.39801 7.86238 
4.29438 7.18479 6.42482 3.24715 9.20336 7.81246 3.12505 5.61851 6.60336 
[...]
POINT_DATA 1000
FIELD FieldData 7
id 1 1000 int
254 41 708 374 768 155 317 22 968 
120 284 67 691 731 161 91 958 966 
769 711 626 762 539 208 503 761 149 
568 181 912 860 911 21 809 210 581 
930 527 218 656 214 416 952 857 579 
871 450 598 593 130 288 785 488 195 
763 426 266 172 816 812 312 828 850 
921 459 989 247 540 405 603 506 19 
153 792 896 644 833 78 530 913 400 
501 674 333 406 940 944 591 364 35 
619 290 909 337 995 971 7 826 251 
10 647 951 278 356 481 612 338 629 
572 270 919 390 12 42 523 486 282 
848 371 957 983 295 544 931 185 939 
234 220 982 747 154 342 844 222 754 
845 893 524 211 959 393 645 17 249 
93 441 113 827 233 260 987 565 375 
748 586 460 726 865 660 580 980 773 
941 132 926 705 318 922 764 157 292 
932 780 95 639 345 291 239 484 281 
348 84 322 162 861 559 252 165 311 
887 264 502 410 868 521 988 899 607 
778 173 756 483 904 11 843 257 722 
993 33 547 863 268 882 372 582 978 
721 766 880 640 196 16 795 740 427 
715 997 576 889 28 325 543 112 839 
144 637 755 45 677 279 66 858 183 
368 152 425 235 26 462 772 727 916 
209 212 701 779 141 349 489 670 411 
924 679 841 680 18 563 412 832 419 
304 87 20 194 118 864 574 707 191 
942 514 76 873 685 837 811 885 29 
302 925 655 950 230 627 395 63 261 
275 548 435 657 75 334 996 856 243 
398 732 384 143 340 477 83 571 602 
100 300 409 723 151 729 583 443 344 
855 634 267 745 653 897 110 500 777 
133 712 800 799 224 475 991 174 456 
814 97 490 535 829 531 564 85 512 
54 933 71 818 81 558 974 874 158 
44 532 757 703 522 8 324 448 351 
553 631 600 669 255 497 716 145 164 
227 676 943 89 528 245 937 496 688 
698 271 709 365 381 225 511 355 305 
693 328 730 447 643 236 507 417 306 
791 470 706 917 834 650 796 72 423 
594 491 142 793 546 662 70 422 256 
69 838 262 223 892 641 981 945 797 
776 649 903 326 188 192 554 615 914 
105 735 960 635 303 202 386 668 589 
297 719 32 813 934 13 437 116 976 
219 129 824 651 137 379 30 736 315 
879 46 127 397 775 452 973 135 187 
878 369 25 541 39 853 126 744 819 
984 361 354 851 108 186 999 876 542 
654 454 147 440 713 975 770 562 956 
569 480 301 293 690 205 3 420 392 
947 794 765 699 787 350 226 138 177 
482 621 446 104 391 846 689 549 216 
566 1000 908 439 389 307 56 269 51 
875 895 428 193 620 557 394 336 741 
808 263 62 666 148 248 232 96 180 
918 464 499 339 327 751 760 207 625 
870 513 835 526 90 877 189 831 771 
415 413 962 478 702 182 782 789 606 
803 358 231 88 197 658 742 842 273 
228 190 65 414 367 217 495 665 661 
82 131 907 509 347 823 79 332 399 
418 492 258 352 552 890 551 346 592 
445 556 55 280 6 320 285 86 466 
806 821 798 101 786 575 203 309 550 
624 61 64 58 609 373 616 759 694 
134 40 487 308 687 927 590 529 1 
431 596 24 614 910 510 667 783 938 
115 31 253 353 408 201 961 140 283 
433 862 955 5 204 613 468 608 485 
886 74 737 200 611 697 169 516 935 
383 287 788 720 121 403 139 378 733 
700 421 717 23 743 298 331 314 746 
652 675 241 671 198 159 102 237 498 
168 465 840 533 125 2 310 329 150 
430 648 573 767 949 810 9 929 555 
98 954 163 316 199 753 136 577 977 
804 167 106 646 321 891 905 438 4 
277 80 638 341 683 704 724 597 738 
920 73 849 170 750 774 692 972 696 
60 948 538 467 259 47 458 758 817 
902 213 401 545 27 49 852 429 472 
752 883 286 109 928 171 265 986 323 
455 953 588 34 404 820 461 628 240 
215 536 160 633 963 176 617 967 802 
663 493 442 206 387 825 449 14 114 
444 642 664 739 111 250 534 274 473 
847 587 380 396 994 179 117 479 906 
560 385 518 923 38 476 299 178 94 
630 146 990 432 672 370 59 156 969 
964 682 695 124 43 238 867 434 599 
859 884 335 515 866 122 221 407 872 
53 622 451 319 781 836 469 718 505 
504 244 985 610 294 801 107 313 366 
402 659 289 604 901 570 92 166 584 
869 50 388 714 888 992 376 601 15 
678 48 686 463 537 436 965 815 749 
184 673 725 519 99 360 175 103 822 
123 936 517 898 979 68 900 363 915 
734 585 632 970 508 474 57 525 382 
520 128 561 229 567 359 246 242 807 
618 805 37 77 424 119 623 684 362 
296 453 710 605 728 830 343 330 377 
578 636 854 471 457 357 272 894 784 
881 946 276 494 790 681 36 998 52 
595 
type 1 1000 int
1 1 2 1 2 1 1 1 2 
1 1 1 2 2 1 1 2 2 
2 2 2 2 2 1 2 2 1 
2 1 2 2 2 1 2 1 2 
2 2 1 2 1 1 2 2 2 
2 1 2 2 1 1 2 1 1 
2 1 1 1 2 2 1 2 2 
2 1 2 1 2 1 2 2 1 
1 2 2 2 2 1 2 2 1 
2 2 1 1 2 2 2 1 1 
2 1 2 1 2 2 1 2 1 
1 2 2 1 1 1 2 1 2 
2 1 2 1 1 1 2 1 1 
2 1 2 2 1 2 2 1 2 
1 1 2 2 1 1 2 1 2 
2 2 2 1 2 1 2 1 1 
1 1 1 2 1 1 2 2 1 
2 2 1 2 2 2 2 2 2 
2 1 2 2 1 2 2 1 1 
2 2 1 2 1 1 1 1 1 
1 1 1 1 2 2 1 1 1 
2 1 2 1 2 2 2 2 2 
2 1 2 1 2 1 2 1 2 
2 1 2 2 1 2 1 2 2 
2 2 2 2 1 1 2 2 1 
2 2 2 2 1 1 2 1 2 
1 2 2 1 2 1 1 2 1 
1 1 1 1 1 1 2 2 2 
1 1 2 2 1 1 1 2 1 
2 2 2 2 1 2 1 2 1 
1 1 1 1 1 2 2 2 1 
2 2 1 2 2 2 2 2 1 
1 2 2 2 1 2 1 1 1 
1 2 1 2 1 1 2 2 1 
1 2 1 1 1 1 1 2 2 
1 1 1 2 1 2 2 1 1 
2 2 1 2 2 2 1 1 2 
1 2 2 2 1 1 2 1 1 
2 1 1 2 2 2 2 1 2 
1 2 1 2 1 2 2 2 1 
1 2 2 2 2 1 1 1 1 
2 2 2 2 1 1 2 1 1 
1 2 2 1 2 1 2 1 2 
2 1 2 1 1 1 2 1 1 
2 1 2 1 2 1 2 1 1 
2 1 2 2 2 2 2 1 1 
2 1 1 2 2 2 1 1 1 
1 2 1 1 2 2 2 2 2 
2 2 2 1 1 1 2 2 2 
1 2 2 2 1 1 1 2 2 
1 2 1 2 2 1 1 1 2 
1 1 2 2 1 1 1 2 1 
2 1 1 1 2 1 2 1 1 
2 1 1 2 1 2 1 2 2 
2 1 1 2 1 1 2 2 2 
2 1 1 1 2 2 2 2 2 
2 1 1 1 2 1 1 1 1 
2 2 2 2 2 1 1 1 1 
1 2 1 1 1 2 2 2 1 
2 2 2 1 1 1 1 1 1 
2 2 1 1 2 2 1 1 2 
2 1 1 2 1 1 1 1 1 
2 1 1 1 1 2 2 1 2 
2 2 2 2 1 2 1 2 2 
1 1 2 1 2 1 2 2 2 
2 1 1 1 1 2 2 2 1 
1 1 1 1 1 1 1 2 2 
1 1 2 2 1 2 1 1 1 
1 1 1 1 2 2 2 1 2 
1 2 1 1 1 1 1 1 1 
2 2 2 1 2 2 1 1 2 
2 1 1 1 2 1 2 2 2 
1 1 1 1 2 2 2 2 1 
1 2 1 2 2 2 2 2 2 
1 1 1 1 1 1 2 1 1 
1 2 2 1 1 2 1 2 1 
2 1 2 1 2 2 1 2 2 
1 1 2 2 1 1 1 1 2 
2 1 2 1 2 1 1 1 2 
2 2 1 2 1 1 1 1 1 
1 1 2 2 1 1 1 1 1 
1 2 2 2 2 2 1 2 2 
1 2 1 1 1 2 1 2 2 
2 1 1 2 1 2 2 1 1 
1 1 2 1 2 2 2 2 2 
2 1 2 1 2 2 2 2 2 
1 2 2 1 1 1 1 2 2 
2 1 1 2 1 1 2 1 1 
2 2 1 1 2 1 1 2 1 
1 2 2 1 1 2 1 2 1 
1 2 1 2 2 1 2 2 2 
2 1 1 1 1 2 1 1 1 
1 2 2 2 1 1 2 1 1 
2 2 1 1 2 1 1 1 2 
2 1 2 2 1 1 1 1 1 
2 1 2 1 2 1 1 1 2 
2 2 2 1 1 1 2 1 2 
2 2 1 2 2 1 1 1 2 
1 2 1 1 2 2 1 2 2 
2 1 2 2 1 2 1 1 1 
1 2 1 2 2 2 1 1 2 
2 1 1 2 2 2 1 2 1 
2 1 2 1 2 1 2 2 2 
1 2 2 2 1 1 1 1 2 
1 2 2 2 2 1 2 1 2 
2 2 2 2 2 1 1 2 1 
2 1 2 1 2 1 1 1 2 
2 2 1 1 1 1 2 2 1 
1 1 2 2 2 2 1 1 1 
2 2 2 1 1 1 1 2 2 
2 2 1 1 2 2 1 2 1 
2 
i 3 1000 int
-8 0 0 -176 0 0 -152 0 1 
-31 0 1 -138 0 -1 38 0 1 
-8 0 1 162 1 0 244 1 1 
-161 0 0 -102 0 0 262 1 1 
202 1 0 313 1 0 0 0 1 
-13 0 0 197 1 2 -74 0 1 
-47 0 1 145 1 0 -61 0 -1 
-128 0 1 -104 0 1 -35 0 1 
19 1 0 -147 0 1 -20 0 0 
-73 0 0 133 1 0 7 0 0 
-30 0 1 -243 -1 -1 -93 0 1 
195 1 0 168 1 0 -24 0 1 
-50 0 0 2 0 0 7 0 0 
-111 0 1 -23 0 0 -104 0 0 
-2 0 0 -31 0 0 -51 0 0 
-13 0 0 161 1 0 -78 0 1 
14 0 1 -58 0 0 -41 0 -1 
300 1 1 -119 0 1 -227 -1 1 
99 1 1 133 1 -1 -240 -1 0 
-181 0 0 -14 0 0 20 0 1 
7 0 1 -60 0 1 94 0 1 
-73 0 1 12 0 0 63 0 0 
-172 0 0 -263 -1 0 7 0 0 
217 1 0 -106 0 0 -127 0 0 
23 0 0 246 1 0 -18 0 -1 
333 1 1 -22 0 0 -27 0 1 
-79 0 2 -21 0 0 -137 0 0 
185 1 0 -55 0 0 -31 0 0 
-64 0 1 -12 0 -1 -87 0 1 
-297 -1 1 -58 0 0 -141 0 1 
-79 0 1 198 1 0 -103 0 1 
160 1 0 -136 0 1 51 0 0 
-76 0 0 292 1 0 -80 0 0 
-167 0 1 -101 0 0 -45 0 0 
214 1 -1 31 0 0 67 0 -1 
-30 0 1 124 1 0 -167 0 -1 
-90 0 0 -107 0 1 -155 -1 0 
139 1 -1 -97 0 0 -92 0 0 
-138 0 1 215 1 1 229 1 0 
-218 0 1 -21 0 0 38 0 0 
-3 0 -1 140 1 -1 -9 0 0 
30 0 0 3 0 0 -49 0 0 
-55 0 0 298 1 0 72 1 -1 
-197 0 0 4 0 0 -9 0 1 
180 1 0 260 1 0 -117 0 0 
-33 0 0 14 0 0 -76 0 1 
178 1 0 160 1 0 116 1 -1 
138 1 -1 -119 0 -1 -83 0 1 
147 1 -1 45 0 0 41 0 -1 
-55 0 0 -118 0 0 -136 0 0 
196 1 0 -113 0 0 196 1 -1 
225 1 -1 261 1 0 -20 0 0 
153 1 -1 -111 0 -1 -10 0 0 
198 1 0 175 1 1 -111 0 -1 
-37 0 -1 45 0 0 174 1 0 
-158 0 0 -87 0 0 25 0 0 
-48 0 0 -62 0 0 -336 -1 -1 
-80 0 0 -162 0 0 -28 0 0 
102 1 0 204 1 0 -129 0 0 
-287 0 0 31 0 0 -7 0 -1 
-29 0 0 112 0 0 147 1 -1 
177 1 -1 -58 0 0 -165 0 0 
176 1 0 28 0 -1 -24 0 0 
164 1 -1 -21 0 -1 -142 0 0 
-59 0 -1 -93 0 1 -92 0 0 
10 0 0 -146 0 -1 80 0 0 
-155 0 0 187 1 0 -114 0 1 
174 1 -1 161 1 -1 -22 0 -1 
-35 0 0 -48 0 0 -121 0 -1 
38 0 0 261 1 0 57 0 -1 
-64 0 0 39 0 -1 -3 0 0 
-147 0 0 -9 0 -1 28 0 -1 
210 1 0 -69 0 0 4 0 0 
-128 0 0 246 1 -1 -128 0 0 
-91 0 -1 -80 0 0 -35 0 -1 
166 0 0 50 0 1 106 0 0 
3 0 0 70 0 0 137 0 -1 
-168 -1 1 15 0 0 -24 0 1 
22 0 0 -118 -1 2 -43 0 0 
111 0 1 15 0 1 428 1 0 
-98 -1 1 -1 0 0 122 0 -1 
48 0 0 54 0 1 -157 -1 1 
20 0 0 159 0 0 136 0 0 
-59 0 2 -7 0 1 -121 -1 0 
-267 -1 0 201 0 0 104 0 0 
1 0 0 -97 -1 1 77 0 1 
98 0 -1 -101 -1 1 -4 0 0 
-49 0 1 -5 0 0 75 0 0 
-169 -1 0 -47 0 1 36 0 1 
-247 -1 1 9 0 0 123 0 0 
-183 -1 1 18 0 1 -209 -1 0 
-272 -1 0 176 0 1 -28 0 1 
21 0 1 -354 -1 0 160 0 0 
58 0 0 -95 -1 0 115 0 1 
-188 -1 0 30 0 1 -226 -1 0 
64 0 0 42 0 0 121 0 0 
118 0 0 134 0 0 -240 -1 1 
29 0 -1 113 0 0 3 0 0 
126 0 0 101 0 0 -3 0 0 
-158 -1 0 -140 -1 1 56 0 -1 
105 0 0 235 1 1 88 0 0 
-94 -1 0 -182 -1 1 -57 0 0 
114 0 -1 -282 -1 1 -22 0 0 
105 0 0 17 0 0 123 0 0 
168 0 0 55 0 1 146 0 0 
-6 0 0 124 0 -1 363 1 1 
111 0 0 -5 0 0 190 0 1 
-140 -1 1 138 0 0 78 0 0 
-256 -1 0 91 0 -1 -159 -1 0 
-63 -1 1 286 1 0 66 0 0 
-98 -1 1 56 0 0 -184 -1 -1 
148 0 1 117 0 0 330 1 0 
146 0 0 -161 -1 0 71 0 0 
73 0 0 93 0 -1 -79 -1 0 
-217 -1 1 30 0 0 -219 -1 0 
128 0 0 -77 -1 0 -68 0 0 
23 0 0 90 0 1 67 0 -1 
76 0 0 -26 0 0 94 0 0 
147 0 0 65 0 1 75 0 0 
365 1 0 116 0 0 -79 -1 1 
85 0 -1 59 0 0 80 0 0 
-164 -1 0 -6 0 1 84 0 1 
128 0 0 32 0 0 1 0 1 
-276 -1 1 36 0 0 -28 0 1 
-288 -1 0 -166 -1 1 177 0 1 
-33 0 -1 162 0 0 74 0 -1 
-144 -1 1 121 0 -1 -156 -1 0 
-150 -1 0 92 0 -1 -23 0 0 
-95 -1 0 87 0 -1 -49 -1 1 
84 0 -1 -44 0 0 149 0 0 
-220 -1 -1 51 0 0 -124 -1 0 
-22 0 -1 154 0 0 65 0 -1 
68 0 -1 35 0 -1 -191 -1 -1 
57 0 0 21 0 1 -181 -1 0 
-172 -1 0 117 0 0 82 0 -1 
49 0 -1 109 0 -1 64 0 0 
36 0 0 57 0 0 -50 0 0 
24 0 -1 187 0 0 -247 -1 0 
-148 -1 1 98 0 -1 -97 0 -1 
166 0 -1 33 0 0 -111 -1 1 
95 0 0 -276 -1 -2 17 0 0 
-128 -1 0 6 0 1 -185 -1 0 
18 0 -1 54 0 -1 -33 0 0 
114 0 -1 97 0 -1 200 0 -1 
-151 -1 0 53 0 0 -31 0 -1 
0 0 0 16 0 0 37 0 0 
-227 -1 -1 167 0 -1 45 0 0 
159 0 0 52 0 -1 194 0 0 
-324 -1 0 162 0 0 110 0 -1 
107 0 -1 15 0 0 94 0 0 
123 0 -1 167 0 0 202 0 -1 
219 0 0 71 0 -1 20 0 -1 
-93 0 -1 57 0 0 58 0 -1 
16 0 -1 -213 -1 -1 20 0 0 
26 0 -1 -191 -1 -1 -179 -1 0 
32 0 0 -254 -1 1 60 0 0 
167 0 1 94 0 0 -156 -1 0 
93 0 -1 -165 -1 -1 26 0 0 
-6 0 0 7 0 -1 -61 0 0 
153 0 0 -31 0 0 -135 0 0 
200 1 0 -103 0 0 184 1 0 
206 1 -1 176 1 0 -60 0 1 
200 1 1 -59 0 0 -61 0 1 
-161 0 0 -174 0 1 186 1 0 
-43 0 0 -92 0 1 -224 0 1 
-81 0 1 222 1 0 -125 0 0 
-15 0 0 -207 0 1 212 1 1 
-63 0 0 126 0 1 -101 0 1 
227 1 0 -116 0 2 69 0 0 
-145 0 1 139 1 0 -99 1 0 
58 0 0 -22 0 1 -14 0 0 
-10 0 1 -4 0 0 251 1 0 
27 0 -1 -69 0 1 198 1 0 
-167 -1 1 -52 0 1 53 0 1 
78 1 0 0 0 1 -46 0 1 
-5 0 0 -7 0 0 -44 0 1 
-138 0 1 -153 0 0 -132 0 1 
267 1 1 -105 0 0 -84 0 1 
-75 0 0 -90 0 0 229 1 -1 
-55 0 0 -163 0 0 -11 0 1 
-52 0 1 -87 0 0 -89 0 1 
196 1 0 -26 0 0 174 1 0 
183 1 -1 102 0 0 -115 0 0 
86 0 0 -95 0 1 -46 0 0 
11 0 0 -33 0 1 -255 0 0 
-89 0 1 -102 0 0 -4 0 0 
-114 0 0 20 0 0 77 1 0 
-73 0 1 -57 0 0 181 1 1 
-56 0 1 195 1 1 -37 0 0 
-3 0 1 -80 0 0 -52 0 1 
-133 0 1 50 0 0 216 1 1 
205 1 0 73 0 0 -157 0 0 
-6 0 -1 -50 0 0 -155 0 0 
-24 0 1 216 1 0 47 0 -1 
78 0 -1 -73 0 0 -139 0 -1 
229 1 0 -69 0 0 -37 0 1 
62 0 0 120 1 0 -65 0 0 
3 0 -1 -132 0 1 -199 0 2 
-121 0 1 -46 0 1 -77 0 0 
148 1 0 144 1 -1 -71 0 0 
-82 0 1 145 1 1 -76 0 -1 
34 0 -1 108 1 0 -133 0 0 
-116 0 0 -17 0 -1 230 1 -1 
-115 0 1 -138 0 0 -126 0 -1 
-144 0 1 -151 0 0 -121 0 1 
-101 0 0 74 0 -1 -49 0 -1 
28 1 0 240 1 0 -33 0 0 
-39 0 0 129 1 -1 137 1 0 
-137 0 0 29 0 -1 50 0 0 
57 0 -1 -35 0 1 112 1 0 
-99 0 0 200 1 0 -175 0 0 
-107 0 0 -160 0 1 161 1 -1 
-177 0 0 90 1 0 50 0 0 
12 0 -1 -140 0 0 44 0 -1 
40 0 -1 -45 0 0 -158 0 -1 
-42 0 0 -87 0 -1 -226 0 0 
-153 0 0 -43 0 0 -130 0 -1 
-89 0 1 173 1 0 14 0 0 
-24 0 -1 -23 0 0 -209 0 -1 
-120 0 -1 -101 0 0 191 1 -1 
148 1 0 -55 0 1 -57 0 -1 
-44 0 0 -81 0 1 9 0 -1 
150 1 -1 170 1 0 -210 0 0 
137 1 0 -28 0 -1 -80 0 0 
-18 0 0 118 1 0 -158 0 0 
220 1 -1 -47 0 0 9 0 1 
23 0 -1 -142 0 1 -50 0 0 
8 0 0 -49 0 0 -115 0 1 
316 1 -1 -11 0 0 -72 0 0 
-136 0 0 -46 0 0 -31 0 -1 
233 1 0 -108 0 1 -73 0 0 
-84 0 0 199 1 0 98 1 0 
46 0 -1 243 1 -1 -12 0 -1 
-44 0 0 -167 0 0 114 0 -1 
125 1 0 196 1 -1 -99 0 0 
-134 0 0 -68 0 0 -141 0 -1 
-11 0 -1 -100 0 0 -43 0 -1 
-43 0 0 -76 0 -1 321 1 1 
-27 0 0 -8 0 0 244 1 -1 
-22 0 -1 -123 0 0 198 1 0 
74 1 0 -25 0 0 -9 0 0 
291 1 -1 -279 -1 0 -54 0 0 
89 1 0 -137 0 0 109 1 -1 
-23 0 0 220 1 0 -120 0 0 
-104 0 0 100 0 1 38 0 0 
286 1 -1 -24 0 1 -35 0 -1 
-52 0 -1 203 1 -1 190 1 0 
-140 0 -1 -231 0 -1 68 0 0 
0 0 -1 196 1 -1 138 1 -1 
-170 0 -1 191 1 -1 -61 0 -1 
-55 0 0 -13 0 -1 14 0 -1 
-70 0 -1 11 0 -1 -171 0 -1 
-147 0 0 -57 0 0 79 0 -1 
15 0 0 74 0 0 120 0 -1 
-215 -1 0 -120 -1 1 221 0 1 
-203 -1 1 -9 -1 0 40 0 1 
144 0 0 -140 -1 1 -198 -1 1 
175 0 0 13 0 0 34 0 0 
48 0 1 239 0 0 219 0 1 
328 1 1 -156 -1 -1 -131 -1 0 
37 0 0 6 0 0 53 0 0 
270 1 1 269 1 1 55 0 0 
127 0 -1 -156 -1 1 4 0 1 
-206 -1 1 6 0 1 10 0 1 
26 0 -1 9 0 0 84 0 1 
59 0 1 22 0 0 -20 0 0 
-65 0 1 60 0 1 -270 -1 0 
28 0 0 89 0 0 78 0 1 
164 0 1 13 0 1 -149 -1 0 
291 1 0 37 0 1 -194 -1 1 
80 0 0 -187 -1 0 94 0 0 
-174 -1 1 97 0 0 74 0 1 
94 0 1 189 0 -1 57 0 1 
96 0 0 211 0 0 22 0 0 
-49 0 1 -212 -1 0 133 0 -1 
29 0 0 34 0 1 -255 -1 -1 
86 0 1 -259 -1 0 116 0 0 
25 0 0 141 0 0 -54 0 1 
50 0 1 -227 -1 -1 56 0 0 
26 0 0 -19 0 1 -44 0 1 
-15 0 1 81 0 0 118 0 0 
-177 -1 0 80 0 0 99 0 0 
55 0 0 -252 -1 0 -222 -1 0 
161 0 0 -79 0 1 -125 -1 1 
18 0 0 69 0 0 -4 0 0 
99 0 0 -6 0 0 15 0 0 
52 0 0 -20 0 -1 -18 0 0 
92 0 -1 56 0 0 133 0 0 
70 0 -1 40 0 0 102 0 0 
131 0 0 -131 -1 0 -239 -1 0 
55 0 0 -121 -1 0 90 0 -1 
-215 -1 1 79 0 0 -113 -1 0 
-224 -1 -1 43 0 -1 123 0 0 
97 0 0 41 0 0 -1 0 0 
68 0 0 58 0 0 38 0 1 
26 0 -1 178 0 0 137 0 -1 
155 0 0 -203 -1 0 -191 -1 0 
75 0 0 -351 -1 0 87 0 0 
50 0 -1 89 0 0 -265 -1 -1 
-237 -1 1 -175 -1 -1 -7 0 1 
-192 -1 0 -130 -1 0 -244 -1 -1 
109 0 1 -140 -1 0 -260 -1 1 
84 0 0 70 0 -1 -111 -1 0 
-10 0 0 38 0 0 -198 -1 0 
406 1 0 390 1 0 -141 0 0 
-194 -1 0 115 0 0 -139 -1 2 
40 0 -1 80 0 -1 67 0 -1 
166 0 0 142 0 0 70 0 0 
77 0 -1 161 0 -1 -219 -1 0 
54 0 0 151 0 -1 -35 0 -1 
-157 -1 -1 -194 -1 -1 -221 -1 0 
35 0 -1 21 0 0 -126 -1 0 
-20 0 -1 33 0 0 -1 0 0 
-37 0 0 95 0 0 123 0 0 
-170 -1 0 62 0 -1 62 0 0 
-63 0 0 -139 -1 0 30 0 -1 
209 0 -1 -308 -1 0 65 0 0 
146 0 0 -258 -1 -1 -235 -1 -2 
71 0 0 70 0 0 78 0 -1 
-142 -1 0 35 0 0 -11 0 0 
205 0 0 -319 -1 0 -106 -1 0 
-110 -1 1 -128 -1 -1 -316 -1 -1 
152 0 0 -22 0 0 3 0 0 
-56 0 0 65 0 0 59 0 0 
63 0 -2 64 0 -1 95 0 -1 
33 0 0 27 0 0 302 1 -1 
-86 -1 0 75 0 -1 -285 -1 1 
118 0 -1 -164 -1 0 24 0 -1 
92 0 0 49 0 -1 -255 -1 0 
-191 -1 -1 13 0 -1 -52 0 1 
-11 0 -1 96 0 -1 -229 -1 0 
45 0 -1 -192 -1 0 28 0 0 
-227 -1 -1 -114 0 0 178 0 0 
122 0 0 
v 3 1000 double
-216.15676742 -10.871805527 -16.162359339 -150.33778479 29.862479373 7.2234416479 -428.12481423 0.19673826117 -11.002191942 
-156.6169633 10.879787998 1.014426338 -175.84321487 11.975651764 4.6029001094 -16.427888466 2.3108899672 -4.7176766121 
-23.685376519 -0.064327203219 -0.99585011923 -337.03021082 -6.0779555156 -8.0930320563 -441.44289791 -6.354744392 16.564537494 
-396.88659616 -7.4829198083 21.896716827 -277.09706181 1.727927565 -14.581658244 -45.485166633 0.9518115711 25.563417394 
-40.840563149 14.752892176 7.7574012448 -179.68148357 7.7757679612 -12.242745883 -51.601363081 -9.253601511 8.1756588541 
-150.15992949 1.0609452399 -11.936505025 -393.10298571 16.516541158 -3.5331882731 -370.03633464 -8.6479380955 -17.183258967 
-284.87833661 -8.644996685 2.5473606457 -361.00624946 10.391354846 16.225792229 -246.30831909 19.197834177 9.8320709528 
-426.05235152 4.1246803215 2.0900998572 -171.02223765 25.088456856 3.5130576925 -252.00410819 -18.65390841 15.286961845 
-395.19774933 11.557466194 7.7702231115 -407.95119284 -4.772930956 -25.257305977 -15.991101086 2.3233988511 7.698293488 
-266.0839705 -2.2179545638 -7.64658387 -435.08446948 27.041236177 -0.88168352087 -163.73090043 -15.59899038 2.5266812561 
-71.289458055 10.161305756 3.3255686491 -78.174767622 33.050330386 -14.819010658 -131.41460245 -14.51643342 -11.291786218 
-353.8232295 -20.381501985 -13.761399545 -429.97111018 12.106419226 -7.6536669328 -271.36128648 14.707184944 23.605559122 
-367.71718889 7.0917462082 5.1854982956 -74.440278991 8.4667858658 -1.6186645565 -42.621182328 -9.8334636806 -14.001791886 
-214.90918089 1.8517203919 12.02710561 -146.29912997 1.2711790146 -9.9531048922 -172.09256175 2.5807298355 3.2314607666 
-461.6041398 -2.5121243983 -17.440715725 -343.53975474 1.7667908017 3.953579539 -314.21960014 4.8861684268 -3.0121693421 
-1.4504004854 3.778025086 15.155921322 -458.418215 -1.622110674 19.247849701 -412.70693244 2.0431448006 -13.774760608 
-207.30196981 11.047140528 -8.879713791 -370.43920067 0.79916745292 7.5940036357 -436.31988572 -4.5300568792 5.7262204154 
-459.04481405 8.8872299035 7.4380178322 -108.98704032 1.3367951548 -6.0475354892 -35.61075252 2.7051245303 -28.860133659 
-348.46718874 -0.74567865195 -2.3208759975 -399.08677534 -10.506141235 -1.1351467834 -136.28208552 -1.0570701082 -17.692674824 
-408.44478717 5.7231845898 -17.828619925 -107.77184855 4.1222086366 -12.207350855 -240.48997145 -11.326183271 0.14841476059 
-114.54197143 15.490344833 20.123606106 -367.60911265 31.021039214 -12.768417826 -16.059819967 -23.231741715 13.340000281 
-132.9794536 13.580249889 -34.862697113 -120.56721177 -27.97693868 -1.915101326 -192.02618581 -28.769608753 -21.72362461 
-262.11985518 7.5989865776 -14.805714898 -80.510450983 21.342819176 -14.291121731 0.60012969084 12.767209763 -0.10978979718 
-362.03018093 19.874337125 -19.469380259 -276.66419194 -21.876260582 -34.087995205 -466.0763552 14.567870802 8.6798886686 
-117.49722494 -5.8179191468 22.843925779 -47.490629576 -1.7447235407 8.2867062494 -188.20656405 4.4876753698 -20.62008645 
-63.684583239 -17.705793133 -25.222553429 -418.07388051 11.224945897 -6.5510987607 -331.58980375 14.569708524 9.2168357156 
-101.77117334 -12.86261726 -0.94648868634 -281.79165898 -6.1581185618 28.176994468 -205.08685364 -25.352816473 -2.0307638683 
-109.82017039 12.639906921 -4.8400812598 -207.51103887 -3.8767934658 1.37354445 -275.68090852 -13.776679035 -5.1726675625 
-55.115386435 -20.950150799 10.4970152 -420.40253906 18.022729161 -9.5913664328 -73.733577602 7.4616444572 20.080389361 
-2.8512613294 4.2111030585 17.275832998 -203.22914098 -19.684098279 45.745185995 -84.666480943 28.34951169 -2.7916673402 
-435.1681199 9.9392527985 2.8658075333 -457.0325016 12.229809111 11.552993903 -386.83154036 6.6243508783 -12.042029197 
-430.12077901 21.856298695 16.432158834 -221.94085974 -19.732569546 12.568355654 -101.69721707 11.735920036 5.1339170935 
-287.78464033 -14.563589276 17.374918888 -126.61142497 -8.6347876486 -8.8072595066 -309.45492908 17.616788728 10.592285273 
-318.96855412 -3.2416061102 -9.5390461123 -224.44808989 -1.5994484736 -12.944402079 -128.81325866 -6.8036545484 9.558217899 
-371.01827424 2.8696367634 24.772259083 -124.26962671 11.862492834 -6.0255460841 -220.72485035 -9.3422220945 -34.572964062 
-433.29866671 -15.091502533 3.2040058888 -428.42151529 -11.149340368 15.930761643 -431.35710949 20.261309225 -6.6232278944 
-233.70548233 -3.582175371 -32.174840423 -376.35623425 7.8374742061 18.955372238 -128.48176398 -14.791783759 15.636603651 
-312.33595288 -2.3881487046 15.1224842 -150.77240807 0.55198928716 -14.81238458 -171.61340556 -14.348813225 15.725168186 
-509.83388352 -14.188505342 43.025011898 -83.842474851 -6.3247409471 -28.303966311 -144.46254791 -0.048660769506 -6.1672780247 
-491.90831411 21.232769906 2.172567266 3.0207567461 -29.507847991 -8.3681696974 -220.77380052 -28.752915247 31.129324596 
-303.6031773 3.7848992237 19.42184629 -506.34866168 -4.9443462006 19.667572932 -202.98907507 -12.153706583 -16.980579716 
-115.81820516 2.1962790502 14.444083886 -303.80585773 -34.973348612 -6.6858886267 -190.49141497 -27.406693817 3.9937887908 