ITEM: TIMESTEP
42000
ITEM: NUMBER OF ATOMS
1000
ITEM: BOX BOUNDS xy xz yz pp pp pp
0 10 0
0 10 0
-0 10 0
ITEM: ATOMS id type type x y z ix iy iz vx vy vz fx fy fz omegax omegay omegaz radius 
120 1 1 2.08909 1.4497 0.831537 -165 0 0 -338.415 3.26377 -9.81969 893.955 -1344.06 2285.23 0 0 0 0.5 
311 1 1 2.234 2.89267 0.069131 -26 0 1 -194.082 -22.3661 3.93316 378.932 690.076 -179.043 0 0 0 0.5 
853 2 2 1.93805 0.578518 1.07847 190 1 0 -418.092 -17.6317 3.77695 2310.21 -1377.62 -1598.8 0 0 0 0.5 
23 1 1 1.47897 1.67778 0.330638 -137 0 1 -329.351 -1.35809 -21.5637 -1422.35 -487.238 -53.699 0 0 0 0.5 
700 2 2 0.0389601 1.60609 0.374631 132 1 1 -359.157 33.2374 -3.14484 1226.7 -2702.07 525.396 0 0 0 0.5 
208 1 1 2.46705 2.0725 1.44798 -38 0 1 -280.271 -7.44321 -3.39495 -353.767 -707.96 -319.363 0 0 0 0.5 
593 2 2 0.454763 1.8289 1.24874 12 0 1 -285.085 -20.7657 -15.5989 -35.3407 -45.2741 -274.124 0 0 0 0.5 
958 2 2 1.3024 2.08335 1.51492 204 1 2 -280.293 16.2882 -8.11386 -558.152 -174.339 -532.363 0 0 0 0.5 
851 2 2 1.13732 3.72624 1.10574 -163 0 0 -161.044 17.2253 21.3498 523.335 -2773.92 -352.525 0 0 0 0.5 
56 1 1 2.20545 3.50607 1.51559 -55 0 0 -163.66 19.9029 -2.34328 -1915.38 2685.6 184.863 0 0 0 0.5 
644 2 2 4.17538 3.71519 1.24967 342 1 1 -132.859 2.27483 1.01506 -1688.32 651.289 739.58 0 0 0 0.5 
787 2 2 1.40189 1.19331 1.41029 -71 0 1 -343.959 -17.3884 9.05464 -3877.47 2730.68 -731.038 0 0 0 0.5 
389 1 1 4.43755 0.646288 0.805993 -93 0 0 -396.126 10.5143 -31.9671 235.142 -332.363 242.797 0 0 0 0.5 
905 2 2 4.19134 2.57908 0.914931 -72 0 0 -257.486 0.656487 19.2252 126.965 25.8466 409.436 0 0 0 0.5 
454 1 1 0.53599 2.84741 1.55858 230 1 0 -221.873 -10.1172 16.0424 738.117 -1435.64 1079.16 0 0 0 0.5 
952 2 2 0.97221 0.974876 0.600291 -6 0 0 -407.208 25.5809 -0.146971 997.587 1654.9 673.265 0 0 0 0.5 
656 2 2 1.30265 2.41365 0.56879 -113 0 1 -280.45 40.0787 2.86761 -53.6817 224.04 72.5064 0 0 0 0.5 
598 2 2 0.41436 0.303129 1.31835 -82 0 1 -408.941 -6.52184 3.6347 173.651 1908.73 834.837 0 0 0 0.5 
358 1 1 0.124764 0.776826 0.561459 -72 0 0 -413.315 -5.29712 -12.4792 1805.4 -1566.45 -1196.91 0 0 0 0.5 
210 1 1 1.20864 0.278421 0.517256 174 1 0 -430.541 -18.0659 10.0774 -309.528 -1667.49 1373.46 0 0 0 0.5 
503 2 2 2.13964 1.16108 1.87723 25 1 0 -359.565 -20.4777 8.50517 2634.66 -2620.02 -271.047 0 0 0 0.5 
876 2 2 3.89494 0.194886 0.0361248 -96 0 1 -461.022 -7.0619 -23.5827 1593.47 -2952.36 -489.092 0 0 0 0.5 
542 2 2 2.78002 1.64894 0.180976 -228 0 1 -352.951 2.89389 -26.3586 2681.22 294.425 3013.4 0 0 0 0.5 
391 1 1 3.94879 4.05597 0.350323 -7 0 0 -110.348 8.41284 -15.5457 -1481.19 290.307 1383.7 0 0 0 0.5 
80 1 1 1.06654 3.65448 0.144991 -58 0 1 -131.021 -17.2285 7.91441 857.045 -1284.42 1750.54 0 0 0 0.5 
186 1 1 3.08564 3.30378 0.248545 195 1 0 -196.675 23.1226 -13.2633 -364.379 -1896.01 202.446 0 0 0 0.5 
539 2 2 1.76148 4.55442 0.0372544 -105 0 1 -44.2641 -7.99203 3.98592 -109.206 1048.78 792.161 0 0 0 0.5 
999 2 2 0.0162443 3.43992 0.132363 -44 0 0 -154.205 10.8311 6.23688 471.241 -80.3954 220.434 0 0 0 0.5 
446 1 1 0.875031 4.39668 0.316073 -46 0 1 -82.3545 1.24351 -16.7219 621.538 2530.48 1095.87 0 0 0 0.5 
921 2 2 0.443483 4.22549 1.72006 -74 0 1 -53.755 -28.9811 -16.6047 494.704 -628.398 -531.919 0 0 0 0.5 
966 2 2 3.5246 0.881046 0.149795 -78 0 1 -367.2 8.83409 22.4637 -1514.9 2949.89 570.697 0 0 0 0.5 
317 1 1 1.13406 4.69846 1.09785 -8 0 1 -1.40106 -31.7275 16.798 -234.785 2207.96 -783.571 0 0 0 0.5 
794 2 2 2.61069 2.93788 1.47648 -6 0 0 -202.898 -2.43533 4.96427 1961.37 -2408.51 -175.737 0 0 0 0.5 
361 1 1 3.01319 2.43621 0.686744 -61 0 0 -242.953 -3.57139 0.488897 -253.829 106.386 -1471.19 0 0 0 0.5 
744 2 2 4.85195 2.65104 1.64386 184 1 0 -217.895 -22.6167 -9.07747 484.85 1973.01 -207.219 0 0 0 0.5 
177 1 1 2.58752 4.49741 0.612434 52 0 1 -73.4679 3.90044 5.46799 1746.05 -3573.24 1840.72 0 0 0 0.5 
293 1 1 0.212597 3.47641 1.08577 -146 0 1 -153.509 2.09173 0.708316 1663.52 -67.9228 -427.83 0 0 0 0.5 
778 2 2 4.67308 3.47145 0.511957 -157 0 1 -155.317 -6.51428 3.32719 1225.43 -1231.07 -835.392 0 0 0 0.5 
666 2 2 0.315678 1.12112 3.39591 8 0 0 -365.109 3.17374 -20.7544 1593.18 41.3914 -1357.04 0 0 0 0.5 
148 1 1 1.67968 2.59947 2.22972 -34 0 1 -252.3 20.414 -16.7093 380.162 1973.36 836.035 0 0 0 0.5 
877 2 2 0.520408 0.933503 2.19811 223 1 1 -400.448 2.70853 2.53944 2197.08 -541.989 -2494.4 0 0 0 0.5 
770 2 2 2.41169 3.49631 3.72014 -64 0 0 -145.626 -8.12268 -0.99444 -922.599 150.85 419.872 0 0 0 0.5 
812 2 2 4.69024 2.52055 3.87707 17 0 1 -273.86 18.3507 -8.55935 5307.05 -3976.13 660.583 0 0 0 0.5 
333 1 1 2.64433 1.31231 3.13057 -34 0 0 -347.15 -4.11176 23.1905 -4012.18 3111.93 -909.525 0 0 0 0.5 
464 1 1 4.74588 3.42425 3.88069 19 0 0 -149.423 3.52955 26.8085 -1794.7 -93.1576 -970.239 0 0 0 0.5 
172 1 1 3.3979 0.97475 2.93577 -185 0 0 -406.994 9.49998 -15.3138 1928.69 864.839 -1384.05 0 0 0 0.5 
808 2 2 2.04176 3.43305 2.62364 85 0 0 -161.732 9.70144 -0.697747 -555.028 -1277.79 -603.825 0 0 0 0.5 
263 1 1 1.37919 0.223928 3.56365 -99 0 1 -456.662 -0.59598 -6.05917 -2023.99 -662.658 -1659.66 0 0 0 0.5 
506 2 2 1.94572 1.81158 2.10106 -109 0 0 -303.527 -17.8884 8.58747 -799.713 1863.65 44.7998 0 0 0 0.5 
78 1 1 2.06384 2.11832 2.89983 -30 0 1 -279.012 -7.67767 4.10933 -1543.19 711.866 520.267 0 0 0 0.5 
809 2 2 3.90552 0.101841 2.01704 201 1 0 -462.491 17.9686 -24.7102 -559.733 1471.94 -981.865 0 0 0 0.5 
232 1 1 1.25684 1.36393 3.25215 -92 0 1 -368.066 5.65266 6.75862 834.878 854.505 360.496 0 0 0 0.5 
96 1 1 4.62416 1.7472 3.78168 -105 0 0 -368.055 -2.30171 -11.2313 -746.71 361.056 1367.86 0 0 0 0.5 
312 1 1 1.47377 2.90718 3.27248 6 0 1 -150.645 -15.4189 -8.38065 152.938 446.906 -523.391 0 0 0 0.5 
683 2 2 1.0434 0.653868 2.80324 80 1 0 -423.936 -4.16255 4.76194 610.173 16.5482 -39.4431 0 0 0 0.5 
702 2 2 2.04273 1.12128 3.86755 223 1 0 -399.977 10.9379 -1.51672 -923.463 1957.48 -1912.1 0 0 0 0.5 
364 1 1 1.6053 2.02721 3.64003 -60 0 0 -246.881 -10.1459 21.7484 -213.629 -2176.91 16.7378 0 0 0 0.5 
248 1 1 0.0754365 0.0577188 3.63236 -259 0 0 -428.129 -2.49125 13.0125 15.8245 821.789 -552.363 0 0 0 0.5 
269 1 1 2.15346 0.265235 2.17087 -167 0 0 -432.4 -14.8585 19.3253 -2091.15 -339.27 -32.0561 0 0 0 0.5 
509 2 2 4.1419 2.14198 3.20409 -118 0 0 -285.892 -7.93456 -28.0251 -401.262 381.758 -1879.39 0 0 0 0.5 
478 1 1 4.02286 2.46254 2.3041 -26 0 1 -260.927 5.57681 -19.4226 2490.88 -1931.92 -1114.13 0 0 0 0.5 
309 1 1 3.80553 0.41689 2.89876 96 1 0 -438.266 -17.6415 -21.5505 128.444 -570.282 965.129 0 0 0 0.5 
339 1 1 0.275273 3.51916 3.10845 -74 0 1 -136.228 -21.2926 -19.2381 482.19 -2122.49 -300.546 0 0 0 0.5 
231 1 1 2.90935 4.16313 2.93193 -37 0 1 -72.923 0.765369 -3.76699 -356.538 1034.2 1327.53 0 0 0 0.5 
896 2 2 1.45008 4.36288 2.10516 -19 0 -1 -78.5109 -6.73567 -2.63551 -166.121 435.108 243.292 0 0 0 0.5 
222 1 1 0.921456 4.41717 3.02991 269 1 0 -66.8611 -3.89928 18.3214 234.989 132.377 -71.7596 0 0 0 0.5 
414 1 1 2.78191 0.171529 3.18418 154 1 0 -471.198 -0.739141 -27.8188 -2769.34 361.672 381.951 0 0 0 0.5 
562 2 2 0.0331906 4.31596 3.0366 126 0 1 -82.1287 -14.3867 19.1877 -64.6316 1674.31 -900.659 0 0 0 0.5 
104 1 1 0.0631803 4.70857 2.12897 -5 0 0 -55.0846 -13.9127 21.5357 -235.23 -301.663 -771.534 0 0 0 0.5 
956 2 2 2.75918 1.94076 2.4015 -104 0 1 -289.906 1.21765 6.24574 -920.975 1156.91 -242.206 0 0 0 0.5 
575 2 2 0.889281 3.40695 3.84494 170 1 -1 -146.712 -8.99906 -10.0116 973.346 224.48 143.471 0 0 0 0.5 
88 1 1 0.316233 4.53881 3.98938 62 0 0 -69.8039 3.95144 17.0983 1305.66 1026.91 -2397.47 0 0 0 0.5 
548 2 2 4.41335 0.85467 3.5049 -145 0 1 -423.923 21.741 -29.6976 397.528 -217.588 -619.235 0 0 0 0.5 
228 1 1 3.32146 2.01806 3.6641 -123 0 1 -272.377 -14.5775 -8.39736 123.07 -710.657 -858.767 0 0 0 0.5 
549 2 2 3.0455 3.66304 2.15741 -154 0 0 -132.577 -2.86728 1.41507 384.489 242.545 -1360.3 0 0 0 0.5 
189 1 1 3.53529 1.60306 2.36286 212 1 0 -325.019 13.6081 -39.143 3612.91 -578.895 -26.6949 0 0 0 0.5 
850 2 2 3.95707 2.92562 3.54636 93 0 1 -155.194 -1.505 7.38724 -4546.05 4589.51 -1302.66 0 0 0 0.5 
350 1 1 3.11799 3.23905 3.22513 207 1 0 -139.47 -2.22873 -1.1494 -849.445 -1354.12 -374.174 0 0 0 0.5 
76 1 1 3.61317 4.69367 3.72592 115 0 1 17.4029 -22.1597 -9.82203 -3432.61 1934.07 754.09 0 0 0 0.5 
890 2 2 2.79041 0.768641 3.95052 -52 0 -1 -401.575 -6.5596 -6.34382 51.4704 -2248.97 1395.61 0 0 0 0.5 
909 2 2 3.64488 1.02306 3.8318 -107 0 1 -420.427 20.3399 -6.43137 -368.249 1321.18 -228.095 0 0 0 0.5 
138 1 1 2.97368 4.59683 2.11915 -52 0 1 -69.4417 14.5026 -1.66864 -445.031 -601.323 -1418.85 0 0 0 0.5 
786 2 2 0.785173 0.750414 3.94504 -163 0 1 -406.914 3.81468 -13.4808 -1144.22 866.344 2066.2 0 0 0 0.5 
418 1 1 2.72367 2.33667 3.26657 -147 0 1 -262.997 22.7836 2.58532 493.548 2157.59 -2028.63 0 0 0 0.5 
193 1 1 3.03806 0.120185 2.27871 202 1 0 -449.748 -15.3172 -24.4839 675.806 -334.065 333.053 0 0 0 0.5 
741 2 2 3.13517 2.79759 2.45053 -117 0 0 -200.725 -6.49154 1.99498 -3370.65 -1129.56 -235.105 0 0 0 0.5 
908 2 2 4.02887 3.53517 2.20594 -85 0 1 -125.95 -3.7562 8.96141 -259.533 85.1242 -261.487 0 0 0 0.5 
273 1 1 4.52728 0.0442499 3.08107 -203 0 2 -450.966 0.404249 16.8358 221.238 210.648 623.055 0 0 0 0.5 
742 2 2 4.46524 4.2404 3.7967 3 0 -1 -60.0417 6.71965 -1.12121 3621.07 -71.1892 -308.366 0 0 0 0.5 
480 1 1 4.6067 1.47072 2.02376 -119 0 2 -327.679 -1.89787 2.93143 -2158.23 1478.14 1589.8 0 0 0 0.5 
3 1 1 4.95471 3.76326 2.86889 58 0 0 -92.9622 9.92658 6.5136 -674.241 1803.01 -299.053 0 0 0 0.5 
821 2 2 1.93982 2.6692 5.18599 208 1 0 -234.296 11.5041 -12.1816 -484.793 1272.95 -986.148 0 0 0 0.5 
616 2 2 1.53177 2.68877 5.92691 -44 0 0 -236.294 -5.12516 -4.7158 -611.224 308.595 187.979 0 0 0 0.5 
335 1 1 3.32871 0.00251557 5.80284 -117 0 0 -348.026 -8.76838 33.3295 -9549.07 -134.975 3624.52 0 0 0 0.5 
798 2 2 3.31335 3.53486 4.09074 -176 0 0 -150.512 10.4668 -7.9033 -214.29 600.462 598.453 0 0 0 0.5 
572 2 2 1.17991 2.48546 4.25601 -92 0 0 -228.724 -5.23028 24.3837 -335.51 636.246 -754.401 0 0 0 0.5 
754 2 2 0.870925 0.797277 5.53943 -121 0 0 -405.681 -6.95418 3.53054 697.377 -551.7 192.857 0 0 0 0.5 
308 1 1 1.71622 1.28294 5.22328 -93 0 1 -402.347 10.2278 9.94271 846.386 -196.806 825.754 0 0 0 0.5 
951 2 2 3.98161 3.19297 4.65358 -47 0 0 -180.664 -2.26431 7.09518 -1488.22 921.569 633.354 0 0 0 0.5 
751 2 2 1.22513 0.529746 4.59617 188 1 1 -444.58 12.0264 22.8379 -3304.81 -2323.13 1402.38 0 0 0 0.5 
182 1 1 1.70213 3.39118 4.33097 46 0 -1 -150.535 -16.4952 0.505318 92.1363 -235.684 31.4436 0 0 0 0.5 
180 1 1 4.67273 2.78945 4.6475 -6 0 0 -191.627 0.057899 23.0141 456.566 1415.66 -1403.21 0 0 0 0.5 
747 2 2 4.23561 1.44745 5.52675 -200 0 0 -307.174 1.41391 6.68192 -807.291 173.972 -1626.63 0 0 0 0.5 
665 2 2 1.10401 1.42529 4.62598 152 1 1 -370.442 15.6568 -25.1625 1178.11 1136.69 -37.7029 0 0 0 0.5 
282 1 1 2.57067 4.09581 5.10998 238 1 0 -92.955 12.3367 14.1922 -0.453445 -589.427 -307.548 0 0 0 0.5 
131 1 1 0.208987 0.543565 4.92108 114 1 0 -393.917 9.54877 -27.6102 44.8751 138.206 -306.795 0 0 0 0.5 
243 1 1 2.46656 4.36659 4.00836 -57 0 0 -28.8642 2.517 -6.12544 0.36631 5.81045 1.92435 0 0 0 0.5 
848 2 2 3.95103 0.0642476 4.80559 -223 0 1 -483.581 -18.3656 -25.562 -1308.39 940.161 -1983.57 0 0 0 0.5 
661 2 2 0.997432 2.54679 5.13066 -78 0 -1 -234.933 -10.4434 8.45296 -445.488 -123.524 989.435 0 0 0 0.5 
251 1 1 0.210011 1.60061 4.32573 -83 0 0 -343.543 -6.88498 0.69333 -942.398 68.6697 -1797.92 0 0 0 0.5 
609 2 2 1.53797 3.8969 5.06771 -45 0 0 -108.776 -9.17321 17.2573 -108.565 52.8584 148.038 0 0 0 0.5 
154 1 1 2.57003 3.26083 4.67431 3 0 0 -142.625 -10.3763 6.36538 62.0249 -110.923 -748.78 0 0 0 0.5 
674 2 2 2.3754 2.44803 4.1288 -57 0 0 -225.91 -9.6993 -1.6831 -460.111 1063.13 2214.6 0 0 0 0.5 
780 2 2 0.203657 1.51205 5.45955 -166 0 0 -385.988 -8.08316 -18.3041 3185.82 -1475.17 1930.79 0 0 0 0.5 
771 2 2 1.7494 0.214869 5.36508 -161 0 0 -440.383 22.4786 37.1595 -915.683 -415.704 -709.788 0 0 0 0.5 
875 2 2 2.52431 2.14938 5.17812 -54 0 1 -259.333 -25.5918 14.5633 -1216.45 -1299.9 554.953 0 0 0 0.5 
556 2 2 1.96399 0.525317 4.57844 135 1 -1 -477.33 43.8769 -15.3835 3183.57 -711.018 1888.75 0 0 0 0.5 
510 2 2 3.96745 2.27133 5.60542 -59 0 -1 -267.951 18.1345 -1.36125 -1219.16 1271.6 1377.38 0 0 0 0.5 
415 1 1 3.47093 4.91633 5.02424 -6 0 -1 9.2827 -1.6858 11.4108 -155.584 537.568 906.196 0 0 0 0.5 
845 2 2 3.70901 4.10263 5.09669 -34 0 0 -57.068 -24.8823 -4.63215 -1837.03 -1048.01 252.667 0 0 0 0.5 
836 2 2 0.328803 4.89626 5.25929 138 0 -1 1.71867 2.43802 -5.91338 359.629 2399.8 682.773 0 0 0 0.5 
995 2 2 0.683046 3.73203 5.84747 -138 0 1 -141.589 -2.34728 -6.35133 1783.91 -864.801 -371.179 0 0 0 0.5 
12 1 1 0.399179 4.15408 4.79352 -98 0 0 -103.106 -3.28475 -9.80844 320.77 -2105.01 1405.55 0 0 0 0.5 
844 2 2 3.65417 1.9502 4.45188 187 1 0 -301.1 2.98735 -14.1654 -647.837 618.638 261.131 0 0 0 0.5 
97 1 1 3.52605 0.074504 5.45885 35 1 0 -437.665 2.62295 -23.3985 -947.522 682.395 -2868.36 0 0 0 0.5 
258 1 1 4.1604 0.650892 4.35191 -125 0 1 -418.815 -12.7452 -19.3669 528.092 763.669 -476.919 0 0 0 0.5 
428 1 1 3.27362 2.1671 5.06194 -91 0 1 -265.561 2.26911 20.139 422.083 381.175 -420.356 0 0 0 0.5 
957 2 2 0.0531984 2.63884 5.19743 36 0 0 -229.93 -6.70778 -2.09905 -405.332 -2171.38 1489.17 0 0 0 0.5 
352 1 1 0.0402802 4.04363 5.98121 -102 0 0 -148.807 15.4609 -7.22923 -447.364 -1157.37 205.547 0 0 0 0.5 
495 1 1 3.04967 2.2453 5.99 -84 0 1 -256.746 -4.62135 21.0633 1089.67 -782.612 -455.583 0 0 0 0.5 
484 1 1 1.69624 4.55865 5.74182 31 0 0 -50.8632 -8.7676 8.09811 2219.24 -2232.38 -729.062 0 0 0 0.5 
763 2 2 3.99167 0.867419 5.11684 105 1 1 -401.047 -0.139242 -1.01089 -903.521 1232.09 -1896.3 0 0 0 0.5 
871 2 2 4.18337 4.82708 4.51638 -13 0 0 -4.80219 6.73573 14.6089 2730.9 -979.471 -779.255 0 0 0 0.5 
79 1 1 2.99992 0.764683 5.46325 -119 0 1 -432.252 35.1958 -18.0856 1052.31 -3040.08 1996.96 0 0 0 0.5 
645 2 2 4.17154 0.451353 5.78206 143 1 -1 -485.919 18.1102 18.531 7462.19 6252.11 3662.65 0 0 0 0.5 
55 1 1 4.31213 1.59707 4.52809 144 1 0 -319.048 -6.38405 15.5199 -1887.08 43.2499 2865.85 0 0 0 0.5 
35 1 1 4.6919 3.98337 5.03683 -142 0 1 -95.9464 -3.60092 -7.42984 2244.51 -283.735 187.939 0 0 0 0.5 
295 1 1 4.83087 0.117475 4.89051 145 1 -1 -479.7 -7.59358 4.7114 572.76 1160.87 853.984 0 0 0 0.5 
65 1 1 4.79755 2.21572 5.12863 -80 0 0 -310.564 -8.26399 8.20661 796.443 -1655.01 421.017 0 0 0 0.5 
288 1 1 4.90379 1.01622 4.31353 -46 0 -1 -416.741 5.69927 -18.5669 3910.15 -4247.19 -774.07 0 0 0 0.5 
441 1 1 3.53977 2.57456 7.21868 43 0 0 -263.1 7.4359 -0.814086 -617.169 -672.89 131.764 0 0 0 0.5 
249 1 1 1.75053 2.29856 7.71899 -86 0 1 -245.269 -4.6245 -11.345 -219.853 -372.213 -400.338 0 0 0 0.5 
318 1 1 4.25336 3.86856 7.72368 -88 0 0 -55.054 -24.0322 -12.177 -289.179 -159.608 1606.27 0 0 0 0.5 
565 2 2 1.929 1.73347 6.48984 -117 0 0 -372.958 13.4641 -6.68978 330.552 -941.196 -338.378 0 0 0 0.5 
220 1 1 2.56943 4.85117 6.11452 308 1 0 -52.3247 10.7218 12.6721 -456.835 -33.3897 77.6646 0 0 0 0.5 
132 1 1 4.89998 2.29487 6.36691 42 0 0 -287.236 17.0586 -20.0684 45.3334 198.465 5.00567 0 0 0 0.5 
140 1 1 4.36847 0.149082 6.7661 124 1 0 -496.142 -1.09268 -6.8654 359.375 -187.601 -254.673 0 0 0 0.5 
487 1 1 1.56137 3.79069 6.79115 -131 0 -1 -131.732 -3.9702 -9.05253 -1796.75 1562.44 61.2693 0 0 0 0.5 
200 1 1 4.12037 2.42313 6.50545 -138 0 0 -290.606 5.93711 -2.30858 -577.583 212.942 209.197 0 0 0 0.5 
805 2 2 4.00251 0.0173343 7.73707 -133 0 -1 -503.055 14.8488 1.366 1693.02 54.11 10.3924 0 0 0 0.5 
115 1 1 0.16419 1.95986 7.3841 157 1 -1 -353.598 24.6673 16.1363 1165.84 917.6 -1586.86 0 0 0 0.5 
927 2 2 2.33271 2.66061 6.41982 12 0 0 -237.004 8.55079 -5.79517 615.025 76.9494 788.737 0 0 0 0.5 
373 1 1 1.00387 1.72644 6.72147 -161 0 -1 -376.491 3.84458 -11.1331 1595.28 3396.36 320.166 0 0 0 0.5 
190 1 1 4.75874 3.94054 6.02112 -47 0 1 -83.8665 -5.10802 0.245655 -60.2713 -3.12668 -191.604 0 0 0 0.5 
84 1 1 1.49225 2.59273 6.7826 110 0 0 -219.805 0.493464 0.206348 -2092.68 -3851.2 902.183 0 0 0 0.5 
759 2 2 2.27972 3.59028 6.19893 -88 0 -1 -146.887 4.95209 -8.81329 855.214 566.337 -937.837 0 0 0 0.5 
82 1 1 0.480869 2.80537 6.18418 32 0 -1 -232.464 -2.53246 11.7293 0 0 0 0 0 0 0.5 
375 1 1 3.10708 3.33286 7.03185 204 1 -1 -173.636 12.3193 -18.0322 -1251.09 2353.28 -667.213 0 0 0 0.5 
613 2 2 0.724244 2.71943 7.17814 -51 0 0 -222.608 -0.200955 -11.509 -2129.53 -2890.83 2503.53 0 0 0 0.5 
24 1 1 3.47083 0.972091 6.5757 197 1 -1 -427.474 33.9698 -13.7265 856.498 96.6096 437.245 0 0 0 0.5 
337 1 1 1.93864 0.801415 6.23495 166 1 0 -447.317 -12.9365 -6.83455 -1074.64 2853.84 -183.257 0 0 0 0.5 
199 1 1 1.10434 3.37985 7.78929 -232 0 -1 -113.998 -13.2141 -20.0489 1358.32 -3059.19 -1654.36 0 0 0 0.5 
555 2 2 1.68518 4.22492 7.93388 -35 0 -1 -60.0082 -13.3866 -10.8827 1313.93 1917.54 66.623 0 0 0 0.5 
204 1 1 0.869436 4.51928 6.59722 -142 0 1 -52.2671 -14.085 -4.32729 845.953 1308.84 -660.704 0 0 0 0.5 
460 1 1 3.21848 4.37212 6.54802 -21 0 0 -53.1439 -15.4868 8.94005 436.938 760.82 587.474 0 0 0 0.5 
283 1 1 4.77219 1.73187 7.14288 -161 0 0 -324.479 7.23408 -2.45416 1442.09 -732.707 -16.2212 0 0 0 0.5 
899 2 2 3.81398 1.13799 7.46509 -150 0 -1 -396.35 11.8353 -3.79715 222.501 -4797.05 -1507.25 0 0 0 0.5 
252 1 1 2.40564 3.93309 7.22614 184 1 0 -168.221 18.2353 12.1029 1064.8 363.138 690.549 0 0 0 0.5 
468 1 1 1.77757 4.73256 6.76557 8 0 0 -21.9023 7.38331 -16.3076 -733.073 -2482.91 -1357.09 0 0 0 0.5 
17 1 1 2.86135 0.913403 7.24324 -123 0 -1 -414.516 7.25977 9.17886 -3090.02 3042.89 -1360.05 0 0 0 0.5 
705 2 2 4.66257 0.983505 7.07472 -162 0 0 -418.332 -21.9223 4.59972 -778.38 1341.94 1478.75 0 0 0 0.5 
971 2 2 4.39639 4.25018 6.82845 50 0 0 -69.115 -5.59773 24.6169 335.797 584.917 -1656.46 0 0 0 0.5 
113 1 1 0.690911 4.11844 7.80281 40 0 -1 -74.9685 -17.5977 -5.05127 -513.371 126.064 -713.218 0 0 0 0.5 
102 1 1 0.534859 3.60791 6.97398 -23 0 -1 -135.979 -2.17743 -16.9564 -49.6288 1842.93 61.216 0 0 0 0.5 
987 2 2 4.27346 2.18465 7.49583 203 1 0 -310.238 13.3741 19.6805 1653.26 667.122 1076.88 0 0 0 0.5 
687 2 2 3.56045 0.289408 7.1914 179 1 0 -498.06 9.61435 -1.80131 2273.99 61.3288 -275.665 0 0 0 0.5 
345 1 1 4.71799 1.16598 6.185 211 1 0 -358.022 -14.5435 10.3115 -4185.3 -1125.58 -1272.68 0 0 0 0.5 
764 2 2 0.35421 4.87073 7.9336 -48 0 0 -16.8987 -1.38762 -18.9947 -567.993 643.074 186.458 0 0 0 0.5 
496 1 1 4.11462 4.84932 7.66105 87 0 -1 -17.9219 -7.18652 -0.785894 94.8061 -549.289 6.31474 0 0 0 0.5 
169 1 1 2.72088 0.648434 6.37945 239 1 0 -441.61 1.49457 -4.94976 -100.888 2460.43 -967.068 0 0 0 0.5 
980 2 2 3.43168 1.78731 7.81989 182 1 1 -295.713 4.49179 -14.1963 -2684.67 2802.38 2233.42 0 0 0 0.5 
346 1 1 2.67987 2.52359 7.54491 248 1 0 -251.172 -5.06377 -14.3947 -942.667 708.71 127.626 0 0 0 0.5 
498 1 1 0.0394306 0.218165 9.30538 204 1 0 -474.033 12.9143 1.14389 494.971 88.2343 30.8874 0 0 0 0.5 
2 1 1 2.69656 1.48698 8.82592 -57 0 0 -327.547 -10.5979 -1.13549 -4702.29 776.566 -1152.02 0 0 0 0.5 
865 2 2 4.00483 1.67505 8.52283 -114 0 -1 -300.829 -0.769588 12.8395 -568.166 -517.732 594.135 0 0 0 0.5 
165 1 1 2.15024 1.94512 9.46699 25 0 -1 -302.947 5.82941 18.6394 -976.238 998.247 -2373.68 0 0 0 0.5 
756 2 2 1.19171 1.02887 8.04436 -118 0 1 -399.402 2.72616 -4.04809 0 0 0 0 0 0 0.5 
981 2 2 2.47491 0.251098 8.88987 119 1 -1 -484.703 -5.05166 -11.1983 298.067 1955.52 893.755 0 0 0 0.5 
4 1 1 1.50756 0.0087148 8.91874 -175 0 -1 -498.955 11.9995 -13.899 -1002.01 -214.01 -1934.44 0 0 0 0.5 
421 1 1 3.53014 1.18355 9.1402 202 1 -1 -415.688 16.272 -11.5989 3417.75 805.609 -108.718 0 0 0 0.5 
753 2 2 4.14345 4.46894 9.51222 68 0 0 -74.03 11.1189 13.9287 -362.418 1406.95 -1301.06 0 0 0 0.5 
39 1 1 0.589044 2.13436 9.81644 -105 0 -1 -284.893 3.10266 15.1464 1891.17 -2187.25 273.514 0 0 0 0.5 
596 2 2 0.298373 1.77496 8.80463 -104 0 0 -321.535 -12.9076 -2.20719 -1788.86 1519.31 -1536.02 0 0 0 0.5 
173 1 1 4.12576 0.904613 9.26393 192 1 0 -433.522 -1.07539 12.1155 234.143 -296.717 1177.75 0 0 0 0.5 
717 2 2 2.8464 0.902358 9.44541 -102 0 0 -389.039 -20.6308 39.5842 -2313.06 -2209.35 -880.093 0 0 0 0.5 
582 2 2 2.32289 3.71792 9.68852 -10 0 -1 -128.84 3.73476 9.44618 2198.48 -1745.49 1396.6 0 0 0 0.5 
329 1 1 0.848086 2.41467 8.0884 -139 0 0 -239.384 -10.0476 -4.633 11.3695 -2128.11 -1579.01 0 0 0 0.5 
880 2 2 0.937332 3.34786 9.36559 3 0 0 -151.244 3.23651 12.6201 -249.297 -305.351 -1328.19 0 0 0 0.5 
671 2 2 0.0610795 3.65871 8.45176 -27 0 0 -99.1556 -11.273 -16.311 -1077.55 422.507 -722.63 0 0 0 0.5 
733 2 2 1.26867 1.95453 9.45858 112 0 -1 -302.89 -4.6425 -20.065 1507.89 -3213.97 365.987 0 0 0 0.5 
155 1 1 4.65242 3.82749 9.5845 37 0 0 -82.8053 -16.9895 -11.7744 -433.404 451.86 2351.07 0 0 0 0.5 
922 2 2 2.24094 3.88471 8.65525 24 0 0 -64.4302 -10.8447 9.45353 -1233.99 1231.68 1617.17 0 0 0 0.5 
689 2 2 1.19625 0.563025 9.62443 -142 0 0 -446.486 19.2448 12.3303 364.776 -661.704 730.7 0 0 0 0.5 
863 2 2 1.00237 2.64762 8.95305 -66 0 0 -221.167 -29.1188 3.59399 -92.5737 302.567 231.312 0 0 0 0.5 
205 1 1 0.865361 1.09262 9.0879 -92 1 -1 -399.71 16.4825 -38.7145 2557.51 -2903.77 785.897 0 0 0 0.5 
314 1 1 1.80822 2.77545 8.57628 -102 0 0 -229.239 5.76835 -23.4972 -177.873 162.078 -256.78 0 0 0 0.5 
721 2 2 0.0415788 2.45143 9.28587 218 1 0 -259.158 5.76032 0.239992 -1823.23 1935.16 -550.585 0 0 0 0.5 
737 2 2 3.57667 0.516523 8.19262 -76 0 0 -455.241 23.1434 12.1577 1599.88 2153.36 605.216 0 0 0 0.5 
16 1 1 2.78326 0.686053 8.06255 -132 0 0 -410.673 -7.85294 -1.53212 -4485.88 141.129 1562.01 0 0 0 0.5 
214 1 1 1.56238 4.12597 9.30091 -24 0 -1 -79.4926 -15.9686 -3.48115 -483.956 1773.21 -962.818 0 0 0 0.5 
321 1 1 3.98189 2.52527 9.98903 -15 0 -1 -234.424 14.7674 10.7218 274.023 -50.9991 -149.082 0 0 0 0.5 
537 2 2 4.15526 0.166373 8.65384 147 1 0 -470.224 -3.47184 11.4219 1010.9 -1183.99 597.854 0 0 0 0.5 
978 2 2 4.42833 3.89923 8.7049 27 0 -1 -91.1862 -2.33209 -3.69928 -1292.32 1592.82 -495.475 0 0 0 0.5 
383 1 1 2.70261 3.30728 8.02135 -85 0 0 -163.954 11.5843 1.3108 1495.85 -2294.09 -2318.4 0 0 0 0.5 
947 2 2 2.57777 2.90652 9.02007 -12 0 0 -236.264 21.3154 -7.33912 -150.158 477.778 -339.288 0 0 0 0.5 
740 2 2 4.20888 1.81959 9.51253 -83 0 0 -272.878 -9.95934 -11.8922 785.176 576.499 14.9591 0 0 0 0.5 
241 1 1 0.665839 3.22931 8.50882 331 1 1 -113.014 -15.721 -9.56564 -56.9846 2582.84 -61.3231 0 0 0 0.5 
159 1 1 3.20081 2.63694 9.56797 252 1 -1 -236.209 -6.07925 -17.4135 403.579 89.881 946.323 0 0 0 0.5 
607 2 2 2.66333 4.56834 9.25525 79 0 0 -71.0388 10.0116 0.173817 1895.96 -594.231 1414.28 0 0 0 0.5 
331 1 1 0.946581 4.45611 8.62724 -11 0 -1 -19.1697 -16.5289 -7.21603 -1192.43 1297.23 -1151.58 0 0 0 0.5 
949 2 2 1.88983 4.81077 8.67827 100 0 1 -5.80738 -1.61353 -13.9365 602.734 -0.940515 -1279.32 0 0 0 0.5 
201 1 1 3.25888 3.88061 8.77522 -80 0 0 -72.6188 -16.4756 27.8146 0 0 0 0 0 0 0.5 
106 1 1 2.67683 2.16742 8.34329 -63 0 -1 -269.884 5.01384 2.94149 -474.872 925.232 210.653 0 0 0 0.5 
108 1 1 4.87869 0.534627 9.14916 -178 0 0 -462.538 18.5717 -8.57028 2382.94 140.237 346.484 0 0 0 0.5 
125 1 1 4.88469 3.20349 8.36492 -290 -1 0 -126.068 -0.596391 -6.72092 -1866.08 1761.54 462.667 0 0 0 0.5 
652 2 2 4.95198 1.84842 8.1114 -46 0 0 -334.454 2.3383 22.4801 -633.627 2203.29 191.787 0 0 0 0.5 
47 1 1 2.89979 9.43181 0.145859 -136 -1 0 438.541 28.3566 -5.51952 144.066 142.189 -263.02 0 0 0 0.5 
412 1 1 2.77562 7.80815 1.74625 -254 -1 1 286.926 5.62704 -9.11436 -1311.21 2060.41 -1632.63 0 0 0 0.5 
545 2 2 -0.0529885 7.58097 0.954772 130 0 -1 262.628 -10.4426 15.2947 226.326 -389.397 241.085 0 0 0 0.5 
723 2 2 2.56128 6.31004 1.94981 112 0 0 110.454 -1.46311 -2.86321 609.356 1011.41 1654.47 0 0 0 0.5 
141 1 1 2.85486 8.34017 0.648162 -103 -1 1 388.893 -22.9893 -9.94209 -1886.11 -111.022 592.252 0 0 0 0.5 
670 2 2 0.372401 8.48755 0.577994 -107 -1 1 333.348 -1.67803 32.532 576.091 -2065.73 1258.6 0 0 0 0.5 
471 1 1 4.6212 6.74114 0.304834 94 0 1 143.964 -1.81634 -6.54816 1725.47 -326.145 -930.058 0 0 0 0.5 
49 1 1 0.68166 9.51546 0.925453 9 0 1 458.89 -16.7587 -11.2642 914.644 -750.295 -2671.98 0 0 0 0.5 
623 2 2 3.07834 5.41758 0.835139 -55 0 1 29.5203 -20.2767 8.79303 1004.59 -330.01 -920.204 0 0 0 0.5 
472 1 1 0.673323 6.23296 1.78855 12 0 1 86.7432 13.8464 26.3453 260.291 1357.34 -1371.39 0 0 0 0.5 
664 2 2 4.27349 9.12538 0.641289 120 0 0 383.343 42.8625 -18.5834 -1079.46 139.551 -483.894 0 0 0 0.5 
28 1 1 0.152676 9.27543 0.0979551 75 0 0 477.603 -26.724 -1.39096 -3325.25 3643.3 411.484 0 0 0 0.5 
849 2 2 1.58396 5.56088 0.0168113 41 0 1 58.8818 -3.25316 -5.13125 -43.0628 852.17 -992.631 0 0 0 0.5 
752 2 2 3.02718 7.10477 0.395927 28 0 -1 190.759 20.6939 -13.5554 2805.39 -757.058 592.981 0 0 0 0.5 
279 1 1 2.99555 7.18298 1.91576 440 1 0 210.136 -15.2221 22.4665 -521.256 -3200.81 2200.87 0 0 0 0.5 
832 2 2 3.76272 7.98762 1.73857 12 0 0 302.573 -26.3524 23.3585 -2182.32 2122.81 2960.91 0 0 0 0.5 
27 1 1 4.1262 8.34823 0.62894 -162 -1 1 361.297 0.704215 -20.2282 1787.05 -7.40295 2517.18 0 0 0 0.5 
916 2 2 3.60416 8.51584 1.09965 -127 -1 0 381.829 -5.05674 -1.34314 -1615.39 1733.99 2054.48 0 0 0 0.5 
762 2 2 1.19037 9.60032 1.5803 -133 -1 1 450.503 12.6284 2.13432 165.487 377.91 854.774 0 0 0 0.5 
724 2 2 2.88728 8.59281 1.97233 -221 -1 0 377.191 8.70965 4.15048 -399.083 465.186 -394.428 0 0 0 0.5 
181 1 1 4.39002 9.91109 1.33166 139 0 0 528.051 -7.11006 -4.69707 -2848.15 1388.05 -483.112 0 0 0 0.5 
18 1 1 0.231356 5.72633 0.61525 -46 0 1 71.469 -4.74372 -12.3108 -1387.4 -2193.22 -333.019 0 0 0 0.5 
588 2 2 3.80789 8.80491 1.98289 82 0 1 384.405 8.72955 -1.82352 -3295.31 3283.43 1288 0 0 0 0.5 
948 2 2 1.50761 8.4866 1.23685 244 0 0 381.4 4.95574 13.588 77.1416 13.3205 467.02 0 0 0 0.5 
242 1 1 4.0247 6.96263 0.475972 -327 -1 1 178.625 -12.0256 6.70096 -3622.84 -926.259 371.625 0 0 0 0.5 
567 2 2 1.34962 8.45932 0.280401 39 0 1 351.028 6.22281 21.8633 118.274 1553.58 143.373 0 0 0 0.5 
902 2 2 1.7686 5.5497 1.98572 281 1 1 39.6953 -18.2773 8.54736 -1524.39 -2625.04 2328.57 0 0 0 0.5 
846 2 2 2.35147 5.49464 1.34502 -44 0 1 51.0052 -6.60169 13.9676 903.652 -464.588 1982.1 0 0 0 0.5 
382 1 1 2.21377 5.26229 0.218415 -244 -1 -1 62.6372 -15.5237 8.45116 -2075.48 -102.731 -1531.46 0 0 0 0.5 
837 2 2 1.77841 7.20036 1.54164 -233 -1 0 256.114 -1.71416 -12.349 -1198.47 -1164.04 -133.958 0 0 0 0.5 
302 1 1 4.32495 7.56019 1.25541 120 0 0 227.925 -9.37415 14.3868 1535.34 -2442.28 -383.606 0 0 0 0.5 
149 1 1 2.95837 6.2555 0.577223 -20 0 0 105.279 0.837977 -18.876 4277.9 -1544.58 895.072 0 0 0 0.5 
458 1 1 1.90426 5.64924 0.827343 38 0 0 54.202 -5.45802 -1.94498 1581 2065.38 64.3707 0 0 0 0.5 
384 1 1 2.3653 6.46772 0.98455 -21 0 0 124.123 -0.614699 22.9801 -1077.1 -1425.05 -367.828 0 0 0 0.5 
858 2 2 0.989379 5.46099 0.652149 0 0 0 71.264 -5.43739 11.7273 -438.066 -821.818 1165.94 0 0 0 0.5 
691 2 2 0.912286 5.34687 1.60261 212 1 0 18.34 1.47942 28.2218 881.142 -618.543 -2655.94 0 0 0 0.5 
852 2 2 2.24726 6.56924 0.00362888 -214 -1 1 183.204 -2.66182 -14.9051 -2112.59 85.0202 -2229.37 0 0 0 0.5 
194 1 1 4.52064 8.46447 1.79129 -279 -1 0 302.106 34.35 -2.10225 4937.34 -2400.66 -2602.53 0 0 0 0.5 
362 1 1 1.62438 7.58944 0.585535 62 0 1 266.497 19.8268 -13.6647 -705.706 -1538.6 -1038.49 0 0 0 0.5 
772 2 2 0.0318136 5.44484 1.91658 -58 0 2 19.2774 22.4315 -1.92505 2616.22 -1905.72 259.065 0 0 0 0.5 
758 2 2 1.48269 6.13241 1.30554 8 0 0 86.8552 -0.725294 8.94665 -179.135 2935.92 -1199.13 0 0 0 0.5 
429 1 1 1.64995 6.7238 0.725314 9 0 1 178.304 -3.22387 -35.1769 -3938.59 936.011 1414.2 0 0 0 0.5 
396 1 1 2.42032 7.34631 1.04421 -12 0 1 207.404 33.0136 -8.61225 4702.88 -637.46 56.235 0 0 0 0.5 
920 2 2 3.42509 9.28832 1.28359 -208 -1 1 448.903 23.7281 -12.0169 -767.265 1910.12 -625.687 0 0 0 0.5 
637 2 2 2.03863 9.23762 1.74854 -123 -1 2 445.714 4.23764 5.25653 322.667 -253.103 577.773 0 0 0 0.5 
634 2 2 3.51241 6.89473 1.35735 93 0 -1 177.671 8.1805 -31.4453 669.362 -202.134 -1112.21 0 0 0 0.5 
574 2 2 0.800702 7.78963 1.72612 24 0 1 284.307 20.0043 -23.3771 2326.17 592.409 13.8538 0 0 0 0.5 
386 1 1 0.831976 7.63836 0.849116 110 0 0 261.02 -1.70604 0.58328 -27.5603 -236.093 -1903.94 0 0 0 0.5 
368 1 1 2.51592 9.23962 0.923629 53 0 0 440.864 -5.29785 3.75275 108.425 -180.29 -189.265 0 0 0 0.5 
462 1 1 3.792 7.66887 0.787013 138 0 0 223.487 -12.5463 -11.7023 -1071.49 2516.76 -754.18 0 0 0 0.5 
341 1 1 3.9773 5.37452 0.748828 16 0 0 38.4138 -0.0403422 -1.39768 513.063 -27.6502 42.164 0 0 0 0.5 
265 1 1 4.00738 6.28192 1.58807 -64 0 1 164.283 -25.0248 1.69098 -495.408 2530.3 430.133 0 0 0 0.5 
889 2 2 4.22382 5.33056 1.68129 3 0 0 24.3664 -3.64293 10.857 564.847 -2700.12 548.115 0 0 0 0.5 
274 1 1 4.88713 7.64271 1.87161 -235 -1 -1 247.898 9.26635 9.46311 884.161 -754.392 817.375 0 0 0 0.5 
696 2 2 4.87103 7.54895 0.802137 36 0 0 210.285 14.7514 -20.6139 208.326 -876.515 -1979.45 0 0 0 0.5 
133 1 1 1.84264 9.43571 2.83808 152 0 1 444.603 4.75484 -17.3111 -2189.7 821.104 -1272.71 0 0 0 0.5 
435 1 1 3.34146 7.09292 3.99508 58 0 -1 255.165 -15.5288 42.6137 -2985.62 483.095 1787.75 0 0 0 0.5 
275 1 1 0.0260694 7.97109 2.18123 -164 -1 0 348.886 -10.9778 -0.834343 -2918.66 683.7 1714.77 0 0 0 0.5 
267 1 1 2.0076 9.9209 3.8468 -164 -1 0 474.538 16.8808 -21.4253 5830.83 -1282.32 850 0 0 0 0.5 
112 1 1 1.98645 8.08025 2.51503 18 0 0 316.082 -10.3801 -9.89233 939.704 -775.735 -1772.87 0 0 0 0.5 
387 1 1 0.206462 8.36428 3.13753 -218 -1 0 361.644 -2.57116 -3.30843 -4151.72 2378.44 691.448 0 0 0 0.5 
449 1 1 3.06518 7.82534 2.62606 32 0 0 245.751 26.7229 5.15717 -84.3834 531.803 -575.703 0 0 0 0.5 
695 2 2 3.34101 9.9391 3.88676 107 0 0 461.236 22.5027 -12.956 504.628 1314.99 83.4064 0 0 0 0.5 
942 2 2 -0.0266363 8.98932 2.34213 62 0 0 394.603 -3.08236 -17.633 1973.18 -401.896 -169.198 0 0 0 0.5 
963 2 2 1.57666 8.06919 3.73727 101 0 0 344.103 13.6272 -24.3557 -2635.33 1835.38 2044.05 0 0 0 0.5 
515 2 2 3.65018 7.16269 3.01983 -231 -1 -1 209.346 -4.02601 -9.84623 1232.22 608.526 -442.187 0 0 0 0.5 