ITEM: TIMESTEP
40000
ITEM: NUMBER OF ATOMS
1000
ITEM: BOX BOUNDS xy xz yz pp pp pp
0 10 0
0 10 0
-0 10 0
ITEM: ATOMS id type type x y z ix iy iz vx vy vz fx fy fz omegax omegay omegaz radius 
711 2 2 3.34622 1.47462 0.595619 138 1 0 -308.978 -7.47898 7.51894 39.0273 -23.3712 105.533 0 0 0 0.5 
147 1 1 1.34988 2.39675 0.298919 -122 0 0 -257.319 -1.29018 19.1008 -573.539 -2507.58 704.284 0 0 0 0.5 
977 2 2 0.174079 1.84174 0.956776 132 1 0 -312.956 -20.8873 9.82399 2644.27 -2382.63 171.147 0 0 0 0.5 
765 2 2 3.5866 4.82631 1.13303 242 1 0 17.1373 -18.7404 -16.1975 1198.26 -1526.97 -587.042 0 0 0 0.5 
108 1 1 0.374821 0.731413 0.432299 -169 0 1 -432.056 8.68098 10.6653 1512.03 2754.15 -758.991 0 0 0 0.5 
354 1 1 3.01572 1.41717 1.84526 -57 0 1 -343.498 -4.31524 -27.2011 -431.803 99.5559 -246.505 0 0 0 0.5 
812 2 2 1.6678 1.56267 1.13453 23 0 1 -346.78 12.1095 27.9278 382.934 504.157 -103.894 0 0 0 0.5 
761 2 2 4.56845 0.284693 0.665362 -143 0 1 -421.731 6.43819 5.26114 -1215.59 1778.95 307.143 0 0 0 0.5 
41 1 1 0.981071 2.49816 1.57911 -174 0 0 -284.624 11.2649 -11.2821 3296.95 -1451.53 -151.435 0 0 0 0.5 
416 1 1 0.592455 3.13874 1.00177 -102 0 0 -230.609 26.6823 -14.2024 4276.99 -2853.55 588.38 0 0 0 0.5 
621 2 2 2.60307 4.58615 0.887479 1 0 1 -8.51857 -16.2452 14.6874 104.814 -2144.12 337.489 0 0 0 0.5 
860 2 2 2.16898 3.74442 1.07199 -29 0 1 -89.6092 -14.0544 -12.8362 647.702 1328.81 -796.836 0 0 0 0.5 
968 2 2 1.82937 0.588326 0.767284 238 1 1 -414.323 -18.7169 1.33468 -2786.73 374.923 1413.12 0 0 0 0.5 
541 2 2 0.185183 2.70315 1.80001 193 1 0 -252.036 11.4194 -8.5189 -560.255 -884.593 -1948.18 0 0 0 0.5 
39 1 1 2.49452 2.1759 0.390997 -100 0 0 -239.105 -11.3821 1.3585 0 0 0 0 0 0 0.5 
804 2 2 0.873521 1.57714 0.562817 -166 0 0 -329.703 3.88982 10.5735 1398.95 -1602.58 -1714.13 0 0 0 0.5 
947 2 2 4.40492 1.90682 1.31287 -7 0 1 -218.895 -26.2315 17.2134 343.455 -1414.68 382.697 0 0 0 0.5 
284 1 1 2.0161 3.34428 1.87904 -100 0 0 -112.83 -34.5466 -22.5882 -437.457 -944.658 -1846.71 0 0 0 0.5 
183 1 1 0.188376 0.62295 1.32304 117 1 -1 -419.477 -7.16314 2.70689 388.787 -2028.71 -44.6934 0 0 0 0.5 
503 2 2 1.59367 0.754253 1.68245 13 1 0 -426.191 5.16643 -7.00636 -303.306 -17.3196 404.918 0 0 0 0.5 
760 2 2 4.26324 4.1303 1.77083 -55 0 1 -90.5595 5.80224 8.77539 -1600.82 896.398 -54.8024 0 0 0 0.5 
67 1 1 0.382224 4.33401 1.21839 253 1 1 -79.8061 16.3859 22.0346 -257.473 -1845.51 -212.27 0 0 0 0.5 
767 2 2 4.90314 3.66447 0.725761 -103 0 1 -105.617 -1.85877 -16.2662 -269.819 61.2854 -32.8609 0 0 0 0.5 
762 2 2 2.66177 0.760751 0.963574 -124 0 1 -435.378 22.0283 4.78576 1881.1 -655.486 417.005 0 0 0 0.5 
905 2 2 3.47979 2.45007 0.146324 -67 0 0 -253.639 -18.0218 2.02484 -2311.22 2076.1 280.791 0 0 0 0.5 
161 1 1 2.98369 4.24004 1.89779 1 0 1 -41.5621 -17.5938 -23.0155 513.411 1200.05 304.985 0 0 0 0.5 
218 1 1 0.495644 4.0189 0.271921 8 0 0 -106.582 -26.2594 23.0592 -496.469 -1206.72 -148.896 0 0 0 0.5 
787 2 2 4.19079 2.2289 0.103226 -66 0 1 -252.46 7.78838 19.8873 2973.68 -590.309 -2443.33 0 0 0 0.5 
699 2 2 3.79455 2.94664 1.63683 29 0 -1 -155.666 -2.88502 7.4806 -904.466 585.2 -636.318 0 0 0 0.5 
1000 2 2 4.33654 1.09014 1.42018 -101 0 0 -317.521 -42.44 -19.8794 -1734.35 -759.627 -710.328 0 0 0 0.5 
626 2 2 4.03488 2.42056 0.997372 -59 0 -1 -193.057 -16.3943 -12.2304 -1222.33 1196.73 1815.93 0 0 0 0.5 
539 2 2 1.30133 3.28842 0.0779376 -102 0 1 -181.52 -6.76258 29.4865 -227.382 663.054 124.533 0 0 0 0.5 
301 1 1 1.43025 4.46548 1.76507 70 0 0 -29.3403 -8.74898 5.13965 -892.652 -860.718 -857.892 0 0 0 0.5 
549 2 2 0.0740885 3.49508 0.963614 -151 0 0 -190.758 11.9816 9.67705 1739.41 2264.38 -1792.23 0 0 0 0.5 
999 2 2 1.21692 3.63117 1.62327 -41 0 0 -109.327 -28.7311 -15.5507 -731.14 1277.36 -327.069 0 0 0 0.5 
527 2 2 3.67961 3.11202 0.64372 3 0 0 -169.979 14.5461 8.63728 -565.492 475.731 -1023.32 0 0 0 0.5 
214 1 1 3.98027 3.97076 0.77651 -22 0 0 -106.684 19.8032 -2.90574 28.2728 -479.672 -74.8184 0 0 0 0.5 
623 2 2 0.497285 4.72991 0.285108 -55 0 1 -6.33534 2.81262 -4.77516 2329.42 -242.947 87.7708 0 0 0 0.5 
769 2 2 4.75707 1.2882 0.540167 -44 0 1 -353.165 0.199984 -8.92079 -202.479 595.935 -502.945 0 0 0 0.5 
293 1 1 4.78636 2.90539 1.45061 -143 0 1 -191.09 -9.33391 -2.95809 62.3682 1322.22 270.145 0 0 0 0.5 
514 2 2 4.60671 0.00987685 3.08192 -90 0 0 -499.457 -24.2329 33.5652 -1942.7 1516.89 -96.0934 0 0 0 0.5 
895 2 2 1.38517 2.41231 2.87762 -84 0 0 -277.268 -3.68641 -4.80002 2431.57 -2539.37 -2296.55 0 0 0 0.5 
263 1 1 1.08409 0.363005 2.52456 -90 0 1 -474.249 24.0249 -1.33003 1060.99 1341.87 -318.129 0 0 0 0.5 
307 1 1 0.878526 2.76514 3.52734 222 1 -1 -197.19 -8.75097 -3.40699 -724.276 804.625 45.0587 0 0 0 0.5 
440 1 1 0.304879 1.95476 2.46095 -11 0 0 -322.399 9.91324 1.21814 1409.31 -2965.34 -1826.82 0 0 0 0.5 
195 1 1 3.30689 4.97617 2.90463 -217 -1 1 14.6822 -20.189 -1.45034 -1764.39 8.5012 1653.59 0 0 0 0.5 
921 2 2 3.09879 4.08737 2.81847 -72 0 1 -74.8702 10.877 2.67337 -429.915 1567.81 -737.99 0 0 0 0.5 
659 2 2 1.83506 0.0723969 2.28059 -124 0 0 -465.772 -3.90065 -0.0423655 141.1 -849.814 229.126 0 0 0 0.5 
327 1 1 3.42443 3.31281 2.80064 -55 0 0 -184.804 -4.76565 7.3622 2501.94 -2659.04 411.811 0 0 0 0.5 
877 2 2 3.18399 1.39873 3.88883 210 1 1 -398.985 7.51788 -2.59377 251.486 -1000.24 -1598.21 0 0 0 0.5 
439 1 1 0.198974 1.05675 2.16325 -70 0 0 -392.604 0.00700428 7.59357 2283.66 -653.803 -1314.54 0 0 0 0.5 
658 2 2 4.71622 1.47091 3.05049 -61 0 0 -289.081 -7.75149 -17.6349 873.011 867.092 -80.3315 0 0 0 0.5 
266 1 1 2.31343 4.10167 3.10883 -229 -1 0 -83.3968 -11.7525 4.79596 343.075 -1720.75 294.227 0 0 0 0.5 
104 1 1 1.78898 3.99325 2.40343 -4 0 0 -68.4006 -25.2776 -7.38456 1962.49 443.525 1467.24 0 0 0 0.5 
426 1 1 3.01137 0.561212 3.14655 127 1 -1 -420.943 1.40782 2.92782 -1823.31 2297.46 -1453.95 0 0 0 0.5 
741 2 2 2.52167 3.17429 2.46901 -113 0 0 -159.749 -11.7093 4.18167 505.01 -806.452 1628.89 0 0 0 0.5 
364 1 1 1.04556 3.26962 2.71013 -56 0 0 -192.474 15.5777 -9.33506 5654.43 70.951 -1817.09 0 0 0 0.5 
312 1 1 4.82075 4.16913 2.74705 8 0 1 -64.9953 -5.83442 26.2558 -1664.02 474.053 351.186 0 0 0 0.5 
995 2 2 2.04768 3.20967 3.62695 -134 0 1 -236.024 15.1034 3.57431 -92.3294 79.4931 29.7985 0 0 0 0.5 
288 1 1 1.09795 1.64336 3.58856 -37 0 -1 -334.912 -2.28645 4.70388 0 0 0 0 0 0 0.5 
742 2 2 2.13003 4.3565 3.84806 4 0 -1 -39.3602 -19.1577 19.3732 -809.751 -19.1625 933.739 0 0 0 0.5 
78 1 1 2.21038 0.537169 3.76846 -23 0 1 -440.605 -1.05879 -2.87536 -669.645 140.773 -591.472 0 0 0 0.5 
189 1 1 2.45301 1.17042 2.82136 199 1 0 -400.332 20.0113 -12.3101 -518.959 566.214 -302.244 0 0 0 0.5 
925 2 2 0.317909 0.198709 2.50561 129 1 0 -472.383 -0.651266 -11.3445 871.906 -667.717 -875.625 0 0 0 0.5 
126 1 1 3.94862 2.0209 2.79792 199 1 -1 -257.886 -4.87768 -0.240441 -1709.04 625.248 -1837.65 0 0 0 0.5 
513 2 2 4.12509 4.79172 2.55874 -80 0 0 -13.5834 1.74565 2.0745 922.83 733.806 -1365.6 0 0 0 0.5 
254 1 1 0.220854 3.36693 2.99765 -6 0 0 -88.8425 -22.8975 -13.1939 -5487.76 -2078.47 -970.985 0 0 0 0.5 
399 1 1 2.98792 4.70684 3.75609 -125 0 -1 -35.3693 4.47606 -5.06757 110.133 -1446.89 -93.5614 0 0 0 0.5 
620 2 2 2.70286 2.64558 3.4155 -23 0 0 -230.938 -5.54155 -4.04358 135.773 -160.166 -141.502 0 0 0 0.5 
478 1 1 4.50986 2.13219 3.50671 -21 0 1 -262.443 -6.05408 3.69795 453.351 1915.52 1997.27 0 0 0 0.5 
592 2 2 3.11302 3.79391 3.93638 -31 0 0 -83.3467 -17.456 12.4123 -47.3953 345.883 -68.305 0 0 0 0.5 
526 2 2 2.75425 0.384074 2.25767 -128 0 1 -478.805 12.355 -1.1933 264.507 996.363 809.649 0 0 0 0.5 
944 2 2 0.337763 3.80318 2.03554 -86 0 1 -91.4948 -1.43244 6.30345 -523.081 -1967.7 2176.41 0 0 0 0.5 
207 1 1 3.77383 1.24238 2.27805 189 1 1 -339.433 -8.89125 -12.7425 586.883 591.187 707.761 0 0 0 0.5 
809 2 2 2.98763 2.11679 2.68331 188 1 0 -258.895 -17.9187 -22.5864 -184.569 94.7538 94.8711 0 0 0 0.5 
591 2 2 0.288777 4.98786 3.73771 -287 -1 1 13.401 -3.8345 -10.5891 1757.98 -1089.63 -2070.32 0 0 0 0.5 
232 1 1 4.89845 0.793281 2.99315 -85 0 1 -363.301 -29.4892 15.9098 -2137.46 -1212.38 1905.75 0 0 0 0.5 
902 2 2 0.922501 4.33356 2.57052 261 1 1 -33.3386 -1.42914 6.00463 -1924.21 -1119.9 -65.9476 0 0 0 0.5 
540 2 2 0.96412 4.0536 3.46267 -252 -1 0 -46.6278 -23.2086 12.7153 233.43 942.496 -558.202 0 0 0 0.5 
557 2 2 4.81834 1.04191 2.0169 168 1 0 -363.852 -0.499589 27.2938 -2121.96 645.257 1453.46 0 0 0 0.5 
56 1 1 2.05222 4.87612 2.58165 -54 0 0 21.3168 -9.58058 1.81076 718.343 -1168.14 -249.047 0 0 0 0.5 
792 2 2 1.07371 4.95774 3.28715 236 1 0 35.4582 3.20888 9.60874 1404.7 -1527.27 933.588 0 0 0 0.5 
339 1 1 4.23992 2.85262 2.37372 -71 0 1 -186.317 1.33738 25.9241 -1127.35 -802.416 521.642 0 0 0 0.5 
821 2 2 0.429865 0.682846 5.1116 195 1 0 -455.511 25.21 4.79328 2667.56 -2723.87 -1947.14 0 0 0 0.5 
875 2 2 2.34822 2.22876 4.29249 -49 0 1 -277.878 -0.869983 -9.31793 -1531.56 755.664 -766.33 0 0 0 0.5 
495 1 1 3.84388 1.50851 4.79968 -78 0 1 -349.252 0.995373 11.7209 622.546 3849.23 -4.83177 0 0 0 0.5 
345 1 1 1.1388 2.38059 5.87252 197 1 0 -298.758 12.9503 3.81551 1220.89 -42.8456 282.861 0 0 0 0.5 
702 2 2 1.68844 1.46428 5.28181 210 1 0 -370.307 8.71436 -19.3333 1665.93 497.45 459.752 0 0 0 0.5 
962 2 2 4.40166 0.144193 4.17098 -150 0 0 -486.662 -5.61778 -1.5152 -53.4851 164.213 -20.0401 0 0 0 0.5 
414 1 1 0.0967632 0.558621 4.30361 143 1 0 -440.203 6.02848 -14.7563 -1749.46 -644.127 -355.912 0 0 0 0.5 
55 1 1 0.00646051 1.5223 5.14127 131 1 0 -330.308 4.2504 1.94743 -579.87 3218.85 -416.139 0 0 0 0.5 
295 1 1 1.36421 0.77055 4.19569 135 1 -1 -431.306 -6.28139 8.21233 190.147 -164.732 -818.465 0 0 0 0.5 
42 1 1 1.72673 3.24316 5.38377 -90 0 0 -214.589 19.7716 -8.97645 0 0 0 0 0 0 0.5 
845 2 2 3.79549 4.05584 5.56317 -32 0 0 -128.771 12.3791 -18.5335 5778.43 -1578.27 -500.082 0 0 0 0.5 
172 1 1 0.240939 1.52273 4.2677 -177 0 0 -335.671 -3.48097 5.88605 -470.649 -586.936 -508.344 0 0 0 0.5 
751 2 2 1.00776 2.44544 4.43532 175 1 1 -224.721 -21.7721 -15.1285 100.339 27.0056 864.792 0 0 0 0.5 
113 1 1 2.02775 4.28316 5.49598 42 0 -1 -65.4477 -8.79404 10.4108 -518.623 -178.314 -83.2711 0 0 0 0.5 
896 2 2 0.976407 3.33124 4.68442 -16 0 -1 -159.761 2.72403 -16.3147 1916.12 -823.306 239.339 0 0 0 0.5 
919 2 2 1.43737 4.36679 4.69975 -144 -1 0 -49.9245 -19.7588 -11.015 3556.31 1396.17 2164.92 0 0 0 0.5 
337 1 1 0.843594 0.369259 5.74522 155 1 0 -491.416 22.6668 4.37554 1181.92 -391.355 468.347 0 0 0 0.5 
197 1 1 4.12297 0.999839 4.06656 114 1 0 -456.272 26.1826 -5.43248 757.508 -1447.37 -1829.32 0 0 0 0.5 
524 2 2 2.11012 1.21257 5.95236 -72 0 1 -399.271 20.2717 4.01516 1103.12 282.608 -1135.3 0 0 0 0.5 
786 2 2 4.3064 0.745583 5.03405 -155 0 1 -474.792 17.0441 -0.427205 3883.38 -6200.67 -2155.27 0 0 0 0.5 
666 2 2 3.79891 2.42154 4.52735 14 0 0 -284.247 19.48 -20.9742 782.167 -2112.7 -724.931 0 0 0 0.5 
645 2 2 0.104305 1.50528 5.99694 132 1 -1 -364.208 18.568 5.32247 -252.357 382.62 653.135 0 0 0 0.5 
544 2 2 0.237386 2.41222 5.66368 -6 0 0 -291.853 10.6251 16.5146 104.148 -947.582 -475.825 0 0 0 0.5 
673 2 2 1.91919 0.343398 5.21057 146 1 -1 -453.286 -6.94016 18.943 3.71035 1.42576 6.01442 0 0 0 0.5 
280 1 1 1.0439 1.47557 4.69994 -133 0 0 -351.173 6.34635 9.56956 -1545.48 1243.64 -437.738 0 0 0 0.5 
393 1 1 0.683024 3.46851 5.51317 108 1 -1 -149.971 -16.9225 -1.86058 -253.891 114.166 629.683 0 0 0 0.5 
346 1 1 3.94732 2.8422 5.85944 232 1 0 -222.298 13.6212 -0.976586 -406.344 723.54 -857.956 0 0 0 0.5 
332 1 1 3.72323 4.75684 4.39654 -137 0 0 -18.6063 -14.7213 -14.935 -579.843 600.102 1180.73 0 0 0 0.5 
951 2 2 0.264781 3.8383 4.74208 -44 0 0 -159.028 14.4241 5.62549 4105.42 1971.55 -1987.96 0 0 0 0.5 
974 2 2 1.23356 4.78537 5.56517 355 1 0 -61.8535 4.85897 -19.4552 -256.829 118.492 -528.424 0 0 0 0.5 
282 1 1 0.348608 3.28077 4.00512 221 1 0 -157.236 0.769975 0.186395 2657.44 -335.524 1736.77 0 0 0 0.5 
367 1 1 3.03226 0.344098 4.06483 139 1 -1 -449.378 -6.21357 11.6237 -529.592 1188.28 2484.78 0 0 0 0.5 
285 1 1 3.06411 1.87555 4.65069 60 0 -1 -293.612 1.88885 -3.97382 -2167.68 969.766 2547.69 0 0 0 0.5 
190 1 1 2.95264 4.22632 5.2123 -44 0 1 -78.5674 -21.091 -0.770877 -1709.82 -274.369 -115.781 0 0 0 0.5 
234 1 1 0.734506 4.55033 4.25164 -54 0 0 -21.0482 -11.8282 12.8545 -1682.6 -2663.61 -501.866 0 0 0 0.5 
370 1 1 2.52675 4.642 4.6615 -17 0 0 -54.1359 9.41854 2.53279 -368.607 1508.46 -164.475 0 0 0 0.5 
82 1 1 3.49756 1.96212 5.57583 37 0 -1 -315.285 12.9207 -7.80132 -648.25 889.181 1193.96 0 0 0 0.5 
79 1 1 2.80678 1.20218 5.22672 -111 0 1 -392.802 7.46692 22.9871 -1364.79 3097.27 -729.224 0 0 0 0.5 
131 1 1 3.29013 0.619728 5.19303 103 1 0 -417.185 -4.97584 8.91856 1674.14 -2346.57 -199.845 0 0 0 0.5 
394 1 1 4.54048 4.56625 4.06516 174 1 -1 -15.7072 -22.3962 -20.1519 -2001.75 -930.822 -1725.94 0 0 0 0.5 
486 1 1 -0.0328822 4.35581 5.37504 206 1 1 -108.449 2.52099 61.1703 1586.43 -2837.22 -6705.6 0 0 0 0.5 
609 2 2 0.282167 4.961 4.8115 -44 0 0 10.5409 -13.2605 30.9494 -1056.2 -803.712 2251.44 0 0 0 0.5 
258 1 1 3.89299 1.27975 5.75127 -117 0 1 -332.105 -30.3916 12.6286 -2034.35 2159.22 2869.65 0 0 0 0.5 
661 2 2 4.55653 2.11872 5.87443 -73 0 -1 -280.328 -29.5013 -3.82953 862.493 1520.4 -732.767 0 0 0 0.5 
58 1 1 3.36329 2.9413 4.97492 42 0 -1 -242.512 30.8801 9.30846 -970.75 1158.26 997.391 0 0 0 0.5 
466 1 1 4.93244 0.433418 5.66905 107 1 0 -463.264 19.8426 -10.8383 146.855 -2115.16 -274.51 0 0 0 0.5 
674 2 2 4.88193 2.84758 4.0047 -53 0 0 -207.284 4.29715 4.21685 -2577.69 862.613 1571.06 0 0 0 0.5 
865 2 2 0.44492 2.42831 6.6353 -108 0 -1 -319.919 33.8393 4.68397 -309.106 877.456 770.845 0 0 0 0.5 
910 2 2 0.603232 2.94863 7.57712 -52 0 1 -206.26 -25.4538 -35.9624 -2018.85 -1041.98 -2419.34 0 0 0 0.5 
640 2 2 1.85466 2.59613 7.15352 -125 0 0 -233.415 -19.535 3.83661 548.654 -1459.25 479.764 0 0 0 0.5 
705 2 2 1.99305 0.680858 6.82404 -154 0 0 -428.221 -0.498352 12.9744 -96.7925 -906.941 561.027 0 0 0 0.5 
687 2 2 2.43109 0.821297 7.72728 168 1 0 -417.839 -19.2626 4.24131 -103.912 825.317 -220.083 0 0 0 0.5 
759 2 2 3.28206 2.25809 6.74938 -84 0 -1 -284.588 8.7325 -23.5029 778.487 -346.607 -1107.72 0 0 0 0.5 
485 1 1 1.79301 1.46914 6.69681 -111 0 1 -375.689 27.7919 -12.7223 465.085 1563.37 754.886 0 0 0 0.5 
929 2 2 4.22466 4.4449 7.86308 -23 0 1 -26.4592 -31.7352 16.0566 -48.5224 717.144 -519.678 0 0 0 0.5 
717 2 2 1.21749 1.93007 7.86655 -95 0 0 -318.976 9.90059 24.9116 -609.977 952.784 -202.711 0 0 0 0.5 
132 1 1 2.24465 3.15505 6.4833 47 0 0 -238.931 6.39702 -3.34026 1682.98 -3916.84 -407.865 0 0 0 0.5 
596 2 2 2.32147 1.69199 7.4951 -97 0 0 -357.633 17.2898 -19.5159 651.605 -655.405 1392.53 0 0 0 0.5 
983 2 2 2.45145 2.17969 6.31421 0 0 -1 -294.391 -2.87451 4.49419 -678.868 -64.0793 -355.672 0 0 0 0.5 
65 1 1 1.12094 1.35868 6.04968 -73 0 0 -365.602 -15.1011 -18.0862 -402.295 -373.829 -527.416 0 0 0 0.5 
764 2 2 3.11743 4.31242 6.12835 -47 0 0 -56.8805 -28.288 14.4165 -1127.26 -672.239 1922.6 0 0 0 0.5 
115 1 1 0.818607 1.79685 6.75978 144 1 -1 -336.198 -10.4289 5.28871 -651.69 -29.9844 -346.103 0 0 0 0.5 
614 2 2 -0.00360713 0.667463 7.98002 143 1 0 -432.171 12.2701 -33.2892 -497.35 -966.764 762.772 0 0 0 0.5 
487 1 1 3.90373 3.3859 6.72674 -128 0 -1 -221.024 22.1223 14.2146 149.668 2036.81 -22.4642 0 0 0 0.5 
252 1 1 3.59866 2.70851 7.86766 168 1 0 -243.252 6.43563 -12.5166 -771.94 -888.276 136.61 0 0 0 0.5 
510 2 2 1.32611 2.84475 7.89868 -54 0 -1 -237.973 17.2391 -1.75398 2758.47 -224.676 1096.58 0 0 0 0.5 
509 2 2 1.19698 3.11608 6.78154 -113 0 0 -181.3 -16.5159 -4.85252 1210.22 -1164.25 -620.411 0 0 0 0.5 
35 1 1 1.80617 3.99261 6.58072 -140 0 1 -121.341 -9.58789 -35.3582 -2085.85 3686.69 611.983 0 0 0 0.5 
31 1 1 0.75139 0.670332 7.14384 165 1 0 -453.29 28.4044 -16.8005 1606.53 1214.19 936.209 0 0 0 0.5 
373 1 1 1.35086 1.49101 7.283 -154 0 -1 -346.52 -22.1152 22.7549 -17.9738 -1534.22 1309.44 0 0 0 0.5 
24 1 1 0.0521971 0.959507 6.70861 186 1 -1 -444.868 3.24418 -17.1966 -1042.75 -1984.31 -2345.79 0 0 0 0.5 
980 2 2 3.72499 1.7987 7.32899 168 1 1 -327.424 2.88942 9.80641 90.0428 361.253 1686.9 0 0 0 0.5 
697 2 2 1.31295 3.84873 7.38022 -29 0 -1 -108.306 -26.1287 -13.7606 1368.52 -640.449 777.313 0 0 0 0.5 
529 2 2 2.02523 4.92987 7.73961 -22 0 0 -49.618 2.56717 0.796853 2210.5 2150.22 645.045 0 0 0 0.5 
352 1 1 4.20757 2.52232 6.70372 -98 0 0 -267.668 2.9759 4.69514 384.666 -1326.47 141.85 0 0 0 0.5 
5 1 1 0.668331 3.46768 6.63962 25 0 -1 -166.95 -3.762 -0.56157 -1017.31 1055.49 -769.096 0 0 0 0.5 
783 2 2 2.41782 0.535004 6.01885 -76 0 1 -426.537 -8.0951 10.0977 365.435 559.006 539.601 0 0 0 0.5 
290 1 1 4.7329 0.619604 6.44209 192 1 0 -418.488 5.67547 21.1004 -2982.26 1903.01 -1219.06 0 0 0 0.5 
84 1 1 4.872 3.38204 7.33905 113 0 0 -143.066 6.10401 -12.4375 -275.174 624.428 499.853 0 0 0 0.5 
204 1 1 0.235438 4.94775 6.90194 -141 0 1 -51.0831 13.5643 0.488064 -2355.04 2886.21 -371.715 0 0 0 0.5 
93 1 1 4.19277 1.45194 6.66181 140 1 -1 -364.231 -1.91196 17.2926 1338.31 -883.528 -1540.57 0 0 0 0.5 
917 2 2 1.02496 4.92921 6.39829 36 0 0 -71.6074 16.4589 -7.56726 292.888 295.077 -917.434 0 0 0 0.5 
220 1 1 4.26887 4.90282 6.32952 288 1 0 -4.96969 -3.75727 -42.1424 -105.874 637.122 -534.985 0 0 0 0.5 
650 2 2 2.60976 4.93357 6.02212 -50 0 0 -43.3027 -21.0363 3.16702 -1236.8 -290.158 -2.68962 0 0 0 0.5 
922 2 2 3.12468 3.21945 6.15464 27 0 0 -224.909 14.1675 -2.03837 1.09739 228.783 466.345 0 0 0 0.5 
992 2 2 0.726215 4.49284 7.25027 -140 0 0 -67.0536 0.689006 -3.5417 -118.197 -286.122 182.822 0 0 0 0.5 
460 1 1 0.44192 4.06957 6.12601 -19 0 0 -130.978 22.1143 -3.12544 1864.76 -437.778 2749.6 0 0 0 0.5 
292 1 1 4.37904 4.23983 6.88622 -325 -1 -1 -80.6613 -10.1948 -21.4499 -705.231 -2094.31 262.837 0 0 0 0.5 
665 2 2 3.19851 1.38772 6.45303 139 1 1 -357.115 -22.1491 -1.28501 345.449 647.66 -46.7485 0 0 0 0.5 
121 1 1 2.76041 2.77223 7.20852 236 1 -1 -257.397 20.6707 15.5882 1314.18 723.21 215.984 0 0 0 0.5 
611 2 2 1.6027 4.73212 6.9279 -45 0 0 -69.8171 12.9368 16.1087 1082.97 316.429 -440.462 0 0 0 0.5 
383 1 1 4.85262 3.40874 6.37713 -82 0 0 -212.527 21.5804 -5.20892 33.7006 -124.396 -868.026 0 0 0 0.5 
16 1 1 4.94275 0.729279 7.40169 -124 0 0 -419.174 -3.6873 -17.1684 -2371.75 2192.12 2523.29 0 0 0 0.5 
981 2 2 0.688289 0.0855279 8.85922 109 1 -1 -526.629 22.446 -7.86292 1381.09 1261.77 -527.952 0 0 0 0.5 
28 1 1 2.23241 0.285498 9.93662 65 1 -1 -476.506 -1.43846 17.0562 1298.07 -814.4 -2198.91 0 0 0 0.5 
577 2 2 2.00449 3.15579 9.62088 188 1 -1 -169.312 11.2381 1.97999 216.636 -1032.65 -374.513 0 0 0 0.5 
198 1 1 4.22213 4.32274 9.57532 -7 0 0 -65.9432 22.1695 6.98619 176.044 1385.72 1417.86 0 0 0 0.5 
956 2 2 1.12061 1.45665 8.76189 -97 0 0 -358.222 7.53872 7.58293 -2851.98 651.445 -1145.57 0 0 0 0.5 
120 1 1 3.43819 0.489635 8.44373 -157 0 -1 -429.535 -15.8226 -9.71974 -154.69 -17.1838 -25.6257 0 0 0 0.5 
708 2 2 0.744578 1.24466 9.68084 -148 0 0 -356.804 -13.1952 21.4162 -1784.55 -166.661 462.373 0 0 0 0.5 
208 1 1 0.588653 2.95688 8.89604 -33 0 0 -189.48 0.483172 10.7045 -1628.9 1328.93 1395.25 0 0 0 0.5 
543 2 2 1.33169 0.446898 9.88841 -163 0 0 -482.325 3.96148 27.5422 287.199 1265.05 -806.058 0 0 0 0.5 
555 2 2 1.60395 3.68235 8.31667 -33 0 -1 -91.03 -15.7406 -11.8558 927.958 -970.6 -625.487 0 0 0 0.5 
329 1 1 4.37701 0.593924 8.59926 -133 0 0 -425.528 8.71592 -18.5434 149.282 29.9981 16.1301 0 0 0 0.5 
569 2 2 1.58752 1.18083 9.28178 221 1 -1 -376.89 1.54843 23.8283 2635.04 -1877.77 2138 0 0 0 0.5 
483 1 1 3.00865 1.67677 9.68281 167 1 -1 -292.305 -11.2955 1.72898 -157.521 1129.49 1261.04 0 0 0 0.5 
66 1 1 0.48861 0.114913 9.80853 -93 0 0 -481.597 -15.7197 9.8965 -2038.91 2071.95 1637.38 0 0 0 0.5 
498 1 1 1.42557 0.154513 8.09969 194 1 0 -510.208 -0.627244 -9.06796 2913.03 -884.867 196.167 0 0 0 0.5 
237 1 1 0.894041 0.784899 8.11276 -118 0 0 -431.847 9.35556 -10.0709 -943.637 4021.7 978.94 0 0 0 0.5 
652 2 2 0.62748 2.12287 8.48626 -39 0 0 -333.818 22.569 8.44071 -1783.85 -681.364 -540.595 0 0 0 0.5 
350 1 1 4.65783 3.16733 9.26315 190 1 -1 -182.981 -1.83394 4.28619 1191.88 -1435.49 45.1779 0 0 0 0.5 
904 2 2 1.49201 2.88609 8.78032 153 1 -1 -237.569 4.83712 11.2597 3420.69 -340.815 -11.5659 0 0 0 0.5 
533 2 2 1.93202 2.25318 9.45208 284 1 -1 -261.085 -15.3742 -1.36773 78.4381 976.998 182.711 0 0 0 0.5 
810 2 2 4.82167 3.39806 8.31432 40 0 0 -140.191 -12.4125 -3.32578 -711.364 892.659 898.916 0 0 0 0.5 
196 1 1 0.316325 2.56973 9.8276 238 1 -1 -247.109 6.46978 -38.4397 2425.52 -217.067 308.77 0 0 0 0.5 
322 1 1 0.132334 1.76275 9.22938 141 1 -1 -349.729 6.22257 0.256496 77.5049 -24.9428 -0.659683 0 0 0 0.5 
162 1 1 3.83355 2.92758 9.44706 169 1 -1 -200.051 12.6054 12.3209 697.789 25.4345 1096.96 0 0 0 0.5 
721 2 2 1.98351 1.84673 8.40086 203 1 0 -324.393 19.2929 10.7006 975.131 -1661.19 249.973 0 0 0 0.5 
378 1 1 1.75857 0.914243 8.47694 -162 0 0 -405.412 1.19459 -1.95272 1033.03 -1530 -2214.46 0 0 0 0.5 
582 2 2 0.539738 4.43717 9.39091 -8 0 -1 -69.6827 -12.6908 14.4532 -1657.54 416.614 -967.534 0 0 0 0.5 
321 1 1 1.02025 3.90096 8.8969 -11 0 -1 -95.8644 -16.3359 2.96085 1387.49 -1208.57 177.76 0 0 0 0.5 
348 1 1 2.00613 4.72171 8.68023 -28 0 0 -43.4428 -1.98654 4.61062 854.535 -134.719 -566.709 0 0 0 0.5 
827 2 2 3.4371 3.62098 8.0313 -54 0 0 -150.541 17.6183 -2.81976 -133.033 751.329 134.743 0 0 0 0.5 
840 2 2 0.0880749 4.80559 9.08745 -8 0 0 -63.4438 16.8016 1.68298 -292.099 3648.24 465.343 0 0 0 0.5 
210 1 1 4.88597 0.813081 9.69319 162 1 -1 -392.998 -24.0911 8.59569 657.171 -1663.17 -339.873 0 0 0 0.5 
433 1 1 4.40687 3.83866 9.00337 211 1 -1 -131.887 19.5591 -15.9349 -439.637 688.409 -1715.98 0 0 0 0.5 
502 2 2 2.88522 2.0484 8.85153 -139 0 0 -314.962 1.72678 12.9539 129.449 -325.758 359.893 0 0 0 0.5 
427 1 1 1.15446 4.09038 9.79392 -34 0 -1 -93.2265 12.3649 8.11476 3055.01 -780.093 1362.99 0 0 0 0.5 
268 1 1 1.10599 4.34577 8.03744 40 0 -1 -86.5436 5.39799 9.13167 776.41 47.5875 -59.656 0 0 0 0.5 
11 1 1 1.31298 4.80952 9.2342 -21 0 -1 -50.0287 6.69315 -5.25069 -1072.95 -50.8551 540.866 0 0 0 0.5 
314 1 1 3.98547 2.32866 8.96179 -97 0 0 -280.851 0.800486 -10.9695 279.908 -1687.36 -1207.55 0 0 0 0.5 
264 1 1 3.29043 4.27005 9.80935 -20 0 -1 -65.2307 -3.46662 -21.8811 -689.996 -39.0187 173.313 0 0 0 0.5 
125 1 1 0.303599 3.48481 8.00698 -267 -1 0 -155.514 -11.1281 -2.3496 543.23 -1739.12 2255 0 0 0 0.5 
408 1 1 3.15615 1.74347 8.04132 -24 0 -1 -342.147 -4.25721 -9.99349 70.2605 -2076.5 509.776 0 0 0 0.5 
843 2 2 0.342192 4.15602 8.47918 -34 0 0 -91.485 9.29471 0.20597 1124.2 -1340.59 1573.43 0 0 0 0.5 
2 1 1 4.45177 1.59112 9.58234 -51 0 0 -336.536 -5.25512 -8.59969 -338.593 355.624 -953.66 0 0 0 0.5 
746 2 2 3.83791 1.43866 8.64293 -39 0 -1 -325.595 -12.5381 1.13047 -451.768 581.259 -323.799 0 0 0 0.5 
935 2 2 2.67474 2.5687 8.14469 -70 0 0 -261.271 6.46191 8.25206 -426.364 2440.45 -525.165 0 0 0 0.5 
743 2 2 3.01417 3.30494 9.7297 -66 0 0 -172.763 3.95162 8.12317 -1770.94 815.599 610.872 0 0 0 0.5 
521 2 2 3.15147 0.801828 9.35942 -88 0 0 -395.601 -12.2381 15.1255 261.556 -711.824 -993.963 0 0 0 0.5 
945 2 2 1.49521 9.22791 0.0321555 93 0 0 393.244 5.76081 -8.64004 1350.17 -518.444 1289.12 0 0 0 0.5 
274 1 1 4.49632 6.53847 1.41474 -218 -1 -1 159.714 -16.2393 -3.46639 -56.943 -897.211 -373.922 0 0 0 0.5 
578 2 2 0.690833 8.82641 0.56115 115 0 0 400.011 -13.8279 1.66195 927.494 -915.976 -333.319 0 0 0 0.5 
170 1 1 0.104055 7.91745 0.557863 142 0 0 268.515 4.61621 3.35763 -576.753 -206.323 364.936 0 0 0 0.5 
817 2 2 3.2987 8.0266 1.58278 50 0 0 308.015 19.3251 -7.07685 2079.23 -551.983 -1718.34 0 0 0 0.5 
924 2 2 0.0859089 5.01341 0.567326 -49 0 1 -23.8254 3.42625 4.0989 -2236.99 362.51 -545.345 0 0 0 0.5 
149 1 1 2.65867 5.02152 0.0404882 -20 0 0 8.23665 -6.80631 9.65562 1291.66 -888.229 -240.004 0 0 0 0.5 
638 2 2 0.46796 9.48361 1.27002 75 0 -1 498.049 -15.9382 13.6035 700.216 101.808 831.783 0 0 0 0.5 
194 1 1 3.49051 7.17781 1.40069 -264 -1 0 233.388 -10.5639 -1.25718 -1853.12 1954.19 1289.86 0 0 0 0.5 
303 1 1 3.14946 7.89837 0.512115 159 0 1 293.088 -1.94311 -19.4396 -1841.46 1317.86 -478.279 0 0 0 0.5 
776 2 2 3.28485 8.75198 0.48888 -145 -1 1 392.89 3.47723 -12.3113 -2.71748 -333.888 1028.35 0 0 0 0.5 
462 1 1 2.89213 6.53613 0.337812 134 0 0 158.099 14.9344 -3.51222 30.9734 352.877 12.6354 0 0 0 0.5 
171 1 1 3.07254 6.34465 1.1658 -21 0 0 124.071 17.8676 2.7362 1536.85 -1216.73 -2474.68 0 0 0 0.5 
446 1 1 3.05596 5.50121 1.12036 -46 0 1 42.3229 -3.44125 -4.07845 -1166.69 998.565 18.5564 0 0 0 0.5 
137 1 1 2.55919 9.1294 0.0673797 -185 -1 0 394.557 5.10201 -16.0484 -591.054 307.414 -343.316 0 0 0 0.5 
701 2 2 3.4409 8.95189 1.79378 100 0 0 412.893 -4.45534 -15.0576 224.316 -1370.86 77.0231 0 0 0 0.5 
412 1 1 0.493034 8.26784 1.70621 -240 -1 1 371.175 -10.2218 1.60922 46.0533 1015.21 2437.31 0 0 0 0.5 
832 2 2 3.85215 7.65729 0.611079 6 0 0 289.685 16.8572 7.78366 331.245 -126.024 -872.538 0 0 0 0.5 
259 1 1 1.78583 9.70045 1.43659 -150 -1 -1 497.614 -7.04785 -15.4966 -467.527 1413.86 316.727 0 0 0 0.5 
946 2 2 4.43794 8.66077 0.423044 93 0 0 404.635 -14.4564 -10.3852 -1376.76 -622.996 573.678 0 0 0 0.5 
637 2 2 2.63929 9.79309 0.956838 -113 -1 2 506.57 -7.69261 -11.013 -359.362 1042.6 -263.866 0 0 0 0.5 
240 1 1 4.32352 8.29614 1.2682 -187 -1 1 343.064 -14.5469 -9.45594 934.812 -16.0413 146.727 0 0 0 0.5 
563 2 2 1.43722 5.92929 1.97023 35 0 1 92.1655 34.3724 -30.2474 2071.59 -1240.04 -1767.84 0 0 0 0.5 
588 2 2 1.47002 7.96501 0.382279 76 0 1 284.683 1.5711 12.2499 336.31 260.051 -747.259 0 0 0 0.5 
953 2 2 -0.0369513 5.53804 1.01534 89 0 0 34.867 16.9044 17.7854 -343.713 378.654 1182.26 0 0 0 0.5 
542 2 2 4.6639 9.69081 1.56452 -219 -1 1 489.443 -7.12171 -21.7703 1365.16 -297.786 -391.243 0 0 0 0.5 
774 2 2 0.106695 7.00606 0.321092 -189 -1 1 225.224 -4.63382 4.21027 1182.44 -1201.78 1495 0 0 0 0.5 
213 1 1 0.886528 5.62027 1.16662 259 1 1 35.809 21.5137 -5.88552 336.527 499.225 588.372 0 0 0 0.5 
986 2 2 2.16155 5.35362 0.786289 60 0 1 36.8292 5.1631 11.8312 -283.509 972.291 316.091 0 0 0 0.5 
752 2 2 2.29521 6.12356 1.45151 25 0 -1 118.464 -22.1563 -1.64355 22.6245 1691.95 829.165 0 0 0 0.5 
212 1 1 2.59501 7.69341 0.964394 198 0 0 302.087 -35.5421 -4.6668 -538.005 -457.752 1361.04 0 0 0 0.5 
330 1 1 1.30484 6.96244 0.39972 74 0 0 213.221 -11.2924 12.7945 -3559.51 660.936 -1235.15 0 0 0 0.5 
627 2 2 1.02035 7.06929 1.47466 1 0 0 247.669 -17.0772 27.92 -8.44302 25.5181 -14.6232 0 0 0 0.5 
38 1 1 3.33505 5.15009 1.92707 -79 0 1 36.6575 -16.5414 -2.63385 -67.1424 -2166.45 1355.91 0 0 0 0.5 
538 2 2 0.781227 7.792 1.06051 217 0 1 287.061 12.4277 2.42918 1383.45 -2328.11 -1816.13 0 0 0 0.5 
928 2 2 4.29024 7.3737 1.22348 20 0 0 234.588 12.8339 10.4637 2879.42 -2141.74 1996.87 0 0 0 0.5 
144 1 1 0.464035 5.47726 1.85622 22 0 0 55.0512 -6.97768 9.09555 -860.25 293.616 -630.758 0 0 0 0.5 
424 1 1 1.44582 5.87879 0.604649 -23 0 1 63.0427 35.3525 1.5654 1109.25 755.871 124.885 0 0 0 0.5 
680 2 2 2.13288 8.84214 1.17859 -163 -1 0 428.351 -11.2896 -9.65212 455.289 -974.53 -714.847 0 0 0 0.5 
401 1 1 3.77918 6.53978 0.789226 54 0 0 129.832 24.3688 4.35975 3611.48 -1843.28 -1767.31 0 0 0 0.5 
419 1 1 2.10429 6.78332 0.758709 121 0 0 157.577 8.58802 8.94042 3158.33 -711.134 1868.8 0 0 0 0.5 
704 2 2 2.33622 8.08484 1.65955 117 0 -1 353.83 -13.9876 26.1367 -4638.15 1190.91 -2797.98 0 0 0 0.5 
209 1 1 0.56709 6.09573 0.402237 -258 -1 0 71.1949 25.1878 14.6563 802.528 -184.031 -2591.95 0 0 0 0.5 
911 2 2 1.39899 5.05541 1.3121 -233 -1 -1 29.0753 3.74212 -11.0543 700.333 -209.52 -349.653 0 0 0 0.5 
26 1 1 -0.046187 7.39014 1.76894 157 0 0 233.185 10.8545 -7.98732 675.838 63.0698 -198.642 0 0 0 0.5 
889 2 2 2.40803 5.10228 1.75958 3 0 0 28.4181 -11.9646 -4.32245 388.698 319.191 -729.638 0 0 0 0.5 
235 1 1 2.68724 6.93896 1.84258 18 0 0 222.738 -10.3323 -17.8348 -3656.76 3058.72 2723.43 0 0 0 0.5 
772 2 2 3.07721 6.0471 1.94772 -60 0 2 136.407 1.67598 -7.76262 1835.8 -1538.57 2.91786 0 0 0 0.5 
715 2 2 3.08043 9.72615 1.80771 161 0 0 496.727 -0.245136 -4.91659 -1117.63 2011.44 127.953 0 0 0 0.5 
973 2 2 3.89048 7.08306 0.0625665 -8 0 1 199.193 -5.33868 -23.0698 1130.9 -1443.28 972.229 0 0 0 0.5 
368 1 1 3.88908 9.86635 1.36964 43 0 0 489.877 11.4494 -21.7568 -1387.52 2100.33 -291.253 0 0 0 0.5 
467 1 1 4.0259 5.7164 0.954208 318 1 1 70.326 -8.22747 22.7494 -340.169 -195.714 -4453.78 0 0 0 0.5 
45 1 1 4.03044 8.96381 1.18741 107 0 1 391.004 16.6784 -23.8504 577.222 447.357 -1551.2 0 0 0 0.5 
710 2 2 4.19797 5.27348 0.10876 95 0 0 18.6708 -14.3017 -23.1136 89.762 -604.791 1453.21 0 0 0 0.5 
461 1 1 4.21023 5.50799 1.81024 281 1 0 36.4214 4.83787 -14.0239 -1610.83 237.203 3740.34 0 0 0 0.5 
534 2 2 4.23914 6.94239 2.21134 48 0 1 193.476 14.2523 0.796683 2047.69 -664.99 -923.007 0 0 0 0.5 
114 1 1 3.09107 7.18752 3.61877 -246 -1 -1 257.38 -28.4788 24.437 -523.468 -1715.85 -1015.7 0 0 0 0.5 
745 2 2 3.42031 9.90053 3.45099 -58 -1 1 473.928 -7.22398 6.14246 2105.03 -1651.14 840.656 0 0 0 0.5 
302 1 1 3.99434 7.6459 2.21823 115 0 0 218.904 21.6351 7.10998 -1019.84 2151.74 121.238 0 0 0 0.5 
855 2 2 4.20399 8.37787 2.18885 -250 -1 0 338.541 29.9323 -9.42115 2384.07 -428.916 -339.7 0 0 0 0.5 
434 1 1 -0.0744237 9.62203 3.4558 -115 -1 0 510.88 -15.5707 4.4771 927.781 -667.847 -153.857 0 0 0 0.5 
837 2 2 3.67471 8.14448 3.10705 -219 -1 0 309.48 -0.675661 13.298 340.417 -347.516 1267.49 0 0 0 0.5 
948 2 2 2.75523 9.00045 2.42901 235 0 0 423.659 -1.74332 1.10545 -4531.98 2564.64 -955.397 0 0 0 0.5 
215 1 1 3.76545 7.14482 3.51253 78 0 0 248.211 13.9112 -1.04472 2614.79 -567.717 -3078.24 0 0 0 0.5 
227 1 1 3.9007 8.81493 3.93636 -138 -1 1 371.945 14.0033 1.18508 -2740.17 872.579 -795.749 0 0 0 0.5 
479 1 1 4.46977 6.02634 3.45506 79 0 0 157.854 6.1201 -15.4309 -375.144 138.431 1606.19 0 0 0 0.5 
536 2 2 3.87427 9.19235 3.05578 -181 -1 0 383.389 14.5235 -8.37201 1205.15 -2192.41 -972.493 0 0 0 0.5 
344 1 1 3.23358 5.66573 2.63163 77 0 0 85.3069 7.43529 23.0366 3719.93 -665.876 -352.226 0 0 0 0.5 