ITEM: TIMESTEP
22000
ITEM: NUMBER OF ATOMS
1000
ITEM: BOX BOUNDS xy xz yz pp pp pp
0 10 0
0 10 0
-0 10 0
ITEM: ATOMS id type type x y z ix iy iz vx vy vz fx fy fz omegax omegay omegaz radius 
316 1 1 0.797027 2.18047 0.469208 -58 0 0 -255.461 -6.43649 9.60592 749.839 -25.0132 213.991 0 0 0 0.5 
551 2 2 2.85528 4.71762 1.69936 -3 0 1 -52.5846 -3.78789 17.7702 1400.74 528.307 714.486 0 0 0 0.5 
16 1 1 1.83594 0.0972202 0.493998 -73 0 0 -433.058 18.7977 3.35335 3298.38 -492.76 769.292 0 0 0 0.5 
548 2 2 2.67911 0.975969 0.737014 -60 0 1 -351.38 12.7642 4.29128 1202.37 272.15 -760.768 0 0 0 0.5 
237 1 1 2.04995 0.968841 0.0501715 -37 0 1 -371.495 26.2845 3.46811 -581.301 3084.55 3571.6 0 0 0 0.5 
497 1 1 1.37772 1.45411 0.881709 113 1 1 -326.933 6.6917 5.19325 -1579.04 -662.447 -440.449 0 0 0 0.5 
755 2 2 4.5079 3.1752 1.92649 -47 0 0 -186.603 13.8667 -17.4867 194.169 348.249 -1261.68 0 0 0 0.5 
126 1 1 2.77295 0.274263 0.68139 85 1 0 -411.47 5.86326 -25.6334 724.326 -750.676 -1021.47 0 0 0 0.5 
921 2 2 0.845532 2.79847 1.91054 -47 0 1 -240.801 20.6265 -5.85172 3423.31 -683.163 566.059 0 0 0 0.5 
903 2 2 1.81539 3.76015 0.324635 -21 0 0 -78.4975 -14.0148 -17.4236 -2744.87 -913.775 1617.24 0 0 0 0.5 
428 1 1 1.54138 2.37297 1.32489 -38 0 1 -266.489 11.6585 -4.19107 1266.98 -2054.7 996.77 0 0 0 0.5 
446 1 1 1.09223 3.10137 0.971525 -24 0 1 -195.06 19.8746 14.2263 -1955.41 1688.89 -813.211 0 0 0 0.5 
224 1 1 2.0012 0.288431 1.5565 -72 0 1 -380.364 5.73619 14.0294 -976.183 335.477 -2150.23 0 0 0 0.5 
282 1 1 1.17508 0.665853 0.332478 105 1 0 -367.743 -10.8728 15.4807 -3174.08 3738.47 -532.402 0 0 0 0.5 
4 1 1 1.45743 0.0385617 1.19102 -88 0 0 -373.799 -17.1389 4.20849 -4841.06 1731.08 3700.88 0 0 0 0.5 
898 2 2 1.69802 2.39849 0.327705 -33 0 0 -238.412 18.8237 0.708164 489.655 386.971 2062.13 0 0 0 0.5 
584 2 2 4.7525 2.50258 0.704739 -39 0 1 -204.229 -9.70024 -1.45064 -740.882 -812.447 -686.381 0 0 0 0.5 
680 2 2 0.899705 0.733524 1.48831 -65 0 0 -352.566 -2.52368 -7.90713 -772.204 657.078 51.2381 0 0 0 0.5 
766 2 2 2.25791 1.50973 0.907482 -40 0 1 -332.531 26.9386 -13.3593 -820.383 1969.43 285.567 0 0 0 0.5 
526 2 2 3.11666 0.154196 1.58768 -58 0 1 -421.73 25.4153 10.1565 -2043.67 -1036.02 -214.994 0 0 0 0.5 
531 2 2 0.657683 1.6339 1.83428 -35 0 0 -291.924 12.9222 0.308908 2421.87 -313.197 -840.618 0 0 0 0.5 
772 2 2 2.5484 2.32919 1.10698 -45 0 1 -268.508 10.1182 -21.7456 967.003 1268.53 1138.16 0 0 0 0.5 
201 1 1 2.26552 1.05498 1.61948 -55 0 1 -345.534 12.9039 3.56105 921.652 1385.78 -682.26 0 0 0 0.5 
216 1 1 3.93562 0.827419 1.54616 -59 0 1 -394.805 13.0317 16.9076 -462.941 -596.253 479.956 0 0 0 0.5 
208 1 1 1.59896 3.9437 1.51879 8 0 0 -71.0154 -17.2265 -0.696793 0 0 0 0 0 0 0.5 
62 1 1 0.233281 2.64495 1.20055 -31 0 0 -204.461 -12.918 -19.7262 1406.22 -615.302 89.3834 0 0 0 0.5 
413 1 1 1.08826 4.35363 0.3743 -40 0 0 -70.0121 -3.95925 -4.35677 2815.13 -2191.34 852.85 0 0 0 0.5 
937 2 2 1.98191 4.91367 1.60244 -14 0 0 -16.3142 -6.93644 4.58453 -2736.71 614.337 -303.709 0 0 0 0.5 
775 2 2 3.51693 1.01286 0.395326 -75 0 0 -344.841 -8.68802 -2.38342 1619.55 -2497.53 50.5305 0 0 0 0.5 
404 1 1 0.164655 4.39776 1.77227 11 0 0 -75.1671 -4.81754 -37.5602 2705.01 -1807.36 1894.72 0 0 0 0.5 
9 1 1 3.44554 1.78475 1.16388 122 1 0 -295.265 1.82194 24.8439 222.951 37.9413 -1042.37 0 0 0 0.5 
609 2 2 3.71665 2.86141 0.676769 -17 0 0 -172.67 -21.7156 -1.70277 112.558 -765.652 1116.05 0 0 0 0.5 
677 2 2 2.94997 4.63857 0.63826 -15 0 1 -5.8159 -20.1748 -1.90878 -505.125 -2054.89 -135.266 0 0 0 0.5 
549 2 2 2.93131 3.09842 1.37546 -86 0 0 -161.778 -3.34765 -7.84996 -2406.91 -1878.75 391.078 0 0 0 0.5 
650 2 2 3.63031 3.00307 1.71501 -16 0 0 -175.754 13.7408 -11.8604 1287.65 95.1623 649.516 0 0 0 0.5 
213 1 1 3.1567 1.82413 0.313297 96 1 1 -258.087 -5.02856 -3.33205 -1064.55 2057.26 -88.7525 0 0 0 0.5 
961 2 2 3.3941 4.21365 1.54362 0 0 0 -61.0427 -23.0517 -2.75346 -438.891 -1067.05 19.3792 0 0 0 0.5 
130 1 1 0.169965 3.9482 0.894563 -12 0 0 -99.8804 -11.2515 14.2583 13.0463 -1104.59 -2156.57 0 0 0 0.5 
318 1 1 2.83921 1.82434 1.86596 -36 0 1 -290.404 -8.76681 3.72345 -1454.51 -97.0658 861.812 0 0 0 0.5 
487 1 1 4.59595 1.20202 0.0963488 -64 0 0 -364.359 0.193064 1.62638 -1157.01 476.029 -542.945 0 0 0 0.5 
582 2 2 4.79136 4.12834 0.625658 11 0 0 -64.6587 -10.8499 8.2873 -186.561 1407.01 -840.806 0 0 0 0.5 
940 2 2 0.456127 4.85285 0.298129 22 0 0 -21.674 -9.94888 -12.2772 -1192.69 89.5378 -2063.13 0 0 0 0.5 
430 1 1 2.58724 3.80506 1.03734 -22 0 1 -136.184 17.1002 16.8419 -221.278 2362.37 -1111.78 0 0 0 0.5 
598 2 2 2.87003 3.12612 0.391148 -24 0 1 -165.068 0.339271 16.0665 -776.775 -389.576 -846.91 0 0 0 0.5 
612 2 2 4.18926 4.21025 1.28312 4 0 1 -66.528 3.56866 4.42302 -166.647 258.407 -323.25 0 0 0 0.5 
875 2 2 4.32699 1.67601 1.12405 6 0 1 -293.723 3.57287 10.8817 962.162 2.64241 -719.988 0 0 0 0.5 
661 2 2 4.26772 1.85869 0.148959 -29 0 0 -296.151 20.0623 -0.35606 -291.241 3879.07 1261.57 0 0 0 0.5 
510 2 2 4.25463 3.18278 0.135696 -32 0 0 -183.088 10.8604 -7.07768 -265.381 550.229 -347.729 0 0 0 0.5 
484 1 1 4.36907 4.64202 0.0884144 26 0 1 -35.4454 -8.44005 -11.2139 1365.91 290.398 1328.65 0 0 0 0.5 
776 2 2 4.56231 0.691067 0.833342 -57 0 1 -410.806 8.32245 3.40724 -994.585 1906.46 204.436 0 0 0 0.5 
262 1 1 4.98921 0.00917719 0.788058 -84 0 0 -477.102 -8.20407 -0.62094 1544.28 -2067.76 73.595 0 0 0 0.5 
416 1 1 2.54751 0.362065 2.31157 -52 0 0 -405.712 -12.0805 40.299 -3558.69 115.747 1056.75 0 0 0 0.5 
427 1 1 2.28026 4.52376 3.72459 -2 0 0 -36.3177 -10.2934 -0.532904 -319.559 1457.24 860.424 0 0 0 0.5 
966 2 2 1.53616 0.823203 3.17219 -21 0 1 -398.929 9.65037 -24.7964 3615.96 421.595 1879.62 0 0 0 0.5 
364 1 1 4.37901 2.14068 3.91133 -22 0 0 -265.512 -5.73548 -3.37268 -250.02 -193.177 -558.02 0 0 0 0.5 
232 1 1 2.2353 1.50805 2.99861 -40 0 1 -362.798 17.5815 40.557 -1472.8 -121.494 585.85 0 0 0 0.5 
771 2 2 2.98101 0.661707 3.12427 -61 0 0 -385.09 -8.23524 17.6481 -4372.19 678.967 2580.92 0 0 0 0.5 
626 2 2 2.44823 1.99213 3.73039 -7 0 -1 -298.565 46.7817 5.2552 2189.39 898.38 -806.882 0 0 0 0.5 
603 2 2 0.16709 1.83922 2.52265 87 1 0 -270.319 -3.31841 6.88796 -779.642 129.274 1521.25 0 0 0 0.5 
529 2 2 3.99956 4.72673 3.52537 -5 0 0 -32.479 -6.38022 -4.8097 -1055.45 867.84 960.698 0 0 0 0.5 
480 1 1 2.65276 1.15494 3.82026 -47 0 1 -364.942 1.62763 34.468 385.149 793.168 -1116.71 0 0 0 0.5 
380 1 1 2.35803 3.74283 3.18452 -28 0 1 -130.964 2.52529 1.44489 440.583 -2714.28 -514.721 0 0 0 0.5 
731 2 2 1.18306 2.92706 2.81766 178 1 0 -220.063 11.2748 -7.8436 1031.62 -2163.12 814.726 0 0 0 0.5 
627 2 2 1.44572 3.84958 3.22164 -14 0 0 -135.366 -16.2724 -15.4031 1769.03 -2436.64 1284.77 0 0 0 0.5 
359 1 1 4.17408 2.92283 3.5096 -21 0 0 -204.791 20.686 12.9547 -235.111 758.345 -389.228 0 0 0 0.5 
280 1 1 0.762099 0.973462 2.66513 -54 0 0 -341.515 -13.2898 -4.1656 -3329.77 997.905 -1623.07 0 0 0 0.5 
738 2 2 0.907201 0.391711 3.83546 127 1 1 -401.843 -11.3425 -3.17156 -3689.65 1939 870.724 0 0 0 0.5 
507 2 2 1.76556 0.47313 3.93104 -54 0 0 -434.05 21.1487 -3.04829 -2030.23 386.525 900.24 0 0 0 0.5 
879 2 2 2.50067 0.0804228 3.77352 95 1 1 -486.087 17.0644 -16.0207 2743.82 876.227 -1541.13 0 0 0 0.5 
725 2 2 2.04234 2.81098 3.26136 -23 0 0 -219.537 0.980091 -26.2694 946.382 1191.36 345.764 0 0 0 0.5 
868 2 2 0.962526 1.83602 2.99252 -53 0 1 -259.022 -16.21 -6.13867 1557.05 -1178.78 -288.088 0 0 0 0.5 
939 2 2 1.36945 2.23371 3.77459 -17 0 0 -214.403 -8.00912 -10.4541 -199.587 1714.16 -838.384 0 0 0 0.5 
749 2 2 2.47092 1.09309 2.43705 -109 0 1 -356.707 23.0323 14.2644 570.773 744.426 -415.269 0 0 0 0.5 
995 2 2 1.46297 0.0107594 2.46838 -64 0 1 -515.989 33.8545 -19.6514 -520.987 -263.816 840.092 0 0 0 0.5 
574 2 2 2.27452 4.14827 2.38066 -9 0 1 -104.437 20.1256 -6.73309 -686.801 588.969 -100.537 0 0 0 0.5 
530 2 2 1.80335 1.73819 3.94405 -24 0 1 -271.961 -43.3889 17.9326 267.22 -3249.99 1488.56 0 0 0 0.5 
346 1 1 1.57181 0.879369 2.20162 101 1 0 -352.343 -10.046 -13.2068 -312.893 3315.83 439.624 0 0 0 0.5 
647 2 2 0.266657 0.830496 3.49007 -44 0 0 -349.78 -5.02355 -8.82729 -1485.72 2617.53 -483.559 0 0 0 0.5 
756 2 2 2.27799 2.20453 2.47782 -26 0 1 -289.887 22.4528 10.2648 17.7839 -49.1671 4.88009 0 0 0 0.5 
389 1 1 0.598795 2.41174 3.46895 -28 0 0 -213.747 -5.39968 10.894 -999.609 1027.4 836.965 0 0 0 0.5 
625 2 2 0.140024 3.59633 3.28239 0 0 0 -134.972 -0.0374548 -5.77859 198.866 -271.245 722.746 0 0 0 0.5 
396 1 1 0.783768 3.50184 3.87889 -23 0 0 -127.242 -9.28569 7.41208 1184.85 -660.783 -450.005 0 0 0 0.5 
78 1 1 4.55758 4.1498 3.42064 14 0 1 -56.4024 -12.1256 -21.6255 -727.342 1705.88 -2281.3 0 0 0 0.5 
312 1 1 0.695612 3.62581 2.48217 -8 0 1 -139.241 9.95832 -20.5677 -1647.55 2553.87 -621.532 0 0 0 0.5 
121 1 1 4.02909 1.7651 2.96787 106 1 0 -274.074 -12.1749 -6.37375 1116.34 -553.508 56.1894 0 0 0 0.5 
12 1 1 3.89439 0.502313 3.11293 -61 0 0 -443.106 17.6432 -17.66 4560.65 -851.714 1417.64 0 0 0 0.5 
882 2 2 2.54351 4.97902 2.93187 -19 0 0 14.5101 -16.2983 -2.20982 -1315.49 -431.74 491.876 0 0 0 0.5 
860 2 2 4.25853 3.66467 2.42462 -12 0 1 -132.261 0.405142 17.4639 17.9321 34.5995 1299.99 0 0 0 0.5 
684 2 2 0.856294 4.39825 3.03366 43 0 0 -56.6322 8.2599 -16.4369 -2934.15 2193.5 -863.204 0 0 0 0.5 
600 2 2 3.2038 2.84312 3.55791 -19 0 1 -208.292 12.7598 40.2694 79.1084 -751.095 -691.279 0 0 0 0.5 
795 2 2 3.91765 4.30883 2.6285 -50 0 0 -113.004 19.1703 11.6321 2411.89 -883.087 -1629.42 0 0 0 0.5 
358 1 1 0.398756 4.29362 3.88109 -15 0 0 -53.4996 12.0334 -1.56505 490.449 111.54 -612.969 0 0 0 0.5 
391 1 1 2.95766 3.67669 2.20971 -12 0 0 -104.643 -2.37398 -12.8512 190.467 300.354 -345.635 0 0 0 0.5 
748 2 2 3.24348 2.15463 2.92833 86 1 -1 -274.475 -11.4922 15.0997 -733.109 -135.281 725.822 0 0 0 0.5 
807 2 2 4.82741 2.79877 2.71947 -26 0 0 -208.601 6.44792 -5.90363 133.052 -156.754 330.216 0 0 0 0.5 
730 2 2 3.21609 2.92461 2.53506 -77 0 0 -152.175 -14.3449 13.7347 -1425.76 2910.48 1207.08 0 0 0 0.5 
460 1 1 1.33952 4.48105 3.90719 -6 0 0 -50.682 7.62905 -2.39842 627.174 -623.714 126.434 0 0 0 0.5 
275 1 1 3.43191 0.424604 2.29048 -41 0 0 -452.459 32.1007 1.84619 4694.19 -339.644 -83.0714 0 0 0 0.5 
15 1 1 3.72752 2.20589 2.06806 -54 0 1 -275.773 -4.52152 -4.71362 896.301 -3349.62 -664.966 0 0 0 0.5 
901 2 2 4.73365 0.998971 2.2399 -53 0 0 -385.474 1.4385 26.554 -1045.27 557.293 -1544.71 0 0 0 0.5 
247 1 1 0.20997 0.00143889 3.03679 -93 0 0 -516.142 14.9631 6.96521 611.064 -476.222 -722.323 0 0 0 0.5 
944 2 2 0.384728 1.39746 5.87 -58 0 0 -372.483 10.0082 1.75743 85.5714 220.808 -663.081 0 0 0 0.5 
101 1 1 1.1953 0.173053 4.64917 -28 0 0 -423.964 -23.7105 1.91107 -1188.01 2685.76 2560.69 0 0 0 0.5 
803 2 2 0.0919251 1.36517 5.0292 86 1 0 -371.341 3.0911 4.00601 -1808.82 450.071 190.11 0 0 0 0.5 
729 2 2 0.633843 0.490377 5.70577 96 1 1 -456.004 13.6047 -7.58385 420.348 -674.515 -2319.92 0 0 0 0.5 
624 2 2 4.49066 4.53683 4.67412 24 0 -1 -83.6239 24.2277 16.7173 -458.892 -3033.39 -639.551 0 0 0 0.5 
187 1 1 0.840299 0.975227 5.09276 -53 0 0 -370.877 16.6751 6.72087 -500.053 1475.35 -1081.66 0 0 0 0.5 
33 1 1 2.52309 2.02108 4.66092 123 1 0 -257.045 3.67291 -2.09842 -3990.48 496.635 12.9496 0 0 0 0.5 
865 2 2 1.94819 2.83112 4.25567 -39 0 -1 -182.797 -6.25289 -19.1956 -227.004 -381.177 -648.708 0 0 0 0.5 
449 1 1 2.4918 4.437 4.8346 -8 0 0 -75.7466 30.9206 8.73136 -21.6143 81.6758 44.8094 0 0 0 0.5 
666 2 2 1.30067 3.87028 4.64719 26 0 0 -127.03 -4.58876 11.9169 -762.676 585.529 -1508.77 0 0 0 0.5 
277 1 1 1.79883 2.209 5.53266 -94 0 1 -311.618 7.69832 -19.3337 -584.07 183.321 -288.043 0 0 0 0.5 
948 2 2 0.497104 2.229 5.39339 114 1 0 -277.82 -4.35683 -15.0317 950.167 -947.939 407.208 0 0 0 0.5 
913 2 2 3.57241 4.78624 5.36171 9 0 0 23.603 -3.39288 6.2762 -1568.53 444.559 -1152.32 0 0 0 0.5 
259 1 1 3.85042 0.841843 5.36854 -66 0 -1 -425.526 6.53761 3.10096 -1293.13 682.904 -970.071 0 0 0 0.5 
679 2 2 1.81562 3.17092 5.09316 -17 0 0 -159.539 -5.40127 -3.65582 -295.27 -1033.13 40.9344 0 0 0 0.5 
147 1 1 2.35952 1.21818 4.73545 -70 0 0 -390.675 13.8065 13.1725 -1292.25 1320.2 651.732 0 0 0 0.5 
653 2 2 3.26795 2.13529 5.16893 127 1 0 -316.286 20.9092 4.05307 2076.72 380.506 1417.34 0 0 0 0.5 
665 2 2 2.39725 0.501807 4.45131 33 1 1 -444.191 9.96805 7.3626 -1293.51 501.166 -193.16 0 0 0 0.5 
437 1 1 0.979711 2.84866 4.37664 -66 0 0 -182.564 -23.5448 24.8937 35.2918 -479.543 1029.88 0 0 0 0.5 
773 2 2 0.516476 1.09929 4.28982 -31 0 0 -358.249 9.88419 7.04012 732.376 712.554 -1559.16 0 0 0 0.5 
967 2 2 1.5118 0.485903 5.31161 82 1 -1 -443.185 19.0734 11.288 1439.83 -462.431 132.984 0 0 0 0.5 
646 2 2 2.51401 3.21959 5.6958 -34 0 0 -171.806 -1.21392 -7.62952 200.97 1299.12 -198.447 0 0 0 0.5 
214 1 1 2.87647 4.96126 5.86288 10 0 0 2.9873 -11.0094 -17.3252 -950.133 2215.94 -2398.36 0 0 0 0.5 
741 2 2 4.81054 3.08113 5.3084 -85 0 0 -195.099 11.4347 -15.0666 -800.638 536.159 -785.371 0 0 0 0.5 
896 2 2 0.677044 3.64075 5.33918 -3 0 -1 -148.594 -3.39528 6.04217 68.0942 -402.914 -163.353 0 0 0 0.5 
752 2 2 0.653325 4.54615 5.55302 5 0 -1 -33.3281 2.98783 13.7217 -695.189 870.152 -848.082 0 0 0 0.5 
482 1 1 3.50519 4.12215 5.08151 23 0 0 -83.8342 -36.925 -27.2582 -622.469 -482.452 462.783 0 0 0 0.5 
465 1 1 4.04782 3.99171 5.58203 -1 0 0 -78.2117 -8.97813 21.1975 3308.18 -630.611 290.084 0 0 0 0.5 
658 2 2 3.30171 1.90292 4.18254 -21 0 0 -285.523 8.32132 -11.1947 1491.43 -229.958 -1004.09 0 0 0 0.5 
476 1 1 2.61477 1.9529 5.93506 -17 0 0 -324.825 16.0259 6.99452 -104.97 1397 -628.475 0 0 0 0.5 
895 2 2 4.09344 2.80024 4.68112 -62 0 0 -223.352 15.7222 13.826 -9.71456 -3.80512 -8.49763 0 0 0 0.5 
361 1 1 2.77567 2.93984 4.82806 -18 0 0 -176.268 -15.1319 -4.2796 202.244 -66.0453 -413.429 0 0 0 0.5 
667 2 2 3.50611 4.61586 4.34038 -51 0 0 -30.8537 -12.6842 -8.02664 700.55 -1526.29 -176.692 0 0 0 0.5 
637 2 2 4.07266 2.16572 5.7163 -40 0 1 -307.496 4.31277 -21.6604 -454.436 -344.785 -682.304 0 0 0 0.5 
659 2 2 4.152 0.665765 4.425 -32 0 0 -433.667 -1.12091 15.9839 -614.865 -20.2324 -416.039 0 0 0 0.5 
47 1 1 4.78995 0.769047 5.06671 -45 0 0 -415.326 14.2569 -0.32461 -1068.67 1231.63 597.996 0 0 0 0.5 
347 1 1 2.67791 3.73372 4.44876 -7 0 0 -127.513 1.11182 -29.9858 11.7075 -1.2243 -83.2478 0 0 0 0.5 
678 2 2 1.12522 4.70448 4.75921 -6 0 0 -44.4217 23.6422 8.4437 -25.8957 635.595 -257.821 0 0 0 0.5 
958 2 2 2.83898 1.16515 5.49297 94 1 1 -369.329 -6.30071 -9.28318 590.695 56.465 505.952 0 0 0 0.5 
203 1 1 2.7966 0.155361 4.81464 -78 0 0 -471.027 -6.64373 7.30235 -336.155 -1180.51 -594.504 0 0 0 0.5 
936 2 2 4.48224 4.88258 5.56271 5 0 0 16.983 -15.8973 -13.575 945.869 -294.001 1083.23 0 0 0 0.5 
425 1 1 4.5851 0.613178 5.87707 -70 0 0 -461.721 8.9999 5.31769 997.284 66.7602 69.3036 0 0 0 0.5 
234 1 1 4.71742 1.71296 4.62584 -53 0 0 -289.314 -20.2009 -5.27479 -1443.78 -645.386 -1560.92 0 0 0 0.5 
445 1 1 4.8147 3.88563 4.36068 -12 0 0 -109.264 5.63158 23.2606 660.719 -1328.14 -316.289 0 0 0 0.5 
379 1 1 1.52697 0.418075 7.53637 -57 0 0 -430.315 -3.63297 -13.1354 1116.92 -1625.13 -2419.07 0 0 0 0.5 
861 2 2 4.63795 2.26361 7.64387 -6 0 0 -251.954 16.5297 -17.6903 1002.41 3798.06 545.655 0 0 0 0.5 
134 1 1 1.93667 0.67427 6.05619 -38 0 0 -431.176 14.5855 3.22366 2689.88 -1434.42 593.811 0 0 0 0.5 
141 1 1 2.72665 1.98659 7.86651 -6 0 0 -270.35 16.3167 -10.7322 -2008.56 2504.47 127.174 0 0 0 0.5 
158 1 1 3.99822 4.51299 7.95238 6 0 0 5.8902 -8.9536 15.3966 218.318 -1679.51 -162.622 0 0 0 0.5 
539 2 2 1.08815 2.17176 6.40278 -73 0 0 -293.871 21.8672 7.87571 139.856 2878.88 -613.241 0 0 0 0.5 
644 2 2 0.499557 2.58369 7.17091 162 1 0 -199.969 -14.1536 7.70435 -22.2787 -843.327 -81.2905 0 0 0 0.5 
169 1 1 0.0719714 1.94945 6.41942 92 1 0 -303.648 3.4035 11.1945 -866.654 2547.92 1708.68 0 0 0 0.5 
493 1 1 1.279 1.36672 6.14513 112 1 0 -368.413 4.27492 -7.57125 -1847.01 1282.05 -2284.25 0 0 0 0.5 
35 1 1 2.25857 1.12687 7.69779 -81 0 1 -356.655 -13.3689 9.75251 1694.22 1494.02 -409.405 0 0 0 0.5 
635 2 2 1.31641 3.03323 6.00373 -128 -1 0 -211.564 14.8451 -4.38664 -169.542 -645.919 330.68 0 0 0 0.5 
321 1 1 2.51764 4.02714 6.08863 9 0 -1 -90.2314 25.0214 1.6095 1507.82 -521.305 -99.2378 0 0 0 0.5 
23 1 1 3.56115 0.777295 6.85639 -60 0 0 -441.171 8.17918 -8.00117 980.374 -1258.66 1022.99 0 0 0 0.5 
53 1 1 3.94576 4.78135 6.30434 3 0 0 19.5429 0.477575 -24.8444 -459.049 -320.132 153.418 0 0 0 0.5 
270 1 1 1.77916 3.03277 7.95189 -52 0 0 -150.548 2.94336 6.86962 789.934 -1115.81 -576.602 0 0 0 0.5 
205 1 1 1.02332 1.57173 7.07711 -94 0 -1 -308.203 1.5934 -18.9096 770.17 -2098.67 1086.65 0 0 0 0.5 
829 2 2 1.33481 2.92159 6.99384 -10 0 0 -211.782 18.6511 -2.78803 1753.09 -1813.41 -1305.83 0 0 0 0.5 
501 2 2 4.18647 2.10732 6.79038 44 1 0 -307.773 12.5586 3.66969 -1691.3 1058.4 -83.1774 0 0 0 0.5 
67 1 1 0.50358 1.7182 7.64169 120 1 0 -268.816 -24.8916 17.9033 -2419.18 -367.42 75.4602 0 0 0 0.5 
708 2 2 1.7054 2.29001 7.3671 -73 0 0 -233.961 -11.0105 -8.26139 59.9561 352.831 -7.17823 0 0 0 0.5 
641 2 2 1.71997 4.08761 6.03649 -6 0 0 -99.8311 8.02096 -10.0417 288.488 -222.279 -769.402 0 0 0 0.5 
689 2 2 1.89734 1.09273 6.82456 -40 0 0 -410.238 16.0302 10.544 1002.81 72.6204 2187.27 0 0 0 0.5 
369 1 1 2.08902 3.36162 6.81447 -29 0 0 -198.209 27.6769 20.2402 289.918 315.401 -22.8924 0 0 0 0.5 
207 1 1 0.468034 0.729308 6.50654 90 1 1 -386.334 -11.6874 -13.505 631.718 -2229.52 1724.79 0 0 0 0.5 
236 1 1 -0.00831911 1.14565 7.00684 -63 0 0 -358.892 -3.92448 7.46577 -2905.99 3803.87 929.2 0 0 0 0.5 
400 1 1 0.768898 0.781993 7.3996 -64 0 -1 -422.362 -5.18564 -1.52738 1656.9 654.165 1206.87 0 0 0 0.5 
918 2 2 3.67954 0.00886974 6.44468 -46 0 0 -473.512 -17.7801 4.57717 250.603 -496.249 -253.768 0 0 0 0.5 
611 2 2 0.283807 2.84053 6.04556 -15 0 0 -227.822 7.1084 2.1937 -325.49 -745.212 688.477 0 0 0 0.5 
761 2 2 4.56579 0.785403 6.93814 -76 0 0 -448.686 9.17042 11.7445 -191.825 1223.96 -723.906 0 0 0 0.5 
996 2 2 3.12722 2.61586 7.1457 -2 0 -1 -207.39 22.922 0.629728 442.086 724.593 2242.79 0 0 0 0.5 
94 1 1 0.0908589 4.58625 7.16893 -16 0 0 -1.51577 -12.4169 -31.6823 1079.13 -280.758 -724.268 0 0 0 0.5 
805 2 2 3.75438 2.8645 6.16677 -65 0 -1 -258.388 29.9701 -14.2948 2281.31 352.918 -210.8 0 0 0 0.5 
717 2 2 0.0402384 4.06943 6.376 -36 0 0 -28.3443 -10.827 -23.26 -3287.65 -2504.86 182.032 0 0 0 0.5 
746 2 2 0.658956 3.63617 7.11126 -1 0 0 -141.537 -1.48053 9.70023 -1764.91 800.255 -1709.22 0 0 0 0.5 
592 2 2 0.490878 4.17781 7.82882 -12 0 -1 -32.7145 -6.38033 -4.98777 -2254.81 4552.36 993.806 0 0 0 0.5 
794 2 2 3.49049 3.74552 7.19774 50 0 0 -24.1068 -48.2912 9.75761 -3589.5 -533.478 1476.93 0 0 0 0.5 
439 1 1 4.28796 3.96954 7.14381 -17 0 0 -71.6281 3.43165 3.08285 1165.69 1798.11 1190.26 0 0 0 0.5 
156 1 1 1.45976 4.548 7.75169 26 0 0 -29.0747 3.92264 -8.4054 0 0 0 0 0 0 0.5 
608 2 2 2.78674 2.95863 6.39343 -21 0 0 -205.539 -2.05536 6.338 -2443.51 224.748 732.993 0 0 0 0.5 
523 2 2 4.73466 0.606248 7.83158 -53 0 1 -455.192 21.9941 10.9688 143.999 77.2013 170.873 0 0 0 0.5 
687 2 2 2.96098 1.13964 6.34351 67 1 0 -427.596 15.5143 13.0544 -769.734 -755.428 194.246 0 0 0 0.5 
311 1 1 3.57575 3.82989 6.38555 -7 0 0 -87.8214 -16.395 2.8908 -97.5479 -1217.46 -665.315 0 0 0 0.5 
569 2 2 3.89602 0.164813 7.37166 131 1 -1 -469.906 -5.30108 7.09024 -1814.05 -1422.15 720.151 0 0 0 0.5 
345 1 1 3.1131 0.45317 7.67811 77 1 0 -441.463 -7.83187 -10.2133 -2118.5 889.539 266.818 0 0 0 0.5 
511 2 2 0.899801 4.24119 6.34243 -17 0 -1 -71.0814 8.24592 20.4162 1905.11 459.242 1919 0 0 0 0.5 
972 2 2 3.31515 4.63878 7.40744 27 0 -1 12.0533 -15.4658 -3.58458 -121.243 -2150.94 368.483 0 0 0 0.5 
189 1 1 3.2488 1.93723 6.87977 80 1 0 -304.431 -2.81557 -35.4654 -395.629 -1015.45 -913.104 0 0 0 0.5 
278 1 1 2.78819 0.0202883 6.07095 107 1 -1 -484.065 5.50583 24.4579 -69.8981 67.4786 1213.27 0 0 0 0.5 
383 1 1 3.27102 1.33828 7.36653 -30 0 0 -399.094 8.19628 31.5241 2187.41 -2692.03 -1173.92 0 0 0 0.5 
154 1 1 3.37658 4.77307 6.34444 3 0 0 -7.71785 -16.4415 5.42519 -1301 280.219 1508.53 0 0 0 0.5 
485 1 1 4.07717 1.16766 6.24751 -60 0 1 -443.296 43.0571 11.0981 -82.321 953.679 -831.079 0 0 0 0.5 
671 2 2 4.1506 4.80798 7.07511 0 0 0 -17.4655 37.182 9.4956 1952.06 537.144 158.646 0 0 0 0.5 
835 2 2 4.33166 3.25548 7.8162 -14 0 0 -82.1943 -17.7684 3.94044 -768.769 -2008.09 -1970.24 0 0 0 0.5 
968 2 2 4.83669 2.02304 6.11474 113 1 0 -312.089 23.0951 -14.0056 -2274.33 3070.36 932.411 0 0 0 0.5 
80 1 1 4.86373 3.54724 6.88374 -14 0 0 -102.149 -10.4209 -19.8186 288.824 -1271.04 -1107.39 0 0 0 0.5 
260 1 1 4.92041 1.61646 7.78458 -76 0 0 -306.757 -32.5972 8.83586 557.835 -1371.69 260.793 0 0 0 0.5 
123 1 1 4.8714 4.85688 6.35383 -40 0 0 -10.6298 -1.55599 10.423 879.342 367.526 549.286 0 0 0 0.5 
690 2 2 2.33684 0.402115 9.76952 39 1 -1 -444.134 24.1314 -18.4642 424.279 -1386.64 974.098 0 0 0 0.5 
303 1 1 2.26419 1.3195 8.85774 74 1 0 -343.327 0.728175 15.2554 -2473.24 2547.6 270.607 0 0 0 0.5 
521 2 2 0.403029 2.2404 8.24917 -7 0 0 -204.854 3.84804 44.5901 -1878.3 269.121 655.761 0 0 0 0.5 
594 2 2 1.1766 0.656069 8.23837 -52 0 0 -408.805 -4.27503 4.6591 604.617 -696.445 -584.004 0 0 0 0.5 
495 1 1 0.394383 2.60594 9.69219 -45 0 0 -233.607 5.32186 7.37424 -302.702 132.782 -195.842 0 0 0 0.5 
654 2 2 2.01593 4.02807 8.55896 -57 0 1 -109.64 14.8233 -2.2873 38.6862 -469.821 155.789 0 0 0 0.5 
96 1 1 1.09454 0.121138 8.92735 -42 0 0 -460.895 -20.2811 -4.12586 -2708.65 1786.43 -497.512 0 0 0 0.5 
431 1 1 1.2771 2.19204 9.56055 -46 0 -1 -239.357 -15.7034 39.0861 -1733.3 -206.878 -1773.94 0 0 0 0.5 
769 2 2 1.2594 1.97295 8.21034 19 0 0 -243.442 -20.8654 0.0444233 -1394.35 -55.8619 978.244 0 0 0 0.5 
702 2 2 4.91007 0.339952 8.77873 90 1 0 -443.496 9.02539 -7.33807 -1331.24 3140.4 -1181.62 0 0 0 0.5 
227 1 1 2.23489 0.193203 8.07948 -55 0 0 -437.304 -10.5668 -18.0619 -3515.92 3091.42 -376.1 0 0 0 0.5 
984 2 2 1.93596 0.440727 8.9704 76 1 0 -447.484 18.9487 -28.9006 -1217.94 -465.795 -2523.09 0 0 0 0.5 
65 1 1 1.80369 2.20056 8.85978 -9 0 0 -245.751 2.82561 29.7653 267.903 1386.78 -294.384 0 0 0 0.5 
876 2 2 4.71573 2.91557 9.38979 -23 0 0 -179.212 3.895 -7.72629 -898.228 2624.65 -1954.96 0 0 0 0.5 
852 2 2 2.78769 0.0206589 9.09405 -81 0 0 -512.099 8.97759 -2.49441 4080.83 -2693.1 -916.995 0 0 0 0.5 
127 1 1 1.51919 1.03597 9.3378 -50 0 0 -347.904 7.44031 10.9598 -1290.18 2389.87 -476.784 0 0 0 0.5 
616 2 2 1.02351 2.7189 8.783 -16 0 0 -179.867 12.6357 14.3333 -2020.6 954.952 135.076 0 0 0 0.5 
49 1 1 2.54654 2.21697 8.98547 2 0 0 -230.307 17.3261 4.99692 531.165 -2376.83 -1226.37 0 0 0 0.5 
414 1 1 0.533415 0.0668596 9.69207 67 1 -1 -457.602 -5.56727 2.18432 -1162.73 1052.41 -693.379 0 0 0 0.5 
856 2 2 0.0100432 0.162286 8.98195 -85 0 0 -440.854 -25.8078 -9.84145 -524.093 -1015.84 -730.455 0 0 0 0.5 
241 1 1 2.09063 3.12089 8.85978 146 1 0 -152.751 -0.374239 17.9001 -360.177 -438.812 -277.896 0 0 0 0.5 
399 1 1 0.80763 1.17129 8.61934 -69 0 -1 -366.847 14.4383 29.7007 -112.061 1804.36 -880.53 0 0 0 0.5 
857 2 2 2.68784 4.69126 9.6803 0 0 -1 22.7264 -20.6643 -38.022 412.14 1341.79 824.155 0 0 0 0.5 
492 1 1 0.747285 1.18341 9.59244 -94 0 0 -330.532 -3.9713 0.389587 -2092.36 140.506 2607.93 0 0 0 0.5 
754 2 2 2.96627 1.16706 9.53538 -51 0 0 -369.288 5.88458 -4.71788 417.862 -330.055 1440.59 0 0 0 0.5 
343 1 1 0.959489 3.46444 8.10208 -13 0 0 -141.858 6.6115 4.76471 1511.24 -3114.33 1507.56 0 0 0 0.5 
674 2 2 2.96022 2.51222 9.72552 -13 0 -1 -216.627 4.33182 -9.05107 605.802 750.041 613.74 0 0 0 0.5 
374 1 1 0.947822 4.41989 9.41884 -12 0 0 -65.8614 0.100332 -2.34207 817.699 -2231.66 -9.89102 0 0 0 0.5 
157 1 1 4.72496 2.11092 8.58622 -26 0 0 -267.432 11.8005 -5.31494 351.801 -1283.61 -51.0152 0 0 0 0.5 
924 2 2 3.48229 2.92014 8.84284 -34 0 0 -167.565 -0.590435 -13.4392 377.712 2545.11 2461.03 0 0 0 0.5 
750 2 2 2.9342 1.37332 8.40479 -62 0 0 -334.178 23.7853 10.9595 1612.2 351.209 96.2173 0 0 0 0.5 
572 2 2 4.00478 2.38137 8.0356 -40 0 0 -254.548 -8.14584 14.2972 -2113.86 2977.1 -838.76 0 0 0 0.5 
403 1 1 3.79034 4.92505 9.53126 -1 0 -1 1.33759 -15.0233 -10.0875 -2840.72 892.554 744.654 0 0 0 0.5 
351 1 1 2.65751 3.91054 9.88737 -18 0 0 -131.627 -6.27969 16.8317 2858.57 -58.0956 -1831.06 0 0 0 0.5 
721 2 2 3.94156 0.524779 8.22993 94 1 0 -462.631 13.1977 16.4922 -243.353 2259.92 169.585 0 0 0 0.5 
263 1 1 0.393263 4.2786 8.71734 -20 0 0 -68.9115 -17.5609 0.18267 -119.326 -2582.47 -289.511 0 0 0 0.5 
372 1 1 2.9152 0.61987 8.59712 -59 0 0 -440.2 10.6622 -13.8413 2246.03 -3267.11 -715.6 0 0 0 0.5 
180 1 1 4.03909 4.95254 8.726 23 0 0 19.7249 -4.29999 20.372 487.796 1200.33 -2453.15 0 0 0 0.5 
365 1 1 4.38879 0.594676 9.41175 -90 0 -1 -410.687 -22.8475 28.2866 -934.514 -991.356 250.396 0 0 0 0.5 
830 2 2 0.235164 3.3671 9.11699 97 1 -1 -169.638 13.1529 -5.8201 -83.4898 161.868 54.6882 0 0 0 0.5 
819 2 2 3.06 4.17812 8.71683 -31 0 0 -99.2593 13.5834 -15.0255 169.179 -1914.94 -584.839 0 0 0 0.5 
740 2 2 3.61051 3.94831 9.41387 -45 0 0 -124.287 13.0185 9.7979 371.595 -155.121 470.495 0 0 0 0.5 
18 1 1 3.03146 2.7811 8.0738 -17 0 0 -146.439 -2.92487 23.6861 -1777.12 -1012.44 -2980.13 0 0 0 0.5 
329 1 1 3.85422 1.20811 9.37891 -52 0 0 -368.182 21.5455 0.541491 -529.679 -40.6496 850.672 0 0 0 0.5 
226 1 1 3.9713 2.09849 8.94957 -54 0 0 -265.513 -9.38454 21.5429 389.816 -884.678 200.539 0 0 0 0.5 
916 2 2 2.04546 1.92738 8.03884 -40 0 -1 -268.693 -2.85574 19.9463 1411.06 33.8654 824.027 0 0 0 0.5 
923 2 2 4.33448 1.25153 8.55782 52 1 -1 -368.016 9.51398 1.93691 720.785 1074.15 -681.467 0 0 0 0.5 
745 2 2 3.67866 3.60143 8.05077 0 0 0 -74.2178 -11.4796 40.3694 -1042.79 2044.49 887.77 0 0 0 0.5 
42 1 1 4.47179 3.78799 8.70773 -50 0 0 -112.61 16.4749 13.7776 496.758 -713.219 -220.312 0 0 0 0.5 
14 1 1 4.93027 4.76063 8.77816 11 0 0 27.4288 -5.01773 17.6562 -296.215 220.696 498.675 0 0 0 0.5 
218 1 1 3.31095 5.71617 0.780614 22 0 0 51.3881 7.37986 15.2044 -568.558 6.85787 1273.34 0 0 0 0.5 
172 1 1 0.732624 8.26293 1.91094 -98 -1 0 337.846 -2.68721 -3.72436 -2537.5 1877.2 -862.647 0 0 0 0.5 
212 1 1 1.73885 9.27674 0.685005 112 0 0 458.234 1.16842 17.233 3382.75 -2019.83 -2230.59 0 0 0 0.5 
155 1 1 3.999 9.07016 0.976273 20 0 1 426.908 -3.50846 -15.2813 862.427 -1266.04 -341.9 0 0 0 0.5 
796 2 2 0.0147667 7.59266 1.29809 12 0 0 266.545 -24.6259 30.0815 -3367.78 -245.461 907.067 0 0 0 0.5 
455 1 1 4.73826 6.02294 1.37007 6 0 0 91.0027 7.60704 17.3027 -1609.08 2944.81 -129.316 0 0 0 0.5 
1000 2 2 2.40429 9.99731 1.6162 -63 -1 0 584.439 0.0299089 10.6777 494.394 -1242.21 -2609.09 0 0 0 0.5 
981 2 2 2.70215 7.08772 1.13209 37 0 0 188.05 2.36256 -20.214 1404.44 713.593 -985.241 0 0 0 0.5 
562 2 2 0.469008 8.18609 0.601333 88 0 1 376.286 -36.4719 18.8051 -1146.82 558.134 784.033 0 0 0 0.5 
853 2 2 0.0593977 9.89749 1.26574 61 0 0 607.917 4.86128 -31.4952 -743.367 1906.63 -322.937 0 0 0 0.5 
304 1 1 0.63622 9.68627 0.426229 -52 -1 0 519.042 25.5497 7.03127 -1508.68 3044.38 1405.58 0 0 0 0.5 
246 1 1 3.84008 9.94621 1.32954 112 0 1 515.694 -7.14445 -16.333 1893.99 1693.64 -1332.31 0 0 0 0.5 
930 2 2 2.80541 5.51648 1.54045 -12 0 0 -3.92373 31.5898 11.6307 1631.51 15.0402 1491.23 0 0 0 0.5 
645 2 2 4.31406 6.9708 1.51857 43 0 0 156.658 11.3251 -4.15398 -561.721 634.071 -937.223 0 0 0 0.5 
463 1 1 0.999533 9.17585 0.827465 92 0 1 462.242 -4.92208 -8.17901 -190.034 236.597 -168.779 0 0 0 0.5 
791 2 2 4.56057 6.68961 0.650224 30 0 0 144.351 9.32737 -13.7775 182.239 -516.198 502.758 0 0 0 0.5 
77 1 1 2.6036 9.78347 1.07534 88 0 1 628.74 -18.695 -26.5598 -5347.95 2487.79 2971.33 0 0 0 0.5 
307 1 1 0.355563 9.13787 1.3944 107 0 0 479.605 -34.8897 -10.1841 -5934.44 -931.576 719.776 0 0 0 0.5 
60 1 1 2.92527 8.24799 1.35948 15 0 1 266.958 19.9769 -0.716878 -123.604 470.869 515.23 0 0 0 0.5 
84 1 1 3.12588 9.05304 0.735852 81 0 1 429.347 -16.5231 -43.114 4142.45 -4743.66 -3314.43 0 0 0 0.5 
668 2 2 3.56589 6.67797 0.566915 -14 0 1 141.895 8.05258 -8.31878 1502.59 -886.525 1529.55 0 0 0 0.5 
32 1 1 0.0609174 8.68816 0.257544 122 0 0 402.505 -11.8238 -12.9357 -3955.34 2067.23 142.136 0 0 0 0.5 
386 1 1 1.10565 8.97563 1.53636 36 0 0 422.951 -2.28924 7.32922 1025.94 -63.3916 681.126 0 0 0 0.5 
710 2 2 3.59187 7.83529 1.8117 63 0 0 274.688 -4.06956 -11.4934 209.117 -571.749 51.7714 0 0 0 0.5 
552 2 2 1.21371 7.47405 0.553588 49 0 0 227.768 -3.28639 -0.108872 237.253 -929.9 -1266.48 0 0 0 0.5 
135 1 1 2.02765 6.1224 1.80969 -12 0 0 82.234 8.00217 0.0642997 502.202 -1.79709 -351.659 0 0 0 0.5 
452 1 1 3.46162 6.9052 1.51745 17 0 0 170.16 -4.90718 0.0114946 -687.768 -64.948 966.2 0 0 0 0.5 
980 2 2 4.34153 9.58704 1.82169 78 0 1 497.991 -22.6643 6.33348 -235.529 1559.51 -1776.94 0 0 0 0.5 
405 1 1 4.02781 5.81362 0.318381 3 0 0 41.2511 19.3061 -19.2953 110.316 621.479 -725.883 0 0 0 0.5 
392 1 1 0.0255713 5.22622 1.48986 -18 0 0 6.63363 7.59277 20.1815 -210.102 1547.16 1106.09 0 0 0 0.5 
453 1 1 0.426209 7.30916 0.889493 33 0 0 223.475 -8.43832 -7.23655 -868.855 -289.753 -962.394 0 0 0 0.5 
447 1 1 1.25452 8.35969 0.922509 44 0 1 366.422 -18.2035 -5.93448 -2272.99 415.621 320.431 0 0 0 0.5 
976 2 2 1.86691 8.16338 1.01862 45 0 0 335.683 4.18927 0.00651173 4716.62 -321.049 1841.19 0 0 0 0.5 
579 2 2 1.17231 5.17915 0.995441 -21 0 0 -28.4887 19.6382 18.5909 0 0 0 0 0 0 0.5 
994 2 2 4.54115 8.03369 0.229632 38 0 0 334.145 -16.6181 9.03531 -3528.76 1701.97 1449.25 0 0 0 0.5 
711 2 2 1.54923 7.69429 1.99258 41 0 0 251.921 -6.41461 7.11183 3075.43 -1420.28 545.343 0 0 0 0.5 
812 2 2 0.804182 6.1015 1.77892 41 0 1 132.92 -22.5676 -5.80269 1134.75 -825.861 423.373 0 0 0 0.5 
563 2 2 1.88123 7.21331 1.36749 4 0 1 217.123 -15.2763 -22.2846 -2561.82 14.705 269.957 0 0 0 0.5 
341 1 1 2.31526 5.862 0.927118 23 0 0 42.1066 12.2497 -31.5648 2258.48 -1055.63 -1976.31 0 0 0 0.5 
63 1 1 2.01417 7.696 0.460201 45 0 0 248.72 -1.75361 -3.92473 1395.23 -2764.65 390.816 0 0 0 0.5 
518 2 2 2.50349 9.14273 1.15582 -88 -1 0 449.581 -46.968 13.7842 -854.261 627.45 1769.4 0 0 0 0.5 