ITEM: TIMESTEP
24000
ITEM: NUMBER OF ATOMS
1000
ITEM: BOX BOUNDS xy xz yz pp pp pp
0 10 0
0 10 0
-0 10 0
ITEM: ATOMS id type type x y z ix iy iz vx vy vz fx fy fz omegax omegay omegaz radius 
431 1 1 2.80352 0.903423 0.913953 -52 0 0 -355.853 -17.4209 3.86736 399.009 -1271.77 556.772 0 0 0 0.5 
65 1 1 0.730577 1.39497 0.196522 -14 0 1 -333.413 9.5689 34.5251 125.228 -102.82 -141.33 0 0 0 0.5 
618 2 2 1.11115 1.41472 1.88757 -26 0 1 -321.208 5.2982 -6.83009 533.56 365.532 -721.085 0 0 0 0.5 
843 2 2 0.686391 2.6427 0.961673 2 0 1 -200.835 -20.3477 -5.4457 1539.02 -343.354 837.188 0 0 0 0.5 
947 2 2 4.70743 3.80858 0.55345 21 0 1 -80.5341 -3.41306 24.1917 -2494.75 2119.01 1555.93 0 0 0 0.5 
516 2 2 1.66804 3.86094 1.10876 -82 0 1 -145.122 17.8378 15.4658 1274.69 560.392 -423.788 0 0 0 0.5 
901 2 2 2.66361 1.73935 0.849606 -59 0 0 -294.571 -2.03233 8.6415 2461.84 -1342.76 -442.562 0 0 0 0.5 
329 1 1 1.08317 0.221123 0.242435 -59 0 1 -409.345 -10.4225 26.075 131.604 886.55 -1260.95 0 0 0 0.5 
883 2 2 1.64836 2.37203 0.0230745 3 0 0 -292.29 13.8059 1.56883 -788.723 485.188 95.72 0 0 0 0.5 
1000 2 2 4.01827 3.16096 1.94445 -71 0 0 -235.206 33.5377 16.7237 1470.41 147.474 -357.693 0 0 0 0.5 
898 2 2 1.16731 3.33036 0.490472 -37 0 0 -136.553 -17.1133 19.638 -1453.99 -551.564 -1037.27 0 0 0 0.5 
648 2 2 0.642343 2.45441 0.0892509 120 1 1 -221.429 -4.68397 -21.1662 2027.15 -1900.84 -745.756 0 0 0 0.5 
822 2 2 1.52072 0.172897 1.36678 -27 0 1 -456.175 -4.41067 6.74798 -89.0032 -769.644 -625.12 0 0 0 0.5 
886 2 2 0.0980132 3.10234 0.365398 155 1 0 -150.643 -4.74539 -2.58103 297.858 3010.53 790.353 0 0 0 0.5 
216 1 1 2.44617 0.119806 1.2491 -67 0 1 -441.36 -15.4653 -0.793115 201.175 507.296 1185.08 0 0 0 0.5 
549 2 2 1.63107 0.953279 0.812507 -91 0 0 -379.555 14.6761 11.2441 238.839 -1111.24 103.721 0 0 0 0.5 
755 2 2 4.12793 4.8971 1.34955 -49 0 0 -24.3838 0.742995 5.83073 0 0 0 0 0 0 0.5 
400 1 1 2.09055 0.270978 0.334594 -72 0 0 -392.544 -26.3777 13.3089 -181.878 1522.05 -1958.4 0 0 0 0.5 
213 1 1 1.85516 3.0026 1.10742 111 1 1 -206.008 5.03023 1.18627 2065.72 -578.345 2898.55 0 0 0 0.5 
999 2 2 2.17853 2.27474 0.904266 -15 0 0 -256.707 -5.07241 -14.4247 -2778.92 1103.11 -855.403 0 0 0 0.5 
318 1 1 0.378656 1.41656 1.29954 -42 0 1 -323.685 -12.7529 -23.7743 182.319 -209.457 -21.3439 0 0 0 0.5 
497 1 1 0.0383554 0.0857432 0.105518 126 1 1 -441.958 1.3664 -1.52139 -1364.09 -445.827 757.483 0 0 0 0.5 
656 2 2 3.09068 1.66592 1.71178 -53 0 1 -319.947 -3.56908 18.1072 -87.4479 -353.976 637.344 0 0 0 0.5 
467 1 1 3.35453 4.04863 1.47186 161 1 1 -91.5795 11.8002 -23.7193 -1034.01 1994.34 1593.69 0 0 0 0.5 
282 1 1 3.83768 0.541116 0.92784 117 1 0 -385.935 -21.0202 15.0546 -432.234 -360.619 38.5637 0 0 0 0.5 
9 1 1 0.595514 3.01308 1.69646 137 1 0 -158.562 -9.15002 24.7033 1505.34 2113.45 -808.325 0 0 0 0.5 
510 2 2 1.65141 4.31717 0.301566 -35 0 0 -46.2325 -5.34282 -4.30402 3139.17 25.9082 287.096 0 0 0 0.5 
335 1 1 1.71116 4.81286 1.12881 -53 0 1 -62.7307 14.412 11.8756 1788.7 -1882.54 842.045 0 0 0 0.5 
582 2 2 0.989533 4.48669 0.254818 10 0 0 -47.5106 -14.6915 -12.6056 -22.1322 -1735.35 -209.56 0 0 0 0.5 
921 2 2 0.836553 3.78738 1.4807 -50 0 1 -119.18 2.68131 25.9558 638.147 511.427 -112.078 0 0 0 0.5 
707 2 2 0.850324 4.69578 1.22858 -201 -1 0 -56.7558 7.62277 -2.19412 -412.662 -858.809 1422.38 0 0 0 0.5 
864 2 2 3.57453 4.67635 0.130796 -25 0 1 -4.03446 -30.0239 8.50502 988.89 -735.434 -345.753 0 0 0 0.5 
106 1 1 2.97711 2.77236 0.518796 -32 0 0 -248.867 17.4335 -3.39072 0 0 0 0 0 0 0.5 
531 2 2 2.8513 2.4499 1.50392 -40 0 0 -277.892 28.9452 -5.42986 2164.3 -1694.47 -1546.92 0 0 0 0.5 
307 1 1 4.83446 0.262687 0.302657 116 1 0 -469.214 2.76175 30.1675 2217.7 -659.889 375.551 0 0 0 0.5 
858 2 2 1.27331 4.51944 1.8593 -10 0 0 -65.548 -5.36024 33.4412 -661.338 971.568 -292.055 0 0 0 0.5 
566 2 2 0.0576471 3.88475 1.9587 143 1 1 -103.52 -24.9513 7.77322 -2154.58 -307.316 1980.24 0 0 0 0.5 
766 2 2 3.14045 1.49512 0.121372 -46 0 1 -301.038 -13.8362 -10.338 419.369 -302.731 -1659.39 0 0 0 0.5 
983 2 2 0.59876 4.97087 0.536332 14 0 0 -17.371 10.7105 -10.0757 -835.21 1155.27 -444.025 0 0 0 0.5 
647 2 2 4.54588 1.78366 1.11231 -52 0 0 -321.413 7.16375 -2.29023 417.81 -1334.25 1586.08 0 0 0 0.5 
548 2 2 3.60978 1.38035 0.860485 -67 0 1 -346.455 17.8158 4.46098 435.208 -1000.37 1579.99 0 0 0 0.5 
62 1 1 4.84801 3.02927 1.169 -36 0 0 -214.038 16.4529 15.2304 -524.094 460.687 476.716 0 0 0 0.5 
754 2 2 4.16638 0.480098 0.03352 -59 0 1 -447.82 5.45195 -29.2877 -2256.91 709.433 -350.061 0 0 0 0.5 
365 1 1 3.02433 0.473693 0.119248 -98 0 0 -385.566 -18.2391 -7.08521 1664.95 -634.829 436.609 0 0 0 0.5 
842 2 2 2.80518 0.879163 1.88202 -63 0 1 -369.591 -14.5903 4.79132 -2629.58 -267.363 -873.115 0 0 0 0.5 
484 1 1 0.0570375 4.56244 1.48429 26 0 1 -62.7321 -4.95247 14.7791 631.931 -3957.39 -530.784 0 0 0 0.5 
770 2 2 2.57499 4.19501 1.59612 -41 0 0 -98.1998 2.40645 -23.8291 -795.614 -2008.9 -827.56 0 0 0 0.5 
584 2 2 4.2616 2.33374 0.556236 -43 0 1 -261.529 6.37885 18.138 -822.573 2058.3 -1719.65 0 0 0 0.5 
598 2 2 0.519503 3.86633 0.702836 -27 0 1 -119.944 0.140969 -1.11815 555.003 1359.14 -746.53 0 0 0 0.5 
772 2 2 3.97521 3.38031 1.08652 -49 0 1 -205.663 15.9809 -18.9829 1861.09 -2574.21 -1313 0 0 0 0.5 
865 2 2 3.14498 3.23811 1.91422 -43 0 -1 -228.348 31.4922 -8.20265 161.636 869.733 -79.6315 0 0 0 0.5 
846 2 2 3.78066 2.03813 1.4473 -35 0 1 -321.066 35.8204 -0.486055 -48.2804 760.554 543.709 0 0 0 0.5 
237 1 1 4.90762 1.34758 0.326699 -44 0 1 -338.193 -8.14813 7.38583 -544.395 -91.874 -963.872 0 0 0 0.5 
272 1 1 4.90151 0.961813 1.22965 -90 0 0 -383.018 -12.15 11.6955 -2339.22 -232.497 105.081 0 0 0 0.5 
433 1 1 1.16836 0.547092 2.18856 83 1 -1 -457.712 9.7035 -7.54906 817.385 -889.11 390.741 0 0 0 0.5 
626 2 2 1.09254 1.69642 3.98122 -13 0 -1 -317.883 -19.8588 3.08761 -693.768 -591.475 1938.23 0 0 0 0.5 
259 1 1 2.2084 0.891129 3.87457 -74 0 -1 -419.541 -14.4835 -12.3707 -862.282 -114.177 -766.763 0 0 0 0.5 
738 2 2 -0.00791631 0.81395 2.05267 138 1 1 -405.945 -0.798399 -18.8788 -1345.43 -2968.88 -1813.31 0 0 0 0.5 
820 2 2 2.25733 1.54707 2.43285 -62 0 0 -366.521 7.40485 -5.06104 497.096 730.729 853.774 0 0 0 0.5 
851 2 2 2.60599 0.278942 2.4815 -96 0 0 -430.982 -25.6995 9.3401 -1082.46 418.878 -1895.93 0 0 0 0.5 
658 2 2 1.60829 3.19837 3.71588 -25 0 0 -205.305 28.2489 -7.84854 660.076 -310.404 1818.87 0 0 0 0.5 
204 1 1 1.30686 1.91631 2.76049 -95 0 1 -328.053 7.53331 2.26121 2630.33 -3409.52 -1211.33 0 0 0 0.5 
585 2 2 0.0543875 0.966421 3.87293 -61 0 1 -408.281 5.65082 -0.474594 -11.7265 611.085 1101.36 0 0 0 0.5 
538 2 2 0.925889 1.02522 3.32491 146 1 0 -380.811 -6.45929 10.9862 -313.591 -1420.02 1172.53 0 0 0 0.5 
416 1 1 0.517946 1.55613 2.87557 -60 0 0 -324.902 3.96534 -17.0279 1707.84 413.334 -254.581 0 0 0 0.5 
882 2 2 3.93382 4.95338 3.37103 -19 0 0 13.6124 -9.28066 18.0212 -1298.07 447.251 -51.911 0 0 0 0.5 
427 1 1 4.02578 3.47001 3.58315 -4 0 0 -162.703 17.2012 -14.7559 1150.14 -1997.48 -350.075 0 0 0 0.5 
980 2 2 0.399356 0.334346 2.69425 89 1 1 -431.546 19.0541 14.3256 -166.392 1692.37 2287.81 0 0 0 0.5 
679 2 2 4.87416 3.3482 3.86933 -21 0 0 -192.571 25.5652 -1.41637 2140.63 1190.76 332.792 0 0 0 0.5 
597 2 2 0.631973 2.15901 2.03648 -49 0 1 -300.424 13.8777 -8.34589 425.586 -836.514 2418.1 0 0 0 0.5 
275 1 1 4.08389 0.193794 2.26769 -50 0 0 -450.64 -24.7418 -8.89469 704.801 -1319.13 -64.0269 0 0 0 0.5 
725 2 2 2.36905 3.00616 2.04222 -27 0 0 -223.927 2.22897 3.50682 -3003.97 1394.19 1996.84 0 0 0 0.5 
289 1 1 0.308637 0.0675149 3.63452 -116 0 -1 -487.992 7.2482 11.8858 806.595 -1463.76 -772.948 0 0 0 0.5 
391 1 1 2.27259 4.65224 2.93769 -13 0 0 -35.422 9.93953 16.011 -329.923 174.66 -249.69 0 0 0 0.5 
784 2 2 4.86225 4.37726 2.54862 -62 0 1 -81.6385 -0.611816 -10.6652 2177.86 -2768.08 -1291.88 0 0 0 0.5 
121 1 1 1.7832 0.682303 3.07729 119 1 0 -411.994 -11.928 -12.8837 913.603 -738.287 -1169.31 0 0 0 0.5 
555 2 2 1.8956 4.21 2.19189 -22 0 0 -53.2824 -20.1401 35.3052 533.845 -671.136 907.14 0 0 0 0.5 
954 2 2 0.880433 2.34191 3.51732 102 1 0 -283.887 6.44687 -3.63293 673.825 -2269.41 552.965 0 0 0 0.5 
619 2 2 1.17103 2.65784 2.70372 -29 0 1 -228.531 6.96372 -14.0194 1603.14 -414.602 -56.4329 0 0 0 0.5 
258 1 1 3.22979 0.950218 3.52151 -55 0 1 -394.683 -5.77309 -4.12052 -335.155 -1507.31 -1040.68 0 0 0 0.5 
987 2 2 1.96524 1.72377 3.75874 80 1 0 -320.742 12.2906 -19.6048 410.58 1267.55 -370.191 0 0 0 0.5 
742 2 2 1.25437 3.39668 2.80515 11 0 -1 -148.566 21.6776 12.1972 -440.014 -1290.36 -1851.23 0 0 0 0.5 
445 1 1 3.86974 4.17123 2.34246 -14 0 0 -94.7232 -0.0703332 -21.9113 1799.1 -2942.27 -392.016 0 0 0 0.5 
943 2 2 3.07502 1.62168 3.18433 -42 0 0 -337.635 0.345305 -1.84481 980.045 -1676.8 1021.62 0 0 0 0.5 
346 1 1 3.70601 0.901051 2.30201 113 1 0 -423.162 0.127552 -4.99357 2057.02 -189.216 475.922 0 0 0 0.5 
208 1 1 0.592441 3.12524 3.44883 5 0 0 -152.32 4.25943 13.7686 -270.388 3534.87 388.254 0 0 0 0.5 
625 2 2 0.378783 3.04212 2.49682 -3 0 0 -177.049 9.45858 33.6079 -3761.05 962.183 -315.087 0 0 0 0.5 
313 1 1 4.86948 0.523914 2.88381 -83 0 0 -480.507 2.37998 -29.6075 -738.564 -738.064 -1065.63 0 0 0 0.5 
428 1 1 4.21725 2.46233 3.04423 -43 0 1 -254.119 27.81 12.8473 -48.8764 345.49 -1371.16 0 0 0 0.5 
929 2 2 2.90989 4.58972 3.64414 -16 0 1 -26.3552 10.0342 4.06346 -3071.55 2418.74 -975.178 0 0 0 0.5 
574 2 2 3.40373 4.87728 2.5113 -10 0 1 -3.38939 1.48608 14.8853 -1530.59 1784.89 384.954 0 0 0 0.5 
933 2 2 0.909172 4.05561 2.73553 -17 0 0 -116.133 34.4373 0.105421 2889.33 2136.67 -863.555 0 0 0 0.5 
875 2 2 4.28173 2.33314 2.16881 0 0 1 -261.682 2.88669 -2.92239 -965.378 -276.889 -1013.93 0 0 0 0.5 
327 1 1 3.62144 1.55411 2.62675 -24 0 0 -345.275 23.7065 5.96533 2569.23 -1721.35 -787.032 0 0 0 0.5 
919 2 2 3.77083 0.138692 3.23042 -41 0 0 -501.363 21.229 -21.7942 3697.26 1550.82 -241.662 0 0 0 0.5 
828 2 2 3.51368 3.2583 2.81108 -29 0 1 -171.506 4.01499 -12.3168 -318.258 279.433 -552.019 0 0 0 0.5 
308 1 1 4.77024 1.25492 2.99542 -30 0 1 -367.337 9.29095 -23.9616 935.792 1665.41 -420.981 0 0 0 0.5 
641 2 2 3.52055 4.03918 3.2626 -8 0 0 -86.4217 27.0053 -6.94394 -548.739 299.295 -3051.1 0 0 0 0.5 
596 2 2 0.156178 4.17182 2.86359 -41 0 1 -84.045 11.1695 6.06404 -2421.72 735.188 355.059 0 0 0 0.5 
224 1 1 3.00178 0.131695 3.16646 -81 0 1 -459.767 -26.7983 20.1921 -3407.84 41.0416 1707.91 0 0 0 0.5 
743 2 2 3.39705 2.42551 2.49488 -37 0 0 -267.353 -2.83588 -5.92853 -228.777 2992.26 197.773 0 0 0 0.5 
650 2 2 2.65599 2.1331 3.11756 -20 0 0 -283.213 -7.43078 -3.43081 -4046.41 2726.16 -1651.39 0 0 0 0.5 
748 2 2 3.48803 2.53558 3.54398 101 1 -1 -254.728 5.9813 14.3102 3647.37 -2167.41 1077.67 0 0 0 0.5 
603 2 2 4.36955 1.7322 3.4938 100 1 0 -329.431 -1.29071 18.8613 -886.606 711.924 1503.49 0 0 0 0.5 
331 1 1 4.66811 4.46457 3.45924 5 0 0 -63.6545 3.82936 -11.5067 2171.25 -1471.23 1983.26 0 0 0 0.5 
524 2 2 2.74522 2.92097 3.36961 -22 0 1 -182.619 -3.47007 3.13397 -4276.55 2023.29 -1222.88 0 0 0 0.5 
244 1 1 2.8429 3.6885 3.75284 -188 -1 0 -103.61 -6.07814 1.25041 -2060.57 3048.68 -2782.61 0 0 0 0.5 
529 2 2 2.78443 3.94093 2.58821 -6 0 0 -78.2141 -18.8404 -15.358 20.5664 -28.5814 -14.0428 0 0 0 0.5 
693 2 2 1.26886 4.94703 2.87163 34 0 0 32.4188 -12.1884 8.43425 446.027 -748.047 -278.874 0 0 0 0.5 
623 2 2 4.95891 3.37708 2.92004 -36 0 1 -179.349 3.60307 -3.52211 -1014.82 2829.74 -18.7611 0 0 0 0.5 
379 1 1 0.605661 0.110046 5.33424 -67 0 0 -534.905 4.86488 -13.9469 1829.4 -536.087 292.532 0 0 0 0.5 
240 1 1 2.27776 0.839118 5.77566 -83 0 0 -431.545 -12.7725 7.85274 -179.342 1822.44 -81.8666 0 0 0 0.5 
637 2 2 3.92146 2.25176 4.68044 -46 0 1 -285.634 1.03465 -14.8378 756.186 983.337 1034.44 0 0 0 0.5 
476 1 1 0.213655 1.57485 5.7924 -23 0 0 -373.08 13.5072 20.8435 435.89 -746.694 350.142 0 0 0 0.5 
513 2 2 0.26544 2.35813 5.81412 -54 0 0 -284.717 31.3271 25.7256 712.088 -893.647 300.902 0 0 0 0.5 
78 1 1 2.59527 3.78783 4.68135 13 0 1 -82.3266 -13.1251 -0.235778 575.768 -274.784 -1583.68 0 0 0 0.5 
480 1 1 1.31121 1.03216 5.57596 -55 0 1 -404.595 -2.52272 2.74107 1243.22 -539.499 -524.838 0 0 0 0.5 
56 1 1 1.74496 3.10922 5.75693 -26 0 0 -184.029 24.1234 16.8006 436.459 2292.24 1370.07 0 0 0 0.5 
321 1 1 1.32998 3.19307 4.8534 8 0 -1 -171.413 10.0116 -6.43729 -731.971 694.05 -257.321 0 0 0 0.5 
771 2 2 1.61292 0.932349 4.66548 -69 0 0 -402.076 -26.4133 5.00579 68.6989 -6.63756 -573.228 0 0 0 0.5 
541 2 2 0.663696 1.04494 4.52178 67 1 0 -409.357 4.42733 1.93584 215.846 2915.59 -695.21 0 0 0 0.5 
134 1 1 0.608404 1.21833 5.34163 -46 0 0 -409.935 -1.61848 -8.84026 -372.541 -461.525 -175.729 0 0 0 0.5 
247 1 1 0.981966 0.314812 4.22487 -103 0 0 -488.196 0.135805 21.911 2649.66 -2088.43 -405.142 0 0 0 0.5 
434 1 1 4.23436 3.0835 4.37592 -54 0 0 -186.174 -19.7851 -20.4762 1629.51 -2292.95 1853.86 0 0 0 0.5 
446 1 1 3.37169 3.37319 4.15352 -27 0 1 -138.562 10.7713 15.0154 -894.827 -1178.63 1443.68 0 0 0 0.5 
741 2 2 3.14061 3.26376 5.06374 -88 0 0 -122.599 -2.43642 1.82226 859.38 281.896 -615.342 0 0 0 0.5 
17 1 1 2.05246 2.67412 4.30122 -66 0 0 -221.46 -0.372415 1.06933 -2877.42 563.158 -1467.78 0 0 0 0.5 
795 2 2 1.90301 2.54542 5.34337 -53 0 0 -255.317 -8.13967 2.8157 -2870.18 -1021.61 1845.06 0 0 0 0.5 
703 2 2 2.7568 0.769088 4.41231 -95 0 0 -435.525 -13.3683 -1.28157 92.3523 -126.325 1047.99 0 0 0 0.5 
493 1 1 1.81871 1.75121 4.81937 126 1 0 -285.139 -16.7961 -2.20208 -3380.43 2264.81 -649.058 0 0 0 0.5 
611 2 2 1.24356 2.23186 4.69052 -19 0 0 -249.624 3.75776 3.89336 -2866.27 1945.23 -1210.28 0 0 0 0.5 
112 1 1 2.39944 4.31851 5.85006 -8 0 0 -29.7229 -5.34587 -31.5939 -12.5364 308.986 81.6553 0 0 0 0.5 
665 2 2 2.43635 2.36557 5.14219 46 1 1 -274.606 16.8242 -0.709672 1885.26 -1379.47 -475.71 0 0 0 0.5 
827 2 2 4.15628 3.64562 4.95733 -37 0 0 -140.695 13.6819 -12.0156 -546.393 702.732 -924.791 0 0 0 0.5 
98 1 1 3.4652 1.94188 5.80977 -11 0 0 -323.754 8.30634 -16.5304 2123.53 -2690.93 416.762 0 0 0 0.5 
410 1 1 4.08884 3.75098 5.83007 -22 0 0 -99.2986 -6.5293 -1.02163 -1962.95 -1494.43 -377.277 0 0 0 0.5 
449 1 1 4.25271 4.60383 4.9876 -9 0 0 -75.2195 21.2645 -11.6414 879.234 1164.1 78.8868 0 0 0 0.5 
347 1 1 2.03584 4.24893 4.85209 -9 0 0 -42.8962 -8.9264 20.3273 -2894.51 2065.71 1126.72 0 0 0 0.5 
249 1 1 -0.0120416 2.12614 4.27771 -57 0 1 -212.557 -9.72269 9.78183 1217.36 213.913 552.61 0 0 0 0.5 
39 1 1 3.30488 2.79496 5.69338 -69 0 0 -248.95 24.0488 1.35237 -185.748 -1575.01 1118.87 0 0 0 0.5 
925 2 2 4.0491 0.334362 4.70016 33 1 0 -477.482 16.2243 27.2157 -737.978 1368.89 -608.646 0 0 0 0.5 
789 2 2 2.99843 2.62134 4.34217 -68 0 0 -255.139 6.57214 12.4093 2404.11 1602.13 -924.187 0 0 0 0.5 
472 1 1 3.45623 4.34342 4.32025 19 0 0 -89.4298 27.284 7.60889 1799.93 -1714.93 2171.8 0 0 0 0.5 
185 1 1 0.281361 4.66365 4.6654 13 0 0 -24.0853 -11.7188 6.88027 -183.806 -1467.54 -1617.57 0 0 0 0.5 
145 1 1 4.10416 0.773672 5.87801 91 1 0 -423.069 0.563952 1.16088 -265.947 1705.7 969.501 0 0 0 0.5 
186 1 1 3.46931 0.518224 4.1706 63 1 0 -433.613 -16.9541 -13.6127 447.952 -1301.22 -200.106 0 0 0 0.5 
509 2 2 2.46531 1.34074 4.97631 -55 0 0 -397.361 9.78022 22.3783 5042.62 79.2196 658.922 0 0 0 0.5 
326 1 1 4.2113 2.72314 5.50662 -14 0 0 -243.793 8.80772 1.06746 -789.599 -452.591 -1248.9 0 0 0 0.5 
773 2 2 2.94919 1.76565 4.12336 -38 0 0 -315.956 -20.3006 4.91204 -23.5282 518.873 491.806 0 0 0 0.5 
211 1 1 3.32993 0.0165785 5.22905 66 1 0 -510.084 -15.792 -36.0603 398.318 -2164.83 -452.414 0 0 0 0.5 
932 2 2 3.0871 2.11375 5.0691 -29 0 0 -287.383 -6.38367 -1.36114 -74.2255 -2693.49 -1314.32 0 0 0 0.5 
624 2 2 2.247 4.88951 4.16843 24 0 -1 -19.3485 -7.98504 27.7809 1191.11 1853.64 163.575 0 0 0 0.5 
687 2 2 2.49818 1.78261 5.87966 80 1 0 -342.128 4.99703 2.55709 130.675 -1467.81 -623.039 0 0 0 0.5 
936 2 2 3.26902 4.248 5.35824 5 0 0 -71.5284 -5.04678 -2.19554 1024.19 -3562.85 -212.29 0 0 0 0.5 
879 2 2 4.44144 0.252474 5.57913 105 1 1 -509.453 -11.9274 16.4799 1678.18 -3614.28 -446.904 0 0 0 0.5 
975 2 2 3.01323 0.722487 5.29788 105 1 1 -435.441 11.0605 -1.82263 2048.11 -25.4577 1422.37 0 0 0 0.5 
245 1 1 4.88931 3.59165 5.50964 -36 0 0 -150.972 24.5061 4.83367 1643.03 2282.99 11.7542 0 0 0 0.5 
708 2 2 1.55467 1.09166 6.37344 -80 0 0 -415.961 16.5267 8.50755 483.114 -913.6 441.513 0 0 0 0.5 
534 2 2 2.42669 4.07583 7.05068 33 0 0 -17.8685 -8.69356 -23.9896 -2565.12 2442.5 502.267 0 0 0 0.5 
278 1 1 2.62965 0.0233382 6.47041 117 1 -1 -452.227 -14.8859 -18.1765 -131.28 531.826 -2210.49 0 0 0 0.5 
418 1 1 2.35553 0.619423 7.66568 -64 0 0 -396.493 -40.4185 8.06892 -213.607 -11.7695 558.709 0 0 0 0.5 
383 1 1 4.52101 2.32316 6.64138 -36 0 0 -271.961 -3.9779 1.05971 -764.009 -173.853 1634.94 0 0 0 0.5 
205 1 1 0.505297 0.783962 7.57321 -101 0 -1 -412.745 10.9281 -20.2622 -164.728 -2112.53 -822.304 0 0 0 0.5 
972 2 2 1.32542 3.75118 7.99258 26 0 -1 -75.6124 -19.4872 -23.1495 -30.8087 -2325.58 -1869.01 0 0 0 0.5 
722 2 2 3.84923 2.72029 6.5009 -78 0 0 -247.974 30.0654 -9.94447 2187.89 337.467 -2770.26 0 0 0 0.5 
169 1 1 1.46208 2.52613 7.12827 107 1 0 -191.996 -15.9005 19.5469 1322.6 766.673 -2888.16 0 0 0 0.5 
355 1 1 0.715508 0.937783 6.38485 71 1 0 -428.038 7.55618 -11.4107 -298.702 1120.74 -340.014 0 0 0 0.5 
80 1 1 3.04725 2.39089 6.45604 -18 0 0 -250.183 -5.23078 -10.9255 821.142 -238.437 2869.06 0 0 0 0.5 
829 2 2 2.34119 2.0501 7.10298 -14 0 0 -266.05 20.4719 5.85919 -401.773 99.9452 3726.54 0 0 0 0.5 
602 2 2 2.96313 1.50693 6.67845 89 1 0 -345.053 -19.8123 -12.9947 -1362.18 630.105 2295.7 0 0 0 0.5 
502 2 2 2.12498 0.610174 6.68431 -88 0 0 -433.143 -21.1403 1.813 -708.644 260.394 1492.52 0 0 0 0.5 
781 2 2 2.17919 1.26597 7.20708 85 1 0 -350.299 0.619131 -6.79361 384.352 583.31 -99.0766 0 0 0 0.5 
861 2 2 1.33943 2.00425 7.88793 -11 0 0 -332.005 26.6767 -12.2723 -596.238 -1024.13 1969.46 0 0 0 0.5 
189 1 1 1.41372 1.941 6.05529 94 1 0 -318.417 9.8137 19.549 -329.756 1987.13 -744.364 0 0 0 0.5 
902 2 2 3.4813 2.44048 7.84362 116 1 0 -200.761 -9.89655 0.670049 989.583 716.072 1681.2 0 0 0 0.5 
944 2 2 0.605385 1.77087 6.76995 -65 0 0 -342.872 21.5933 22.3431 4026.4 -857.776 824.281 0 0 0 0.5 
141 1 1 0.822054 2.88488 7.72971 -10 0 0 -160.499 -7.74613 18.862 -649.663 -615.135 -1128.93 0 0 0 0.5 
207 1 1 1.31486 1.21215 7.26896 102 1 1 -368.268 2.18004 7.38637 -1512.18 -255.414 1716.86 0 0 0 0.5 
719 2 2 0.706478 0.0243501 7.73212 101 1 0 -456.231 -35.4462 -10.5535 -1412.23 987.276 1222.45 0 0 0 0.5 
613 2 2 2.65589 2.6546 7.81612 -26 0 0 -173.347 -4.92161 27.0353 -2620.43 83.399 -1863.3 0 0 0 0.5 
671 2 2 2.44368 3.54612 6.31676 0 0 0 -83.7893 -17.8 -18.7399 -1251.68 -1542.94 -1763.14 0 0 0 0.5 
120 1 1 0.839529 0.231974 6.84872 -90 0 -1 -477.943 -12.8666 -21.5108 -772.021 -470.479 -458.025 0 0 0 0.5 
478 1 1 2.23873 2.65544 6.51126 7 0 0 -212.567 4.12473 13.4037 -3275.52 2998.46 -1706.84 0 0 0 0.5 
501 2 2 4.7805 2.71417 7.39456 59 1 0 -202.673 1.6387 -6.41843 817.57 -609.732 -1031.2 0 0 0 0.5 
572 2 2 0.135804 1.42535 7.92185 -45 0 0 -332.271 28.1678 6.94396 1549.09 1915.99 215.758 0 0 0 0.5 
375 1 1 3.57389 1.19342 6.14659 75 1 -1 -407.487 -10.3849 2.57268 825.547 -181.729 -278.309 0 0 0 0.5 
89 1 1 4.7404 1.31085 7.5692 -47 0 0 -301.676 -32.2316 -28.2851 87.4169 -274.02 -152.167 0 0 0 0.5 
3 1 1 2.38897 4.85212 6.5724 45 0 0 33.0752 1.06059 -5.8903 -1946.77 1300.62 -2194.18 0 0 0 0.5 
148 1 1 4.23847 3.40375 7.12414 -14 0 0 -150.021 2.80999 -20.1783 -402.511 -1276.02 1213.42 0 0 0 0.5 
97 1 1 3.15654 4.3499 6.70374 4 0 0 -35.1163 2.88321 -18.3572 -489.907 3021.1 -2475.22 0 0 0 0.5 
894 2 2 2.89818 4.86293 7.47183 9 0 0 4.49973 1.68074 -15.0219 1634.49 -1724.72 1593.07 0 0 0 0.5 
486 1 1 3.22708 0.432125 7.76347 89 1 0 -377.006 -18.6384 4.38927 199.322 1339.16 1476.91 0 0 0 0.5 
488 1 1 4.32647 2.99888 7.81097 -77 0 1 -184.539 -0.311662 41.0349 1596.36 1084.97 -2916.48 0 0 0 0.5 
924 2 2 3.56657 3.25836 7.89745 -37 0 0 -157.155 5.58908 -7.06395 -2455.08 750.075 803.919 0 0 0 0.5 
547 2 2 1.62774 4.19688 7.13637 67 0 0 -4.61636 -18.914 -8.83699 -2507.55 379.908 268.942 0 0 0 0.5 
439 1 1 3.24004 2.89012 7.08629 -19 0 0 -161.369 -0.777821 4.504 -3040.08 -1456.06 1015.7 0 0 0 0.5 
816 2 2 3.81262 3.91601 7.23908 -5 0 0 -146.155 43.8013 31.3224 2200.1 -686.068 2903.69 0 0 0 0.5 
171 1 1 4.47608 2.06959 7.97028 -5 0 -1 -238.729 -7.76545 -3.44187 24.6687 -670.852 262.397 0 0 0 0.5 
652 2 2 2.90708 3.4399 7.11424 7 0 0 -98.7129 -2.90523 3.85033 244.528 521.729 389.639 0 0 0 0.5 
350 1 1 0.351318 3.06792 6.36518 62 1 0 -188.046 30.1442 -8.90309 301.284 1362.9 974.933 0 0 0 0.5 
311 1 1 3.62221 3.87849 6.56339 -9 0 0 -95.9239 -20.8826 -26.9249 -60.9616 -1253.88 -1057.09 0 0 0 0.5 
299 1 1 0.715657 4.69416 6.04606 -16 0 0 -0.562878 -8.36345 10.4917 -37.7049 10.0954 -14.8397 0 0 0 0.5 
824 2 2 2.71465 3.9973 7.80242 11 0 0 -80.376 1.64523 16.3074 -1266.78 1444.92 -570.262 0 0 0 0.5 
69 1 1 3.75655 2.08268 7.29547 -44 0 0 -246.779 -3.85051 -20.6728 2455.29 -1450.15 -116.514 0 0 0 0.5 
220 1 1 3.87118 4.58313 6.10696 156 1 0 -14.7989 -4.88203 -13.1351 -736.935 180.128 1169.84 0 0 0 0.5 
992 2 2 3.965 1.4421 6.97493 -101 0 0 -325.282 -33.5642 -2.71141 485.138 -2560.98 -1805.57 0 0 0 0.5 
876 2 2 1.43525 2.84474 8.74545 -26 0 0 -174.821 26.668 13.9002 3807.77 -3610.84 900.048 0 0 0 0.5 
343 1 1 2.17626 3.48555 8.36693 -16 0 0 -89.5394 -19.6173 -9.51994 -1655.06 3420.51 -3250.9 0 0 0 0.5 
590 2 2 2.61204 4.83116 8.36514 6 0 -1 10.0002 -5.58422 1.02029 1110.94 -1388.94 0.577986 0 0 0 0.5 
594 2 2 2.2287 0.017802 9.38321 -61 0 0 -448.965 -26.7685 6.61574 -2268.1 2498.73 1694.23 0 0 0 0.5 
241 1 1 1.94449 3.54866 9.66306 163 1 0 -129.834 -1.7376 40.4544 -24.0678 968.281 777.638 0 0 0 0.5 
314 1 1 2.41371 1.90122 9.93019 -50 0 0 -295.066 8.19848 -0.0204264 -122.11 374.405 426.456 0 0 0 0.5 
908 2 2 0.456907 1.94271 9.38502 -51 0 0 -294.112 -1.00923 -13.0254 -801.643 -711.877 365.002 0 0 0 0.5 
257 1 1 1.11431 2.11571 8.77152 -24 0 0 -281.918 15.0062 20.6545 1288.95 2343.51 -1162.24 0 0 0 0.5 
881 2 2 3.51932 4.8494 8.20688 -8 0 -1 4.37444 19.9384 0.20318 1718.76 1517.55 169.484 0 0 0 0.5 
264 1 1 1.82362 4.00263 9.02224 -11 0 -1 -68.2467 -7.92911 3.36545 958.842 -60.3118 -437.344 0 0 0 0.5 
702 2 2 0.85792 0.10404 9.30744 102 1 0 -434.687 -9.44618 17.2877 1220.85 2734.39 -40.0817 0 0 0 0.5 
226 1 1 2.44295 0.911272 9.66789 -60 0 0 -354.53 -8.403 19.8426 -2762.21 -775.575 -1544.76 0 0 0 0.5 
559 2 2 1.85997 1.39362 8.11353 -86 0 0 -331.994 -2.89149 -3.06834 346.489 -133.042 151.718 0 0 0 0.5 
61 1 1 2.22231 1.5372 9.09363 -90 0 0 -327.623 19.1736 3.07403 -196.086 -77.3715 -431.154 0 0 0 0.5 
823 2 2 1.17079 1.34451 8.79705 132 1 -1 -324.723 -6.82027 -0.90878 -673.135 -1980.73 -366.994 0 0 0 0.5 
372 1 1 2.40083 0.880639 8.5561 -67 0 0 -344.733 -30.2324 25.7786 192.858 682.792 -476.513 0 0 0 0.5 
903 2 2 2.5754 3.14916 9.68357 -24 0 -1 -140.031 -2.87003 34.9479 2419.27 -1990.08 -908.946 0 0 0 0.5 
536 2 2 3.69007 1.10671 8.29925 -102 0 -1 -366.956 1.43837 -23.3213 -446.89 -1053.88 763.134 0 0 0 0.5 
956 2 2 3.92747 1.7557 9.78174 -56 0 0 -272.577 10.9492 5.44606 196.667 -245.533 676.852 0 0 0 0.5 
721 2 2 0.802927 0.538898 8.54233 106 1 0 -403.878 -6.10986 -9.09589 203.573 394.158 -449.187 0 0 0 0.5 
233 1 1 1.26635 0.955068 9.59186 -46 0 0 -337.577 -6.62751 13.1062 -1155.64 -2843.3 850.924 0 0 0 0.5 
236 1 1 3.29415 1.74462 9.13089 -70 0 0 -289.328 -15.1939 17.5614 393.903 -758.97 -634.02 0 0 0 0.5 
281 1 1 3.02148 2.37336 9.14951 17 0 -1 -247.932 23.7641 19.5946 570.877 699.319 732.51 0 0 0 0.5 
138 1 1 4.09926 2.69542 9.70652 -32 0 0 -184.796 0.00805394 5.66054 -268.148 458.915 -225.66 0 0 0 0.5 
616 2 2 1.02255 3.53145 9.69507 -19 0 0 -101.289 -28.2706 3.12576 -771.933 -1747.05 402.509 0 0 0 0.5 
592 2 2 2.50211 2.8346 8.90315 -15 0 -1 -246.203 23.0765 -19.4051 789.861 -2570.39 3802.58 0 0 0 0.5 
139 1 1 0.673962 3.37095 8.5848 -27 0 0 -94.0307 -17.1976 -16.2998 -4202.29 3876.69 525.217 0 0 0 0.5 
586 2 2 0.0312018 2.85114 9.25252 120 1 0 -177.608 5.18942 1.70538 783.012 83.2164 16.637 0 0 0 0.5 
384 1 1 0.642685 3.96569 9.35919 -33 0 0 -71.9435 -16.5276 -23.7301 -1191.94 -31.5771 -780.822 0 0 0 0.5 
438 1 1 1.75586 4.69705 8.51286 26 0 -1 -6.51188 28.7422 -17.1791 1627.56 -1403.61 3084.64 0 0 0 0.5 
66 1 1 3.72405 2.07586 8.40078 -16 0 0 -239.699 -19.8729 22.7421 -1640.48 875.242 910.394 0 0 0 0.5 
118 1 1 3.5735 0.148798 9.19452 100 1 0 -509.893 36.4506 -17.0754 3091.12 -3153.69 -267.384 0 0 0 0.5 
369 1 1 3.37533 3.96505 8.23305 -31 0 0 -89.6548 21.4075 18.346 -1878.58 2978.94 391.17 0 0 0 0.5 
912 2 2 1.12243 4.31587 8.43952 20 0 -1 -16.4878 -14.5209 -21.1305 101.666 781.992 -790.199 0 0 0 0.5 
180 1 1 4.61891 4.5391 9.95329 23 0 0 -20.8252 -4.80456 6.43336 -754.516 26.293 -1243.81 0 0 0 0.5 
14 1 1 0.591216 4.60672 8.71588 12 0 0 4.11458 -5.95523 -7.7455 -917.516 192.519 35.9002 0 0 0 0.5 
830 2 2 1.68824 4.75637 9.4595 115 1 -1 -12.9759 11.446 -10.3074 2329.05 -744.103 303.181 0 0 0 0.5 
51 1 1 0.391237 4.66914 9.64578 4 0 0 -20.1528 3.02907 -6.97196 -711.737 440.21 -1098.4 0 0 0 0.5 
374 1 1 3.57764 3.68702 9.08826 -15 0 0 -139.333 7.01312 35.6788 592.698 -834.435 1517.21 0 0 0 0.5 
225 1 1 4.42275 1.85872 8.89071 -39 0 0 -283.297 -21.2761 20.9279 1813.14 -16.4195 85.6209 0 0 0 0.5 
674 2 2 4.35329 2.73536 8.77236 -17 0 -1 -232.128 12.0139 -1.23163 786.775 -2051.88 2716.09 0 0 0 0.5 
492 1 1 3.25777 0.911161 9.1437 -101 0 0 -354.628 -20.5368 5.62543 -2643.19 6107.39 -1247.97 0 0 0 0.5 
935 2 2 4.16923 3.52266 8.5358 -28 0 0 -159.726 44.6012 8.4444 4351.38 -840.141 528.245 0 0 0 0.5 
403 1 1 3.96349 4.8405 9.17067 -1 0 -1 25.3039 -8.15505 4.02396 244.296 -248.816 -230.996 0 0 0 0.5 
86 1 1 2.90484 4.08233 9.11263 -19 0 1 -135.998 12.8803 12.8178 -1931.02 1134.59 69.9328 0 0 0 0.5 
131 1 1 2.80491 7.47648 0.508403 46 0 0 241.026 25.5863 7.88043 -2163.95 -479.026 1176.36 0 0 0 0.5 
312 1 1 2.51391 5.59627 1.00696 -10 0 1 33.6705 -6.47741 -1.60786 -758.833 1245.65 -1785.51 0 0 0 0.5 
736 2 2 4.8075 7.73929 0.851718 -147 -1 2 315.574 -20.0886 6.61116 -1185.08 3004.16 82.1137 0 0 0 0.5 
911 2 2 0.994974 9.36273 1.63483 -116 -1 -1 435.369 2.35697 -23.483 -358.24 2994.87 -1710.39 0 0 0 0.5 
764 2 2 3.28328 5.3311 1.7172 -45 0 1 56.1193 4.87413 -23.9161 -195.497 -542.586 657.894 0 0 0 0.5 
351 1 1 2.84679 5.0154 0.557304 -19 0 1 11.1278 -25.4427 20.5619 218.09 -1473.41 -392.607 0 0 0 0.5 
639 2 2 4.26817 7.38129 1.79031 37 0 1 262.891 -14.4197 -25.5598 -1218.37 -3207.17 1072.02 0 0 0 0.5 
310 1 1 4.49654 7.73344 0.0609598 -1 0 1 310.208 6.4904 7.85856 -1417.11 3027.48 -1296.4 0 0 0 0.5 
135 1 1 3.91444 7.07699 0.993003 -9 0 0 219.56 9.38529 6.72906 919.31 -1530.17 -2468.7 0 0 0 0.5 
885 2 2 3.40412 7.1241 1.58242 18 0 0 208.053 -2.56028 21.2818 1780.19 2070.8 -1560.12 0 0 0 0.5 
777 2 2 3.57309 9.37039 0.128363 -87 -1 0 449.916 5.52202 -2.55504 -1797.1 -130.823 -445.059 0 0 0 0.5 
218 1 1 2.88557 6.18439 0.298999 24 0 0 139.126 -8.79786 -27.2631 -298.894 -3676.16 1155.7 0 0 0 0.5 
107 1 1 0.476215 8.52949 0.188043 -109 -1 1 353.859 -7.8463 4.97862 4072.06 -3080.53 -2715.9 0 0 0 0.5 
92 1 1 3.51651 7.0769 0.208714 12 0 1 198.75 7.7691 -8.32259 1445.52 358.119 -2301.47 0 0 0 0.5 
571 2 2 3.4547 7.9233 1.10944 17 0 1 282.785 5.83416 -9.23538 -100.955 -993.438 1037 0 0 0 0.5 
176 1 1 3.03997 8.66261 0.8915 35 0 1 347.655 16.2985 -4.72105 -524.991 1885.33 -908.095 0 0 0 0.5 
266 1 1 2.98111 9.6848 0.608435 -90 -1 0 485.83 1.49774 10.7107 -1780.2 61.9023 3188.27 0 0 0 0.5 
398 1 1 -0.0146867 9.45178 1.64519 43 0 0 472.047 -1.84884 -7.09398 1763.22 444.387 1163.43 0 0 0 0.5 
986 2 2 3.42937 6.24515 1.45122 43 0 1 159.782 -5.10652 -15.3575 -1449.84 -357.584 -1919.32 0 0 0 0.5 
946 2 2 0.187931 9.01265 0.922958 33 0 0 413.147 -17.2524 18.0273 1733.79 -1411.23 1172.09 0 0 0 0.5 
52 1 1 2.00126 7.38119 0.128703 134 0 1 242.717 1.03147 -13.4816 -2233.73 3326.2 -1762.62 0 0 0 0.5 
337 1 1 2.50557 8.35364 0.0398996 90 0 0 360.373 -16.4148 28.7729 -794.425 540.144 278.623 0 0 0 0.5 
448 1 1 0.569813 5.82552 1.7216 -4 0 1 77.1413 12.685 2.22674 13.0052 424.546 -1025.01 0 0 0 0.5 
614 2 2 1.46531 8.74576 0.589439 50 0 1 375.099 5.18749 -5.56101 18.5585 311.85 417.967 0 0 0 0.5 
990 2 2 1.32514 5.7652 0.066693 3 0 0 78.3517 21.2391 -16.2383 591.576 -285.161 -1266.96 0 0 0 0.5 
872 2 2 0.458829 5.68285 0.241342 -4 0 0 72.2582 31.4945 -11.9439 498.623 2093.61 -1095.96 0 0 0 0.5 
683 2 2 1.69362 6.82836 1.12636 14 0 0 220.636 -7.51119 -0.720976 -2345.58 721.846 2366.68 0 0 0 0.5 
409 1 1 2.43542 5.14445 1.85318 185 1 1 38.0175 -29.741 -2.65216 254.512 3680.9 928.058 0 0 0 0.5 
197 1 1 1.43462 7.30452 1.89122 48 0 0 254.096 -5.26836 0.423306 -154.514 463.13 769.579 0 0 0 0.5 
928 2 2 3.89513 6.40523 0.442936 -7 0 0 145.524 -12.1956 15.0599 -491.207 -859.487 501.031 0 0 0 0.5 
48 1 1 1.70701 7.82763 1.04377 47 0 0 283.419 8.06255 3.65647 -560.282 -93.8805 -249.786 0 0 0 0.5 
520 2 2 2.4429 6.88176 1.69223 51 0 0 220.992 19.1811 1.09394 -535.328 1012.41 -39.6446 0 0 0 0.5 
716 2 2 1.59036 5.41268 0.680141 -43 0 0 14.0119 19.0035 0.313673 1216.73 766.752 1063.23 0 0 0 0.5 
305 1 1 0.343196 6.87455 1.19457 53 0 0 193.426 -2.0091 22.2536 93.6029 238.683 574.935 0 0 0 0.5 
976 2 2 2.59779 6.25724 1.31338 50 0 0 156.875 -4.39624 -19.225 -748.658 767.816 -666.4 0 0 0 0.5 
570 2 2 4.56353 5.91287 0.418812 -122 -1 1 144.769 -19.6712 9.79596 1636 -1326.51 -649.178 0 0 0 0.5 
99 1 1 0.813781 7.67796 0.645547 -65 -1 0 265.675 -2.00325 13.0134 520.872 46.7175 89.3793 0 0 0 0.5 
392 1 1 4.34343 6.21443 1.21423 -17 0 0 151.968 -13.6914 7.2851 843.413 -111.326 1585.51 0 0 0 0.5 
554 2 2 0.247097 6.7182 0.31479 -71 -1 0 172.401 7.37732 12.7463 932.052 1402.08 -1639.69 0 0 0 0.5 
562 2 2 0.557918 7.68929 1.64117 94 0 1 268.809 6.96257 -4.37255 -720.109 -255.515 231.285 0 0 0 0.5 
328 1 1 2.19245 8.92522 1.27727 24 0 0 359.298 0.635711 11.8221 -493.324 227.042 159.488 0 0 0 0.5 
90 1 1 1.34092 8.58259 1.60861 25 0 0 361.712 -17.2016 2.03458 732.463 -1988.39 101.588 0 0 0 0.5 