ITEM: TIMESTEP
1500
ITEM: NUMBER OF ATOMS
1000
ITEM: BOX BOUNDS xy xz yz pp pp pp
0 10 0
0 10 0
-0 10 0
ITEM: ATOMS id type type x y z ix iy iz vx vy vz fx fy fz omegax omegay omegaz radius 
747 2 2 3.72978 0.633969 1.63132 -4 0 1 -286.488 3.95744 43.0715 -11403.2 9679.48 -3511.69 0 0 0 0.5 
759 2 2 1.96128 2.19986 0.532056 0 0 0 -46.2089 7.30484 5.39523 -888.618 832.195 321.424 0 0 0 0.5 
514 2 2 2.41295 2.70286 1.29046 0 0 0 -24.125 -5.76983 7.69172 1.18902 -811.459 816.818 0 0 0 0.5 
257 1 1 3.52344 3.05116 1.82214 0 0 0 -14.3186 -7.77587 1.03175 261.583 -780.921 110.269 0 0 0 0.5 
387 1 1 1.04808 1.28014 0.699118 0 0 0 -105.725 -30.6282 9.92937 -226.914 -300.776 428.261 0 0 0 0.5 
667 2 2 3.10509 1.54248 1.19158 -1 0 0 -60.2129 -9.08821 -23.2813 -1882.73 4831.76 4421.93 0 0 0 0.5 
1000 2 2 2.24515 3.14551 0.540809 0 0 0 -6.87548 -3.16328 -10.4993 637.798 -520.308 567.035 0 0 0 0.5 
910 2 2 2.41462 1.84661 1.74758 0 0 0 -51.5028 -25.6966 1.2342 421.009 -302.839 -491.483 0 0 0 0.5 
244 1 1 1.91488 0.0661042 1.28572 -3 0 0 -443.465 1.51995 -6.50219 530.995 274.47 -5752 0 0 0 0.5 
5 1 1 2.1689 3.93489 1.04216 0 0 0 -3.02766 -1.5405 2.61145 -111.307 -326.472 -336.447 0 0 0 0.5 
798 2 2 0.128832 0.781092 1.67544 -1 0 0 -168.442 -20.9683 8.43464 2544.82 -134.116 -3147.02 0 0 0 0.5 
14 1 1 2.3564 3.489 1.8348 0 0 0 -10.4249 -1.85832 4.30578 75.1715 -0.562248 159.269 0 0 0 0.5 
642 2 2 1.37743 0.0670854 0.703258 -3 0 1 -421.187 -4.30494 -20.5842 5155.66 5558.91 -3666.51 0 0 0 0.5 
4 1 1 1.79398 0.74567 1.76518 -1 0 0 -188.152 -3.99659 -10.8304 1690.9 1001.48 388.017 0 0 0 0.5 
256 1 1 0.970732 2.06947 0.704252 0 0 0 -39.7032 12.0936 2.58173 950.689 -1383.03 285.09 0 0 0 0.5 
99 1 1 2.5016 4.81017 0.813397 0 0 0 -1.59168 2.29618 4.64275 33.2461 -13.039 16.9309 0 0 0 0.5 
529 2 2 1.4574 2.67875 1.26053 0 0 0 -19.6749 -5.35373 2.2169 -369.588 253.778 243.175 0 0 0 0.5 
770 2 2 3.19094 2.4285 0.764544 0 0 0 -47.2084 -3.07957 -5.14533 -1257.17 -189.889 -1091.25 0 0 0 0.5 
755 2 2 3.92186 2.26696 1.13993 0 0 0 -64.2297 22.3907 13.3514 143.024 730.329 208.473 0 0 0 0.5 
262 1 1 2.55955 1.54106 0.39371 0 0 0 -75.209 -9.33852 0.0723963 -1483.08 -3683.87 7.11413 0 0 0 0.5 
371 1 1 4.87479 4.12225 1.42904 0 0 0 -4.96111 5.5339 2.68674 -145.374 -129.949 198.153 0 0 0 0.5 
378 1 1 3.19437 3.13957 0.179506 0 0 1 -5.50575 0.802279 -2.66162 -1161.18 872.347 105.726 0 0 0 0.5 
629 2 2 3.07015 3.40813 1.13353 0 0 0 -19.3239 -10.7306 -1.00313 -451.837 -421.456 85.6408 0 0 0 0.5 
895 2 2 2.01467 0.788278 0.633847 -3 0 0 -220.029 0.274 -21.274 -2844.12 -3682.79 671.735 0 0 0 0.5 
96 1 1 1.86611 3.74487 0.0286749 0 0 1 -12.9275 5.49419 1.10691 -138.166 180.949 -242.87 0 0 0 0.5 
248 1 1 0.919832 0.311269 1.93046 -1 0 1 -184.346 -39.1112 5.71274 1014.28 -37.8192 -862.194 0 0 0 0.5 
264 1 1 3.91257 4.1852 1.24565 0 0 0 -4.34832 2.73284 -0.302474 -108.803 97.3742 -13.1102 0 0 0 0.5 
620 2 2 1.54477 4.58851 0.923932 0 0 0 -1.38572 0.760049 -2.08772 56.4091 84.3368 19.2692 0 0 0 0.5 
120 1 1 0.132487 2.2577 0.797391 0 0 0 -46.3364 2.73572 -16.5977 -740.885 166.092 -1185.85 0 0 0 0.5 
575 2 2 3.69142 0.191426 0.861935 6 1 0 -415.158 -38.2295 -1.36172 -9312.68 6858.62 1077.8 0 0 0 0.5 
626 2 2 0.626536 4.21712 0.797538 0 0 0 -3.44513 0.392069 -1.04087 87.6721 272.61 34.7943 0 0 0 0.5 
103 1 1 2.98371 4.04663 0.531129 0 0 0 -5.67049 -1.89358 5.42433 294.598 148.938 -45.9608 0 0 0 0.5 
622 2 2 1.05074 4.79743 0.127409 0 0 0 -1.74584 -1.27904 -2.15538 -82.4721 134.373 21.1738 0 0 0 0.5 
138 1 1 0.0878889 3.19967 0.194643 0 0 1 -15.6441 -0.24964 1.4022 -37.6097 -221.435 -33.2001 0 0 0 0.5 
411 1 1 4.86139 2.30642 1.96689 0 0 0 -46.7546 -6.0585 3.9373 382.59 410.94 817.066 0 0 0 0.5 
135 1 1 0.517225 3.96323 1.73751 0 0 0 -3.2412 4.89611 -2.01816 35.0896 133.893 -22.7558 0 0 0 0.5 
157 1 1 1.158 4.76069 1.80227 0 0 0 -5.20619 -0.165293 -2.79967 -210.661 36.0364 -11.3666 0 0 0 0.5 
1 1 1 4.36411 0.0264029 1.71644 -11 0 0 -653.614 18.3297 31.197 11103.2 -11360.7 -218.699 0 0 0 0.5 
761 2 2 0.190376 1.68249 1.45425 0 0 0 -84.5075 -10.4685 -24.4665 -236.13 -1072.25 -519.683 0 0 0 0.5 
100 1 1 3.61601 4.80222 0.541739 0 0 0 -6.22209 -0.194582 -1.34959 341.909 114.476 -68.7524 0 0 0 0.5 
382 1 1 4.69513 3.42334 0.0870645 0 0 0 -8.59268 -1.25679 -2.09858 -78.922 69.2258 -682.061 0 0 0 0.5 
106 1 1 0.21548 2.5948 1.78791 0 0 0 -22.6572 -6.32872 1.46357 274.071 -675.746 -397.648 0 0 0 0.5 
91 1 1 2.14483 4.76895 1.69587 0 0 0 -5.66855 -2.63271 3.15116 -147.923 -53.1874 4.94448 0 0 0 0.5 
616 2 2 2.97005 4.28955 1.50243 0 0 0 -4.68047 -4.89154 2.0155 128.522 -35.3562 53.7116 0 0 0 0.5 
868 2 2 0.967179 2.81461 0.173293 0 0 1 -16.4792 3.16152 1.22666 64.0422 480.571 -66.8875 0 0 0 0.5 
624 2 2 4.47776 4.98074 1.54629 0 0 0 -7.42986 6.46192 -0.149341 119.185 12.4695 203.063 0 0 0 0.5 
284 1 1 3.55898 0.218279 0.0815194 -4 0 0 -340.444 -35.6615 -40.5138 -229.177 1743.64 691.759 0 0 0 0.5 
734 2 2 3.90346 3.87985 0.333329 0 0 0 -6.70048 2.06154 0.568458 196.356 42.2019 41.8763 0 0 0 0.5 
492 1 1 3.4746 0.843245 0.667916 -1 0 1 -265.363 25.5022 6.86941 2258.15 -4746.7 -6022.74 0 0 0 0.5 
94 1 1 1.41836 3.62719 1.61203 0 0 0 -7.36202 -3.659 -9.28928 -162.603 -139.324 38.5128 0 0 0 0.5 
18 1 1 0.663583 3.2402 1.04778 0 0 0 -18.5305 -4.66169 3.09887 -65.9045 46.6126 -17.663 0 0 0 0.5 
275 1 1 3.60928 2.12916 1.95593 0 0 0 -43.8148 -24.2566 -4.56487 -840.067 -176.444 1500.64 0 0 0 0.5 
758 2 2 4.04362 2.65533 0.113958 0 0 0 -31.7235 16.873 -7.43325 1040.58 -413.485 410.74 0 0 0 0.5 
376 1 1 4.00299 3.20402 0.962916 0 0 0 -18.0499 -3.02329 -6.46171 107.027 654.911 80.6231 0 0 0 0.5 
786 2 2 4.2421 1.89194 0.431947 0 0 1 -96.4423 18.1906 2.84846 -831.177 -1245.58 -521.94 0 0 0 0.5 
13 1 1 4.54317 1.76181 1.26218 0 0 0 -83.6186 15.0579 14.3315 872.05 -803.346 -1674.59 0 0 0 0.5 
279 1 1 4.4796 1.18962 0.587353 10 1 0 -187.04 -22.271 16.1014 1519.76 423.118 1535.17 0 0 0 0.5 
854 2 2 4.48695 3.11608 1.75156 0 0 0 -16.513 18.0885 0.426629 1027.81 -873.668 -611.2 0 0 0 0.5 
20 1 1 4.40333 0.311254 0.912297 -4 0 0 -457.444 20.3146 -6.93544 3455.07 -4609.59 2320.73 0 0 0 0.5 
266 1 1 4.78935 1.22476 1.67356 -1 0 0 -147.894 -14.5641 35.4445 -6697.11 1540.57 -514.43 0 0 0 0.5 
364 1 1 4.6013 4.89001 0.584987 0 0 0 -6.23097 3.20638 1.09185 -17.1558 -190.781 291.521 0 0 0 0.5 
780 2 2 0.599745 0.38483 2.96482 -4 0 0 -228.478 -52.8489 18.7598 1934.87 -2363.72 1274.59 0 0 0 0.5 
682 2 2 2.40778 4.21741 2.45458 0 0 0 -8.59374 -2.79489 3.49578 -136.443 98.4824 208.74 0 0 0 0.5 
517 2 2 2.74386 2.90015 2.42823 0 0 0 -12.9179 -6.64237 5.13236 368.36 -453.236 239.402 0 0 0 0.5 
147 1 1 1.11863 1.18684 2.22803 0 0 0 -114.845 -27.863 -4.02133 -1916.11 -30.7632 2329.07 0 0 0 0.5 
675 2 2 2.46174 4.74481 3.25315 0 0 0 -3.73091 -4.70294 4.33667 -128.08 -70.2603 309.051 0 0 0 0.5 
502 2 2 0.791016 1.90319 2.99711 0 0 0 -73.2121 2.58747 3.1356 -3377.01 -977.651 696.599 0 0 0 0.5 
591 2 2 3.61038 1.90742 3.99407 -1 0 0 -69.0752 -8.6501 5.71572 65.4501 612.584 432.091 0 0 0 0.5 
8 1 1 1.9109 2.42313 2.10673 0 0 0 -25.5504 0.712278 7.7619 250.426 276.413 -72.9061 0 0 0 0.5 
647 2 2 2.07505 2.81304 3.81193 0 0 0 -20.4022 -3.53179 6.34619 -8.26251 -395.093 147.685 0 0 0 0.5 
777 2 2 2.65539 2.01001 2.71542 0 0 0 -48.8998 -15.0163 4.5544 -170.446 143.515 -284.723 0 0 0 0.5 
6 1 1 1.68136 3.19241 2.63374 0 0 0 -15.4634 6.44819 -3.45186 315.629 -553.526 308.41 0 0 0 0.5 
19 1 1 1.77631 2.3299 3.06875 0 0 0 -47.7389 1.25604 5.54023 -891.78 -2439.75 -224.002 0 0 0 0.5 
298 1 1 1.61911 1.9032 3.99108 0 0 0 -91.1675 0.925174 6.48209 0 0 0 0 0 0 0.5 
773 2 2 2.92767 2.70635 3.42892 0 0 0 -22.325 -8.45009 1.96937 142.138 -348.645 -104.664 0 0 0 0.5 
806 2 2 2.38748 0.453795 3.36794 -7 0 0 -438.167 27.8531 -4.32416 -9623.05 6741.51 2300.83 0 0 0 0.5 
899 2 2 0.713974 1.71834 2.03631 0 0 0 -101.662 15.0066 -1.79216 208.467 1482.68 944.823 0 0 0 0.5 
369 1 1 3.86313 2.66972 3.37926 0 0 0 -19.4167 -11.4945 0.447553 349.615 -442.966 182.285 0 0 0 0.5 
510 2 2 2.66988 3.52735 3.15881 0 0 0 -6.34522 8.45393 -3.17989 332.399 -451.037 -137.176 0 0 0 0.5 
540 2 2 1.37238 1.43153 3.02344 -4 0 0 -129.888 -15.5591 25.9858 4214.16 -487.601 175.625 0 0 0 0.5 
39 1 1 0.45981 1.22814 3.53973 -2 0 0 -179.934 -9.06724 23.25 1747.56 -840.387 -3486.41 0 0 0 0.5 
641 2 2 3.24621 4.27065 3.20494 0 0 0 3.19617 -0.405636 4.23629 43.3775 257.638 6.97351 0 0 0 0.5 
402 1 1 0.206384 0.865377 2.70569 0 0 0 -148.364 -3.25208 -10.0159 374.331 2128.59 776.15 0 0 0 0.5 
680 2 2 -0.0335148 3.36597 3.14713 0 0 0 -19.0812 8.72386 -2.13375 295.126 -189.4 63.7632 0 0 0 0.5 
437 1 1 2.5546 1.79928 3.64902 0 0 0 -83.7265 -7.21152 2.43478 -40.4072 -84.4864 374.3 0 0 0 0.5 
383 1 1 4.18581 3.99045 2.13157 0 0 0 -6.71605 -5.13674 -0.788847 -437.044 1001.44 488.612 0 0 0 0.5 
151 1 1 1.87408 3.8928 3.29942 0 0 0 -15.614 -4.93628 4.90994 43.6093 -113.662 257.877 0 0 0 0.5 
366 1 1 4.10058 3.16305 2.61339 0 0 0 -17.2754 -2.65956 2.88242 -112.277 -117.808 331.404 0 0 0 0.5 
522 2 2 1.01253 2.5251 2.28827 0 0 0 -23.0948 5.25212 8.41959 -164.159 -964.307 151.83 0 0 0 0.5 
512 2 2 1.28108 3.08737 3.5448 0 0 0 -22.5239 -6.68632 -5.29433 102.559 -27.377 85.8136 0 0 0 0.5 
36 1 1 4.6891 0.540153 2.68389 -4 0 0 -387.279 -21.7772 14.6396 -9440.03 -1147.02 3072.92 0 0 0 0.5 
519 2 2 4.10361 4.03108 3.10129 0 0 0 2.63401 -2.26461 0.397079 -58.7068 -127.233 -215.112 0 0 0 0.5 
965 2 2 0.892377 3.86076 3.30662 0 0 0 -10.825 6.37407 0.487972 -127.088 -57.0743 257.486 0 0 0 0.5 
11 1 1 4.21427 4.88895 2.48245 0 0 0 -1.22643 -4.62256 1.37811 153.327 76.8381 15.5312 0 0 0 0.5 
313 1 1 3.90552 1.85295 2.83654 0 0 0 -46.2979 -16.6334 -3.37043 118.325 -37.8088 414.121 0 0 0 0.5 
251 1 1 3.93221 3.45274 3.87973 0 0 0 -1.17748 -0.804675 -0.10814 -96.55 -504.164 -335.802 0 0 0 0.5 
263 1 1 4.88846 3.61116 3.39493 0 0 0 0.257533 -0.433019 7.6654 -773.481 375.478 -397.678 0 0 0 0.5 
528 2 2 3.31367 4.68157 2.31754 0 0 0 -3.13538 -3.7861 1.89303 -20.4996 80.4992 172.13 0 0 0 0.5 
896 2 2 0.372269 4.27519 2.66308 0 0 0 -6.24628 8.13833 -3.77232 62.4604 255.991 85.487 0 0 0 0.5 
32 1 1 2.56849 0.174031 2.49006 5 1 0 -628.442 60.2545 -1.35473 1005.79 -1245.57 -2485.95 0 0 0 0.5 
919 2 2 0.563183 4.64567 3.69441 0 0 0 -6.51509 6.87336 2.66813 -12.708 122.217 197.762 0 0 0 0.5 
458 1 1 1.49922 4.71906 3.40765 0 0 0 -5.23392 2.68497 -1.77474 -136.647 -85.0865 -14.5423 0 0 0 0.5 
130 1 1 0.749303 3.38713 2.46445 0 0 0 -17.4341 6.25876 3.11971 -458.808 37.2144 136.534 0 0 0 0.5 
95 1 1 3.24315 3.7453 2.35211 0 0 0 -6.54042 -4.88413 11.2074 86.0881 -265.139 280.572 0 0 0 0.5 
225 1 1 0.526442 2.67354 3.12904 0 0 0 -30.8066 9.15803 2.33127 -356.087 601.781 225.913 0 0 0 0.5 
144 1 1 1.40727 4.13541 2.4914 0 0 0 -6.88432 -6.31657 -5.045 -124.073 794.67 -64.2438 0 0 0 0.5 
515 2 2 4.55071 1.02924 2.6066 -2 0 0 -228.519 35.2923 37.8394 -1086.16 4329.63 -1110.63 0 0 0 0.5 
405 1 1 4.92034 2.68683 3.49517 0 0 0 -28.6141 -3.83021 1.31134 -295.741 29.2408 90.0535 0 0 0 0.5 
521 2 2 4.88668 4.55994 3.12858 0 0 0 0.850282 -1.63934 2.88583 -28.5214 64.9523 114.708 0 0 0 0.5 
524 2 2 2.10732 2.63117 5.85339 0 0 0 -23.6019 -1.3799 1.19146 -338.807 72.7729 -347.551 0 0 0 0.5 
518 2 2 2.7634 2.5818 4.40891 0 0 0 -21.9501 -13.1359 4.58485 338.471 -119.251 366.482 0 0 0 0.5 
27 1 1 0.956476 1.3062 5.01039 -2 0 0 -163.555 8.22868 37.027 4004.09 -2595.93 927.405 0 0 0 0.5 
867 2 2 4.86725 0.91867 5.11955 -1 0 0 -90.5175 -31.4861 -19.205 267.303 -317.409 -238.858 0 0 0 0.5 
34 1 1 0.946226 0.154186 4.94414 5 1 0 -523.951 7.74779 -21.4488 0 0 0 0 0 0 0.5 
16 1 1 1.37667 2.24224 5.35523 0 0 0 -20.9399 -10.9773 0.462666 -714.781 76.2244 371.666 0 0 0 0.5 
490 1 1 3.24933 1.64726 5.17644 0 0 0 -37.1282 -13.7489 -6.88412 62.897 -30.8828 -94.3007 0 0 0 0.5 
805 2 2 2.22296 1.97833 5.03044 0 0 0 -36.3623 -17.1727 -4.89729 962.58 -219.119 -401.201 0 0 0 0.5 
657 2 2 4.35711 4.92669 5.74801 0 0 0 4.52709 0.490904 2.40428 122.537 -286.571 40.5398 0 0 0 0.5 
546 2 2 2.42496 3.59578 5.89199 0 0 0 -20.2928 -4.91785 1.88526 -87.5372 2.36606 -76.0773 0 0 0 0.5 
28 1 1 2.90686 3.28961 5.08201 0 0 0 -17.1411 -0.541136 -0.518265 -45.8859 -223.759 -107.608 0 0 0 0.5 
730 2 2 0.188248 1.04873 4.51964 -1 0 0 -154.11 -38.349 -2.9191 -2135.28 69.3041 1705.74 0 0 0 0.5 
937 2 2 2.10052 3.66073 4.22518 0 0 0 -5.16985 -1.89051 4.4192 84.8851 -135.366 2.54208 0 0 0 0.5 
811 2 2 2.30494 4.53946 5.9395 0 0 0 -1.14037 -0.334425 1.62495 -46.9524 -14.6623 -650.886 0 0 0 0.5 
554 2 2 3.03116 2.89202 5.99199 0 0 0 -26.2319 -9.15106 -2.02335 8.02404 95.1405 -664.655 0 0 0 0.5 
513 2 2 1.94251 2.88482 4.81686 0 0 0 -26.4423 -6.30656 -4.11125 -38.8876 -134.457 -69.7157 0 0 0 0.5 
573 2 2 2.03883 4.00317 5.13247 0 0 0 -6.00614 -1.58969 2.38633 -196.552 348.177 -234.849 0 0 0 0.5 
646 2 2 3.03539 3.62213 4.1203 0 0 0 -4.25239 -1.64308 2.27153 141.866 156.334 32.6649 0 0 0 0.5 
180 1 1 1.96477 4.61227 4.24347 0 0 0 -0.661846 -2.20544 -2.72567 53.5631 102.419 -51.9272 0 0 0 0.5 
555 2 2 0.616449 2.77783 4.20019 0 0 0 -14.3368 -6.34868 2.50506 191.458 -55.7845 -494.553 0 0 0 0.5 
855 2 2 1.03054 0.86066 4.04882 -2 0 0 -202.774 -25.4332 28.9797 4041.17 -1407.68 -515.635 0 0 0 0.5 
594 2 2 0.497463 2.52577 5.14469 0 0 0 -19.5079 -8.82965 -6.39449 30.4592 431.693 579.399 0 0 0 0.5 
148 1 1 3.57373 3.94462 5.64045 0 0 0 -14.5139 1.95639 -1.19215 -322.318 230.612 -102.003 0 0 0 0.5 
740 2 2 0.648195 3.5487 5.17259 0 0 0 -9.08194 -5.26807 -5.37229 -527.868 -29.7677 95.4786 0 0 0 0.5 
678 2 2 2.90568 4.60848 4.05841 0 0 0 1.89953 1.7895 0.572179 158.928 -22.1403 152.061 0 0 0 0.5 
925 2 2 0.30418 4.09966 4.44817 0 0 0 -4.98334 2.70056 0.544517 -80.1492 -52.0184 67.3491 0 0 0 0.5 
149 1 1 3.90834 4.57042 4.95765 0 0 0 -2.53964 2.25749 4.68726 -212.412 642.335 97.2518 0 0 0 0.5 
127 1 1 1.45312 3.25424 5.57388 0 0 0 -16.4459 -4.20241 1.37973 -72.3394 258.984 198.321 0 0 0 0.5 
212 1 1 3.11873 0.0943498 4.97422 5 1 0 -510.343 31.5266 -15.0808 -1224.49 2200.7 714.385 0 0 0 0.5 
250 1 1 4.71855 3.15855 4.3168 0 0 0 -11.7376 -7.88044 10.5755 209.887 39.2464 277.164 0 0 0 0.5 
168 1 1 3.20977 4.84983 5.68917 0 0 0 -2.38314 4.71457 -3.16438 -48.8907 318.443 -26.6579 0 0 0 0.5 
47 1 1 0.139328 1.72407 4.7748 0 0 0 -52.2232 2.74595 12.1421 -2775.29 1004.25 -1344.46 0 0 0 0.5 
827 2 2 1.15617 3.72842 4.2805 0 0 0 -6.37883 -3.90569 -0.269985 -36.2681 -152.818 -61.7232 0 0 0 0.5 
766 2 2 4.3864 3.52997 5.87707 0 0 0 -18.493 2.23425 -7.6016 -362.809 231.44 -255.504 0 0 0 0.5 
908 2 2 4.59018 2.47352 4.96416 0 0 0 -21.9798 -10.0727 7.48747 -36.8637 -1019.11 29.3859 0 0 0 0.5 
708 2 2 4.35378 1.54172 4.74619 -1 0 0 -80.0157 -2.77938 -33.2896 133.354 708.603 259.178 0 0 0 0.5 
928 2 2 1.24443 4.51345 4.88457 0 0 0 -3.10313 0.0667221 -3.49551 -64.9587 -70.6113 18.7734 0 0 0 0.5 
154 1 1 2.97535 4.24807 4.9426 0 0 0 -6.03289 2.33231 -2.42655 -220.422 -100.79 146.567 0 0 0 0.5 
418 1 1 0.370431 4.48187 5.40815 0 0 0 -7.03236 -4.25357 -2.75662 -186.306 -124.82 -65.8561 0 0 0 0.5 
396 1 1 4.76947 4.12758 4.26869 0 0 0 3.38959 -6.61245 -0.353519 16.9523 14.6455 -102.51 0 0 0 0.5 
527 2 2 3.8273 4.35239 4.02365 0 0 0 3.85025 2.44012 4.95757 196.068 -35.4243 37.4932 0 0 0 0.5 
271 1 1 4.35671 1.52284 5.70574 0 0 0 -82.8248 -29.6197 -23.6139 -81.08 39.5479 555.449 0 0 0 0.5 
824 2 2 1.19844 4.16641 5.78073 0 0 0 -7.81807 0.29731 -0.0186545 150.405 68.4179 51.6494 0 0 0 0.5 
837 2 2 2.72481 1.9048 5.96285 0 0 0 -46.3737 -14.6414 -10.6871 -901.075 -430.597 -99.5464 0 0 0 0.5 
914 2 2 4.73491 4.14194 5.24785 0 0 0 -1.15712 0.858582 0.4945 61.5971 165.337 -202.904 0 0 0 0.5 
920 2 2 3.69696 2.71774 4.56563 0 0 0 -22.8891 2.58408 9.04893 144.98 -758.156 -816.412 0 0 0 0.5 
548 2 2 3.83214 2.62202 5.53982 0 0 0 -25.7864 -10.6396 3.46484 205.418 -125.645 324.971 0 0 0 0.5 
155 1 1 3.91859 3.57553 4.85773 0 0 0 -5.21538 10.0439 -0.273013 326.941 -432.237 -487.474 0 0 0 0.5 
795 2 2 4.95778 2.87535 5.79087 0 0 0 -18.5422 10.8177 -1.54366 942.952 128.676 -379.741 0 0 0 0.5 
717 2 2 1.6878 1.35667 6.74277 -1 0 0 -136.818 2.7353 -19.0444 2299.05 -2686.06 -4727 0 0 0 0.5 
365 1 1 1.16557 0.683164 7.46012 -2 0 0 -208.957 -0.254769 -16.5749 -1557.38 1735.17 1342.72 0 0 0 0.5 
252 1 1 2.02888 0.929537 7.35884 7 1 0 -217.261 -14.0304 -35.7404 4487.82 -4247.65 619.883 0 0 0 0.5 
715 2 2 1.41152 0.825733 6.06713 5 1 0 -313.667 14.6997 -55.15 663.614 1642.93 2412.64 0 0 0 0.5 
332 1 1 3.6544 1.87535 6.22196 0 0 0 -66.535 -9.14278 -6.0099 -4.04114 534.122 -367.088 0 0 0 0.5 
236 1 1 1.9985 2.58298 7.66723 0 0 0 -34.6896 0.205869 2.50548 -1121.16 1916.52 -236.195 0 0 0 0.5 
86 1 1 2.91191 2.86395 7.52076 0 0 0 -31.7029 0.915227 0.273433 -624.485 182.728 761.586 0 0 0 0.5 
172 1 1 0.83595 0.61058 6.57342 -3 0 0 -324.173 -5.45473 -4.66759 592.6 166.977 746.284 0 0 0 0.5 
544 2 2 3.08704 3.84216 7.44084 0 0 0 -18.7055 1.4392 -7.77868 -783.507 -444.327 -76.6088 0 0 0 0.5 
80 1 1 2.53618 4.32787 6.8541 0 0 0 -3.21168 2.05634 -11.4835 -409.711 259.252 355.152 0 0 0 0.5 
224 1 1 2.55673 1.92869 7.54945 -1 0 0 -79.0058 10.9582 16.211 -2337.1 -655.238 2504.45 0 0 0 0.5 
606 2 2 2.11723 3.58223 7.68513 0 0 0 -17.5321 -6.86789 -6.8748 -375.493 -15.7282 -244.334 0 0 0 0.5 
956 2 2 1.52797 1.58694 7.57886 0 0 0 -107.409 24.4709 0.284565 -5083.35 1041.62 -974.171 0 0 0 0.5 
584 2 2 2.44201 3.32183 6.82259 0 0 0 -5.94452 -6.42038 -5.66112 -310.169 -275.619 -238.338 0 0 0 0.5 
852 2 2 3.01834 1.49617 7.37592 -1 0 0 -161.48 -5.19139 -19.3021 3846.96 -3604.6 -1446.15 0 0 0 0.5 
944 2 2 1.12916 1.69277 6.68432 0 0 0 -92.5399 3.2451 -8.16078 -4778.07 2850.09 -656.471 0 0 0 0.5 
669 2 2 1.78632 0.169501 7.05089 -2 0 0 -242.553 -36.6704 -37.7921 1622.93 -1180.11 814.731 0 0 0 0.5 
862 2 2 2.31307 2.33347 6.75274 0 0 0 -36.7674 -8.04016 -4.22776 -136.863 515.442 134.934 0 0 0 0.5 
42 1 1 3.45103 2.64396 6.77092 0 0 0 -40.3526 3.90695 -0.198407 -583.545 502.232 -74.1333 0 0 0 0.5 
198 1 1 0.686768 3.98971 6.61859 0 0 0 -8.70272 -4.35456 -0.784525 528.381 90.4155 -142.656 0 0 0 0.5 
703 2 2 1.28772 2.73905 6.48041 0 0 0 -17.3377 -6.27164 6.22271 98.0531 -52.8703 50.2004 0 0 0 0.5 
618 2 2 2.16904 4.54506 7.71437 0 0 0 -0.779188 -4.76788 -7.85182 -88.0741 -108.746 22.8692 0 0 0 0.5 
234 1 1 1.24571 3.1525 7.4231 0 0 0 -20.4548 1.18091 4.66598 -647.537 320.859 -192.944 0 0 0 0.5 
190 1 1 0.504363 3.16144 6.07935 0 0 0 -15.0782 -4.5467 -1.74916 287.019 70.2108 38.5398 0 0 0 0.5 
551 2 2 3.18084 4.82931 7.46928 0 0 0 2.54027 -6.8737 -1.37809 -305.685 274.578 -91.968 0 0 0 0.5 
974 2 2 3.09217 0.537015 6.35567 10 1 0 -347.433 9.57621 -5.29456 0 0 0 0 0 0 0.5 
73 1 1 1.6884 4.76962 6.67241 0 0 0 -6.23041 -0.261551 0.57313 14.2625 38.7543 -214.849 0 0 0 0.5 
240 1 1 0.246465 2.88019 7.13597 0 0 0 -20.9303 -1.35558 -11.4559 0 0 0 0 0 0 0.5 
845 2 2 4.91583 2.99026 7.99766 0 0 0 -35.7655 -7.86772 -7.8145 -558.573 -761.99 -275.898 0 0 0 0.5 
838 2 2 0.0832786 4.73585 6.37021 0 0 0 -3.28392 -0.0440034 2.14302 152.042 -192.712 117.929 0 0 0 0.5 
233 1 1 0.285159 3.7076 7.7436 0 0 0 -2.43116 3.20875 2.79395 144.258 392.779 176.373 0 0 0 0.5 
583 2 2 3.95637 3.5205 7.15247 0 0 0 -18.6379 0.444479 1.04185 18.1309 252.232 150.465 0 0 0 0.5 
66 1 1 3.25711 3.76001 6.50407 0 0 0 -9.95379 1.03798 -6.65732 153.487 -192.342 101.904 0 0 0 0.5 
348 1 1 4.45489 3.01894 6.63755 0 0 0 -20.6071 1.16691 -4.74642 75.833 -554.132 -49.2606 0 0 0 0.5 
116 1 1 3.3854 4.74422 6.61071 0 0 0 -0.0750079 3.30444 -3.93119 -197.255 -217.895 -111.743 0 0 0 0.5 
69 1 1 4.11093 2.1989 6.96108 0 0 0 -44.8323 -3.40585 -16.6063 1294.62 -554.801 158.961 0 0 0 0.5 
611 2 2 1.34933 4.13701 7.34944 0 0 0 -7.15272 -2.41893 -2.55506 87.915 -41.9088 -81.5833 0 0 0 0.5 
56 1 1 4.65161 3.85974 7.76635 0 0 0 -13.1844 -1.11345 -0.520642 83.2267 -192.677 127.992 0 0 0 0.5 
572 2 2 3.82617 2.68435 7.70756 0 0 0 -37.2967 3.93091 -0.578007 -713.877 1191.37 -692.909 0 0 0 0.5 
152 1 1 4.11244 4.27433 6.38935 0 0 0 -6.25216 -2.93784 -2.68113 -1.96423 -54.168 58.0649 0 0 0 0.5 
377 1 1 4.71521 0.843776 7.68357 -2 0 0 -230.395 -15.6446 -24.7989 0 0 0 0 0 0 0.5 
2 1 1 0.337087 4.60144 7.31599 0 0 0 -2.06234 1.70536 1.12046 73.2827 -165.943 41.9755 0 0 0 0.5 
217 1 1 1.62819 3.72811 6.50998 0 0 0 -7.32063 -5.76306 -3.13645 8.23765 -136.237 77.6587 0 0 0 0.5 
662 2 2 4.07984 4.46545 7.36301 0 0 0 -1.61805 -0.660684 -3.47129 -45.8463 361.721 -324.227 0 0 0 0.5 
242 1 1 2.09056 1.18059 7.97655 -1 0 0 -156.196 -3.37724 -6.16386 3686.36 -193.73 127.349 0 0 0 0.5 
736 2 2 4.28878 1.40204 6.67775 -2 0 0 -90.5818 -37.3888 -9.82502 860.901 -786.692 -176.471 0 0 0 0.5 
194 1 1 4.07801 0.240946 6.30148 -3 0 0 -363.386 0.324409 15.4943 0 0 0 0 0 0 0.5 
633 2 2 4.50049 2.13277 7.75928 0 0 0 -67.0396 1.04556 -4.01843 1282.96 -1125.7 695.743 0 0 0 0.5 
40 1 1 4.87663 4.04292 6.82744 0 0 0 -4.65406 2.58715 1.19169 -24.2374 -295.678 96.3568 0 0 0 0.5 
681 2 2 4.84416 4.97988 6.81052 0 0 0 -2.51431 3.21096 -0.39895 -124.301 74.2886 -4.96534 0 0 0 0.5 
412 1 1 3.7421 0.816506 8.72461 -3 0 0 -225.976 -37.9725 -52.348 -6194.37 2183.24 -702.375 0 0 0 0.5 
232 1 1 2.77886 2.93552 9.2407 0 0 0 -19.3461 3.03462 -2.09104 -132.954 122.691 191.019 0 0 0 0.5 
249 1 1 0.472546 1.53909 8.88495 0 0 0 -86.8697 17.1897 11.8512 848.437 -2545.04 1587.7 0 0 0 0.5 
789 2 2 2.47618 0.887286 8.65414 -4 0 0 -200.868 -20.9342 29.6165 1759.46 -1982.06 -63.0398 0 0 0 0.5 
121 1 1 1.49186 0.722449 9.64587 8 1 0 -295.581 -19.0645 21.4009 -898.151 -492.577 -1070.42 0 0 0 0.5 
655 2 2 1.05706 0.104046 9.0296 -5 0 0 -362.341 -43.9708 23.7005 4240.15 -2780.35 -215.991 0 0 0 0.5 
869 2 2 3.55962 2.41344 9.29129 0 0 0 -29.1705 -2.56333 -4.0248 -67.9692 1009.04 966.434 0 0 0 0.5 
79 1 1 2.53077 4.43584 9.05778 0 0 0 2.17051 -2.44943 3.9748 -158.234 24.1906 -184.395 0 0 0 0.5 
754 2 2 2.73609 3.77722 9.66868 0 0 0 -10.4121 -0.846325 6.03013 -59.6562 183.741 -133.352 0 0 0 0.5 
195 1 1 3.08135 2.54293 8.42231 0 0 0 -34.3132 -2.3649 -3.94764 -154.048 -95.4502 195.654 0 0 0 0.5 
380 1 1 2.01619 2.22978 9.0244 0 0 0 -33.9332 20.3223 -13.1107 1100.42 -282.534 -162.26 0 0 0 0.5 
274 1 1 2.64744 2.21028 9.77102 0 0 -1 -38.1054 -2.95441 -4.35268 462.287 -677.767 185.277 0 0 0 0.5 
273 1 1 2.13065 1.511 9.26373 0 0 0 -120.823 -2.72101 29.5436 1001.14 -96.2098 432.268 0 0 0 0.5 
259 1 1 1.51554 1.52056 9.87675 0 0 -1 -106.867 23.0915 31.1687 -1030.67 -674.446 579.749 0 0 0 0.5 
495 1 1 1.84475 2.77426 9.75729 0 0 0 -23.7293 2.31748 -4.95453 -602.249 444.28 589.989 0 0 0 0.5 
656 2 2 1.7648 1.47535 8.46722 0 0 0 -155.299 20.0971 25.5678 -1661.71 1523.87 945.888 0 0 0 0.5 
226 1 1 1.4288 2.55655 8.43746 0 0 0 -34.5241 1.95326 -4.222 -655.709 211.508 -310.699 0 0 0 0.5 
139 1 1 2.00937 3.41955 9.07556 0 0 0 -18.8306 8.59561 6.66346 -205.853 763.357 -232.097 0 0 0 0.5 
619 2 2 2.70067 3.39575 8.3858 0 0 0 -20.0634 9.01156 2.9699 -193.95 61.7689 43.7075 0 0 0 0.5 
360 1 1 3.65397 1.88545 8.24647 0 0 0 -46.1654 -9.12317 -40.5596 501.12 -577.291 -631.959 0 0 0 0.5 
485 1 1 0.685021 0.564 9.01451 -4 0 0 -269.472 6.2002 11.6128 1833.16 2447.3 1485.68 0 0 0 0.5 
399 1 1 0.15476 0.766652 8.96392 -1 0 -1 -244.391 -10.4751 -12.7301 -4311.28 4578.14 -769.564 0 0 0 0.5 
877 2 2 0.906571 0.188386 8.21936 6 1 0 -384.88 7.93552 -14.2219 -3748.14 3731.92 -1030 0 0 0 0.5 
587 2 2 3.93645 3.34691 9.51118 0 0 0 -19.9899 -0.907594 6.15569 -584.243 1271.1 -402.126 0 0 0 0.5 
764 2 2 3.51234 1.62482 9.83138 0 0 0 -115.396 5.55722 21.0649 -2848.93 2357.56 -443.233 0 0 0 0.5 
7 1 1 0.485573 3.7631 8.70043 0 0 0 -11.8696 -1.7253 6.02674 -156.787 -230.91 -85.3002 0 0 0 0.5 
231 1 1 0.917212 2.21928 9.41436 0 0 0 -24.6186 -3.47081 8.77147 -181.049 -502.893 -520.122 0 0 0 0.5 
637 2 2 1.09187 3.20584 9.21817 0 0 0 -20.4259 -14.5079 2.81349 42.2606 -284.948 22.8967 0 0 0 0.5 
54 1 1 4.45569 4.76498 9.0006 0 0 0 2.59967 -7.81127 -2.29896 -46.2361 272.376 323.706 0 0 0 0.5 
90 1 1 2.86264 4.73062 9.92724 0 0 -1 -1.43431 -1.2298 3.67464 -201.681 -32.5344 -220.299 0 0 0 0.5 
607 2 2 2.95046 4.34505 8.24355 0 0 0 -4.46112 0.415852 -0.0328215 -113.053 13.3888 -205.35 0 0 0 0.5 
609 2 2 1.89853 4.64346 9.73027 0 0 -1 0.378194 3.25005 -0.239502 -94.5301 391.526 -2.69633 0 0 0 0.5 
828 2 2 3.97594 2.99905 8.63753 0 0 0 -44.1887 13.2177 0.847686 -134.23 383.948 320.262 0 0 0 0.5 
253 1 1 3.83058 1.56101 8.96515 0 0 0 -111.456 4.06169 -2.2572 361.394 -3455.54 -204.864 0 0 0 0.5 
585 2 2 3.72232 4.43328 9.63727 0 0 0 0.343669 1.51784 -2.12416 13.4528 -25.0877 -127.362 0 0 0 0.5 
776 2 2 4.42654 2.34221 8.66619 0 0 0 -62.4724 -1.27777 3.74503 -380.281 -738.328 -96.4474 0 0 0 0.5 
526 2 2 0.0811979 3.0158 9.20581 0 0 0 -10.5658 -8.66253 -0.329187 -14.886 -27.51 18.604 0 0 0 0.5 
625 2 2 0.069749 4.12403 9.91322 0 0 -1 -6.99769 -0.938345 -3.28734 88.6172 226.878 214.61 0 0 0 0.5 
608 2 2 1.6031 4.52457 8.80111 0 0 0 1.95184 -7.7694 0.814323 -29.6112 -6.03805 107.529 0 0 0 0.5 
110 1 1 0.0299052 4.50308 8.27959 0 0 0 -0.317077 5.88815 1.11034 -108.279 81.9517 -204.623 0 0 0 0.5 
597 2 2 3.35779 3.8348 8.95157 0 0 0 -9.11474 -1.57318 2.46409 -104.775 391.002 -357.65 0 0 0 0.5 
104 1 1 0.739204 4.49642 9.27371 0 0 0 -1.48612 -0.5605 1.14556 -109.686 36.3663 -328.775 0 0 0 0.5 
863 2 2 4.79557 3.10796 9.17443 0 0 0 -31.9449 -3.52213 -8.12057 -113.741 -939.263 -211.655 0 0 0 0.5 
743 2 2 0.598679 2.92627 8.20174 0 0 0 -28.8697 -3.81945 -2.43118 -403.301 -47.5792 94.9031 0 0 0 0.5 
237 1 1 1.39603 3.63911 8.34091 0 0 0 -13.1998 -8.7184 1.68613 -249.163 80.9785 -231.314 0 0 0 0.5 
842 2 2 4.56192 3.84016 8.76831 0 0 0 -10.169 -0.0571753 -6.9592 -1.20155 -97.4096 -352.428 0 0 0 0.5 
530 2 2 0.946814 3.78272 9.99149 0 0 0 -11.0012 -5.53439 -0.39916 -241.248 336.838 -218.801 0 0 0 0.5 
574 2 2 3.39896 4.88462 8.93282 0 0 0 -3.64175 0.593288 0.0825576 -43.5466 119.806 -190.068 0 0 0 0.5 
670 2 2 3.91713 4.3426 8.3222 0 0 0 -6.8942 -0.524875 -1.62509 -85.1915 459.811 -371.354 0 0 0 0.5 
504 2 2 0.943482 4.51757 8.12148 0 0 0 0.301788 1.87669 1.24703 182.473 161.976 -145.225 0 0 0 0.5 
235 1 1 3.61749 3.51066 8.06336 0 0 0 -24.4845 7.89532 -6.20197 -272.073 583.737 99.4848 0 0 0 0.5 
536 2 2 4.09482 1.2177 9.83018 -1 0 -1 -144.068 -4.8606 -1.54523 -1619.15 118.517 526.423 0 0 0 0.5 
911 2 2 3.9906 0.447316 9.41628 -3 0 -1 -259.067 -53.7017 -39.9645 -2573.17 42.655 3101.56 0 0 0 0.5 
247 1 1 4.53097 0.792943 8.71932 -4 0 0 -296.285 6.58931 -16.6162 6726.77 437.575 -1994.91 0 0 0 0.5 
413 1 1 4.55173 0.707933 9.55353 -5 0 -1 -266.317 -10.2338 -5.36542 6339.88 -3364.48 -893.393 0 0 0 0.5 
598 2 2 4.64275 4.3259 9.82528 0 0 0 -1.31999 -1.05211 4.99913 45.933 57.024 81.8305 0 0 0 0.5 
635 2 2 4.9149 1.83083 9.78147 -1 0 0 -116.546 1.26085 4.99478 976.47 -333.732 -1129.57 0 0 0 0.5 
568 2 2 4.87671 4.74608 8.09623 0 0 0 3.51367 -3.05855 1.17276 534.932 -423.579 -168.43 0 0 0 0.5 
810 2 2 1.61375 7.68161 1.62386 1 0 0 25.8087 19.0397 -8.85069 -74.5619 468.853 -16.9415 0 0 0 0.5 
286 1 1 0.552944 9.54447 0.211959 3 0 0 420.24 -15.5735 -6.50052 -574.338 47.1862 -135.542 0 0 0 0.5 
592 2 2 4.16605 6.52558 0.33911 0 0 0 8.99264 -0.57982 5.04737 -68.1306 -113.041 272.601 0 0 0 0.5 
632 2 2 3.13658 7.04951 0.362085 0 0 0 21.44 -0.127661 4.91612 434.429 -214.275 33.0179 0 0 0 0.5 
532 2 2 2.69735 9.86502 0.911746 6 0 0 550.498 -13.5047 -36.2844 -10213.3 9946.13 195.344 0 0 0 0.5 
627 2 2 3.78416 6.12953 1.58769 0 0 0 14.5759 -4.25496 0.327387 127.343 -64.726 -81.7266 0 0 0 0.5 
676 2 2 2.96632 8.39566 1.37441 1 0 0 139.171 4.84563 -2.93665 -2219.01 2331.34 -2513.22 0 0 0 0.5 
105 1 1 2.93821 6.06844 0.221816 0 0 0 9.60788 5.85765 2.0264 -85.2855 302.713 137.391 0 0 0 0.5 
9 1 1 0.19797 8.94778 0.904422 4 0 0 355.755 -13.404 -23.5636 -219.097 -547.979 1248.03 0 0 0 0.5 
409 1 1 2.10364 9.7257 1.86566 6 0 0 449.071 -5.62342 -17.2071 -6917.64 485.434 -222.188 0 0 0 0.5 
651 2 2 2.31613 6.16593 1.8039 0 0 0 13.2999 4.01432 7.50112 183.42 243.616 321.932 0 0 0 0.5 
213 1 1 2.30037 8.69319 1.9778 1 0 0 156.857 -15.4601 5.35282 163.115 -210.734 1005.98 0 0 0 0.5 
126 1 1 2.14294 6.33634 0.751017 0 0 0 3.82312 4.19137 -3.77177 -219.822 163.389 54.7539 0 0 0 0.5 
102 1 1 2.78602 5.67589 1.0983 0 0 0 0.346019 3.44462 -0.0407202 -176.268 235.651 45.3056 0 0 0 0.5 
673 2 2 3.12494 6.69297 1.24728 0 0 0 13.4642 -6.20909 -1.25723 27.1986 -74.403 189.888 0 0 0 0.5 
302 1 1 3.78537 7.82416 0.709124 1 0 1 65.3641 -26.4069 14.4628 -2447.8 1076.9 918.372 0 0 0 0.5 
732 2 2 1.12942 9.29671 1.68882 -5 -1 1 396.284 15.2963 -0.346904 -3286.71 2080.42 1267.19 0 0 0 0.5 
793 2 2 1.43116 7.76108 0.521054 1 0 0 25.7186 -0.0843728 1.27798 -786.128 703.932 -351.595 0 0 0 0.5 
590 2 2 4.65596 6.60193 1.42604 0 0 0 14.407 1.41738 -4.66041 587.956 -431.593 -444.406 0 0 0 0.5 
293 1 1 0.616681 9.93548 1.15011 -3 -1 0 611.574 -21.2218 -1.86055 -5725.12 4875.12 -1407.3 0 0 0 0.5 
552 2 2 1.56805 8.84442 1.68345 1 0 0 201.959 -26.853 -28.1508 2533.26 -4868.06 1110.38 0 0 0 0.5 
599 2 2 3.65221 5.76725 0.695744 0 0 0 2.92351 -1.8823 1.42727 -11.7194 -178.478 59.8413 0 0 0 0.5 
98 1 1 3.52798 5.12828 1.44575 0 0 0 -8.11856 -6.192 -1.73738 146.811 -64.6219 137.83 0 0 0 0.5 
141 1 1 0.688784 6.93602 0.0198279 1 0 1 22.9579 -2.7862 3.32613 -254.426 -114.07 -257.352 0 0 0 0.5 
610 2 2 1.77535 5.52186 1.19151 0 0 0 9.42226 1.33689 -3.94638 -19.8017 -63.7884 -130.533 0 0 0 0.5 
290 1 1 3.00763 9.62958 1.51221 4 0 0 367.201 -4.27474 19.5325 6688.53 -2061.83 2200.51 0 0 0 0.5 
800 2 2 4.07419 9.36779 1.04445 3 0 0 287.231 14.1052 7.78371 2920.52 -9331.7 2327.72 0 0 0 0.5 
809 2 2 0.848204 7.12895 1.84526 1 0 0 33.3268 5.04243 -12.7566 -783.089 642.127 334.657 0 0 0 0.5 
888 2 2 1.38142 8.48622 0.000148477 2 0 1 114.105 26.1995 -17.2649 -592.397 1076.37 1094.03 0 0 0 0.5 
578 2 2 0.288316 5.90404 1.26181 0 0 0 3.11923 0.389993 -0.805858 -83.0451 -97.9316 13.9894 0 0 0 0.5 
113 1 1 1.22054 5.91284 0.485134 0 0 0 7.16718 5.59377 -3.93576 118.14 -69.5399 -289.983 0 0 0 0.5 
782 2 2 0.0894039 7.27119 0.77712 1 0 0 19.0016 3.7945 0.173593 -104.01 -37.8659 -201.437 0 0 0 0.5 