ITEM: TIMESTEP
35500
ITEM: NUMBER OF ATOMS
1000
ITEM: BOX BOUNDS xy xz yz pp pp pp
0 10 0
0 10 0
-0 10 0
ITEM: ATOMS id type type x y z ix iy iz vx vy vz fx fy fz omegax omegay omegaz radius 
137 1 1 2.56885 1.1232 1.69182 -163 0 0 -373.82 5.29807 -7.37531 -1065.87 2196.93 -2672.31 0 0 0 0.5 
138 1 1 2.33613 3.89332 1.70528 -48 0 1 -97.7071 -23.3446 -7.87243 282.257 -1509.64 1062.91 0 0 0 0.5 
916 2 2 1.13545 0.140494 1.47766 -92 0 0 -446.534 1.74726 -8.28286 1062.96 -2112.2 -242.724 0 0 0 0.5 
868 2 2 3.26637 3.79986 0.12965 -82 0 2 -117.022 -11.3606 -1.53594 519.729 -87.5579 -124.719 0 0 0 0.5 
566 2 2 2.42383 0.132662 1.66441 234 1 1 -450.225 -4.1773 -23.7507 -1014.05 540.607 868.239 0 0 0 0.5 
162 1 1 2.64124 3.24073 0.701837 134 1 0 -149.453 -8.72098 -10.9177 -1720.09 768.417 3286.39 0 0 0 0.5 
851 2 2 0.626445 2.07515 1.1315 -144 0 0 -355.768 13.4187 19.3374 2838.76 -1945.87 995.354 0 0 0 0.5 
159 1 1 1.70055 3.02829 0.779012 203 1 0 -167.047 -19.8762 -44.2827 172.607 -418.004 770.711 0 0 0 0.5 
318 1 1 2.25138 3.71217 0.0438665 -80 0 1 -128.234 -7.46016 -39.0541 -54.9689 -512.255 194.936 0 0 0 0.5 
759 2 2 0.994465 1.91535 0.348741 -69 0 0 -371.853 11.8547 3.39029 3102.26 -967.932 -616.846 0 0 0 0.5 
339 1 1 0.905041 2.68053 1.98901 -63 0 1 -208.264 -22.8445 0.509179 572.116 848.837 -209.14 0 0 0 0.5 
250 1 1 1.48999 3.86452 0.647146 -48 0 1 -116.014 -1.43872 -8.55714 3155.66 -2879.76 1313.27 0 0 0 0.5 
400 1 1 0.29126 0.668594 1.40935 -118 0 0 -417.325 -5.82205 -4.63641 195.226 295.59 -1997.07 0 0 0 0.5 
428 1 1 1.89698 2.68122 1.52887 -74 0 1 -206.926 -7.05957 -2.42212 -402.482 60.3839 759.741 0 0 0 0.5 
108 1 1 0.0760997 1.15601 0.589362 -151 0 1 -405.387 7.38884 0.367122 -49.7051 112.6 -189.428 0 0 0 0.5 
443 1 1 0.69693 0.292508 0.427879 106 1 0 -458.599 3.89333 5.8395 -68.153 -511.742 -797.912 0 0 0 0.5 
857 2 2 4.67171 2.73535 1.26042 -19 0 0 -234.777 22.0984 7.57425 3227.77 -2816.96 -1055.74 0 0 0 0.5 
237 1 1 3.05861 0.298668 0.0540953 -98 0 1 -445.441 -2.90752 -20.0037 -596.646 -79.2264 158.39 0 0 0 0.5 
947 2 2 1.23393 3.43752 1.47931 4 0 1 -146.312 6.32419 1.57468 -626.834 -2245.9 -938.795 0 0 0 0.5 
815 2 2 0.068465 2.19048 0.315308 132 1 0 -323.409 4.87353 -3.20048 -2650.46 1144.78 1349.55 0 0 0 0.5 
876 2 2 1.68239 0.400974 0.645494 -67 0 1 -448.534 16.0115 -10.9139 -228.598 -1148.48 -119.572 0 0 0 0.5 
792 2 2 4.30108 3.89427 1.07274 191 1 0 -63.7928 -23.4715 5.24313 -324.603 -1918.46 308.32 0 0 0 0.5 
458 1 1 2.19751 4.62072 0.0698274 38 0 0 -12.4589 1.37016 -24.5005 -646.306 -2950.5 2111.37 0 0 0 0.5 
67 1 1 3.93385 1.90327 0.382846 218 1 1 -295.129 25.4663 -18.6908 2603.45 -110.176 -1295.68 0 0 0 0.5 
454 1 1 3.50024 2.16815 1.60363 181 1 0 -289.894 12.9027 19.4223 -2234.32 629.257 212.261 0 0 0 0.5 
408 1 1 4.8217 2.5739 0.278477 -13 0 0 -235.662 12.5856 0.258158 -1344.88 306.967 -1330.5 0 0 0 0.5 
767 2 2 3.73323 0.488445 1.70182 -92 0 1 -451.942 20.7173 8.93698 -1020.23 809.564 -2237.54 0 0 0 0.5 
405 1 1 2.20436 4.59251 1.27057 11 0 0 8.00961 -19.2132 -29.0057 -1118.16 -35.8783 -79.8294 0 0 0 0.5 
446 1 1 0.0914876 3.12663 0.249604 -41 0 1 -212.82 1.22061 -18.5169 1446.09 14.6861 1729.18 0 0 0 0.5 
541 2 2 3.27363 3.99093 1.34127 157 1 0 -91.4402 -4.71543 -14.5392 -25.583 477.277 292.271 0 0 0 0.5 
173 1 1 4.57477 0.275002 0.159285 155 1 1 -431.988 9.14762 -7.9556 527.056 -373.361 -199.209 0 0 0 0.5 
181 1 1 4.23573 0.598234 0.823191 100 1 0 -409.996 -6.21315 34.1175 -902.229 -1217.72 1608.8 0 0 0 0.5 
863 2 2 3.19895 2.11969 0.769429 -50 0 1 -269.14 -13.0532 -14.1809 -2499.24 774.093 1590.33 0 0 0 0.5 
603 2 2 4.38274 1.90442 1.42148 176 1 0 -326.702 12.1902 5.65863 1290.67 1882.61 -967.383 0 0 0 0.5 
924 2 2 0.153789 3.95558 1.85081 -48 0 1 -97.2793 0.645095 25.84 360.199 767.742 1311.22 0 0 0 0.5 
598 2 2 4.82772 1.23907 1.43158 -54 0 1 -349.798 -5.8687 28.6281 -1896.81 -605.462 -619.437 0 0 0 0.5 
889 2 2 1.60353 4.73152 0.522149 2 0 0 -15.6586 6.11322 10.6145 991.981 2443.27 670.009 0 0 0 0.5 
472 1 1 0.957551 4.45064 1.95623 7 0 1 -96.542 31.4242 -18.3068 1228.09 -4686.27 1201.12 0 0 0 0.5 
978 2 2 0.298809 4.90914 0.20089 32 0 0 2.53481 -5.17156 -5.72385 -435.769 -2417.65 -636.413 0 0 0 0.5 
264 1 1 3.09951 4.92635 1.16429 -21 0 0 -35.1816 27.7272 -10.8372 1608.77 -39.9997 44.504 0 0 0 0.5 
382 1 1 3.86915 4.53922 0.694873 -178 -1 -1 -43.0484 1.49772 -0.906491 -84.9241 1965.8 -342.264 0 0 0 0.5 
20 1 1 3.13599 0.191671 1.00344 -185 0 0 -447.017 1.31628 -12.7667 -968.62 2357.21 885.353 0 0 0 0.5 
510 2 2 0.361874 3.83191 0.853332 -45 0 0 -91.8343 -1.25239 -1.68223 851.375 -1876.54 -2349.17 0 0 0 0.5 
871 2 2 0.364179 3.1586 1.54234 -7 0 0 -171.272 -11.1493 13.671 -1407.59 217.759 -2983.11 0 0 0 0.5 
833 2 2 3.92127 3.13867 1.52133 -5 0 0 -182.797 -11.725 8.13058 -1763.65 2344.51 -402.254 0 0 0 0.5 
266 1 1 0.895996 4.50913 0.403883 -182 -1 0 -19.2216 -17.8382 6.42624 -3375.08 758.57 -401.488 0 0 0 0.5 
18 1 1 3.83735 3.00744 0.564239 -41 0 1 -174.673 -3.89016 11.8351 -61.7311 -17.8346 -342.642 0 0 0 0.5 
875 2 2 3.9078 1.07853 0.302956 -34 0 1 -366.022 7.09342 -13.8261 -354.053 1207.1 518.042 0 0 0 0.5 
106 1 1 4.20938 3.87555 0.0840674 -53 0 0 -96.3918 -4.50472 -9.06091 837.061 -878.578 1188.42 0 0 0 0.5 
80 1 1 4.9131 1.37861 0.190536 -42 0 1 -336.138 -7.50423 5.31437 -264.041 370.895 -394.066 0 0 0 0.5 
785 2 2 0.87514 2.62608 2.94035 263 1 1 -203.655 -25.1319 15.8687 -669.781 211.956 795.573 0 0 0 0.5 
243 1 1 2.82434 4.69199 2.55281 -59 0 0 -29.7476 1.28912 2.25603 1137.97 -2471.47 -1382.91 0 0 0 0.5 
674 2 2 1.66062 3.58961 3.26212 -45 0 0 -141.472 -14.033 0.00385598 19.584 760.324 -197.85 0 0 0 0.5 
794 2 2 0.0327145 1.09368 2.94365 13 0 0 -354.069 1.75907 -11.0933 -197.403 1873.11 -790.768 0 0 0 0.5 
877 2 2 1.77999 0.597248 3.43999 183 1 1 -451.015 27.6967 12.6323 -860.401 335.62 1296.53 0 0 0 0.5 
282 1 1 1.50152 2.39461 2.29795 189 1 0 -214.76 -23.1585 31.6222 -1267.03 3195.16 314.94 0 0 0 0.5 
781 2 2 0.494282 1.82682 3.51389 153 1 0 -353.123 6.40129 -0.14356 3406.11 -2355.44 689.864 0 0 0 0.5 
803 2 2 3.47404 3.5287 2.12046 179 1 0 -132.481 -1.09684 26.3374 -1819.17 -77.7346 1486.26 0 0 0 0.5 
746 2 2 4.46844 2.53673 2.47021 -28 0 0 -249.707 20.214 -23.42 -565.945 1599.74 395.014 0 0 0 0.5 
480 1 1 1.3547 1.49999 3.11291 -96 0 2 -393.991 11.9854 -9.67335 108.081 193.678 405.268 0 0 0 0.5 
17 1 1 1.7199 0.532538 2.24152 -99 0 0 -426.828 15.514 -16.8189 1341.78 -416.029 465.895 0 0 0 0.5 
23 1 1 0.915545 0.835501 2.05207 -115 0 1 -423.768 12.1611 4.43005 -550.804 -493.757 -35.838 0 0 0 0.5 
664 2 2 2.47297 0.188677 3.22753 89 1 0 -478.571 4.77755 -18.3146 1776.15 881.633 -807.417 0 0 0 0.5 
110 1 1 0.434078 0.553098 3.04321 -72 0 1 -402.47 -26.8764 -4.10422 -2388.26 -1574.2 180.262 0 0 0 0.5 
358 1 1 4.51448 0.893728 2.45223 -47 0 0 -395.15 -11.7084 -2.54267 28.161 872.518 -553.954 0 0 0 0.5 
557 2 2 0.566809 0.290206 3.86705 141 1 0 -437.651 -0.771645 13.5305 -160.476 210.532 426.39 0 0 0 0.5 
96 1 1 2.21139 2.89198 2.66226 -91 0 0 -202.411 -15.4231 -9.24192 -2640.93 2849.44 -1212.28 0 0 0 0.5 
641 2 2 1.21872 3.59152 2.41513 -28 0 0 -133.095 -4.75133 -1.46656 397.058 -885.931 -463.252 0 0 0 0.5 
744 2 2 0.54052 1.67725 2.24483 134 1 0 -366.456 22.2406 -7.02265 -573.663 1287.59 294.853 0 0 0 0.5 
835 2 2 4.74928 1.74291 2.27419 -40 0 1 -306.209 2.20814 -0.127531 308.691 -1749.66 1186.04 0 0 0 0.5 
770 2 2 2.33288 3.82323 2.65906 -52 0 0 -131.405 10.5459 5.2365 -55.7853 -1180.45 -219.087 0 0 0 0.5 
207 1 1 1.07771 0.425402 2.9398 162 1 1 -418.647 -7.04235 -2.08629 -1229.01 827.008 -621.615 0 0 0 0.5 
278 1 1 1.92013 1.94104 2.12661 178 1 -1 -317.198 -22.0174 -22.22 4223.26 -5086.71 -1294.95 0 0 0 0.5 
22 1 1 1.58293 1.90897 3.96868 125 1 0 -323.982 4.64909 -9.56375 1383.35 -1094.64 -445.139 0 0 0 0.5 
579 2 2 1.71668 2.70129 3.46179 -40 0 0 -188.48 -33.9515 4.24821 -198.38 1336.83 -1976.18 0 0 0 0.5 
418 1 1 3.41131 0.486669 3.04377 -119 0 1 -495.06 12.1335 -2.74458 646.337 2.9862 903.644 0 0 0 0.5 
786 2 2 3.78395 0.683668 3.88877 -135 0 1 -448.858 8.72454 -3.82402 -4232.13 -767.917 -2794.18 0 0 0 0.5 
886 2 2 1.5833 4.41161 3.18712 262 1 0 -79.6778 38.6901 -7.82123 436.707 -1552.06 310.133 0 0 0 0.5 
7 1 1 4.1717 2.78914 3.89951 -61 0 0 -184.177 -24.8595 -17.8001 0 0 0 0 0 0 0.5 
691 2 2 0.29604 3.17659 3.37165 152 1 0 -196.836 4.26258 7.24585 870.708 -53.1071 126.995 0 0 0 0.5 
593 2 2 1.02564 4.46525 3.82161 24 0 1 -83.2423 8.80291 -9.50629 -896.632 565.791 1271.12 0 0 0 0.5 
547 2 2 4.15086 4.40885 2.26869 58 0 0 -56.5896 -11.401 -18.0717 241.73 -52.3074 -531.105 0 0 0 0.5 
766 2 2 0.773944 4.25649 2.88644 -66 0 1 -93.6815 14.3443 -17.2563 278.363 1026.28 119.25 0 0 0 0.5 
486 1 1 3.0741 2.72203 2.42089 168 1 1 -218.185 -15.7082 -6.96159 2249.58 950.896 -914.088 0 0 0 0.5 
482 1 1 2.5923 1.15383 3.02933 41 1 0 -454.888 39.4596 0.908067 -488.374 -916.133 1090.64 0 0 0 0.5 
896 2 2 3.59662 4.46325 3.02764 -10 0 -1 -40.5456 -14.6576 -4.05498 -900.998 62.907 -553.436 0 0 0 0.5 
161 1 1 3.3394 4.92522 3.75047 1 0 1 3.44339 -5.75997 22.8441 -364.796 1170.87 -1059.84 0 0 0 0.5 
461 1 1 2.0359 4.80196 2.43138 236 1 0 -46.5133 -13.3525 18.9406 -503.874 3.71604 -119.062 0 0 0 0.5 
12 1 1 4.16614 3.57728 2.85293 -88 0 0 -119.861 -30.6723 -0.290855 -1067.38 -162.479 -147.656 0 0 0 0.5 
895 2 2 3.79083 4.0315 3.82843 -78 0 0 -116.569 -14.4698 1.06841 -840.611 -118.698 1539.97 0 0 0 0.5 
483 1 1 2.84145 0.561317 2.37528 138 1 0 -499.472 35.5477 -6.14616 112.51 -890.785 1682.18 0 0 0 0.5 
196 1 1 2.74354 2.60428 3.26646 204 1 0 -246.436 -0.631504 2.20517 1718.99 -924.328 1930.99 0 0 0 0.5 
292 1 1 0.130036 4.26602 3.50903 -275 -1 -1 -81.8088 7.06293 -15.524 32.529 -2247.36 -384.188 0 0 0 0.5 
185 1 1 2.66418 4.10998 3.98802 13 0 0 -64.1654 -19.4576 7.77418 -43.8649 -283.52 -640.548 0 0 0 0.5 
78 1 1 4.54276 1.48758 3.18975 -6 0 1 -280.621 -17.1334 2.26027 -2051.46 1055.88 -185.929 0 0 0 0.5 
921 2 2 4.55701 3.79339 3.67171 -65 0 1 -103.76 -12.8122 -8.90056 1316.99 -894.655 731.408 0 0 0 0.5 
213 1 1 4.50969 4.56299 3.10317 214 1 1 -50.3146 -17.3715 -5.78612 780.431 199.739 1572.08 0 0 0 0.5 
724 2 2 4.61782 0.301131 3.86817 -183 0 0 -521.997 7.95798 -18.0397 4526.7 -272.711 737.265 0 0 0 0.5 
280 1 1 4.96866 0.310107 2.73763 -111 0 0 -405.528 -46.1202 35.7619 627.149 2478.06 1722.9 0 0 0 0.5 
456 1 1 2.45534 0.57759 4.13614 -54 0 0 -436.857 7.17738 -12.3747 1192.46 -1367.55 -480.788 0 0 0 0.5 
75 1 1 0.915237 3.34856 4.01936 183 1 1 -172.924 -13.273 -2.98899 470.943 939.395 1003.27 0 0 0 0.5 
247 1 1 0.947832 1.78409 5.34041 -156 0 0 -310.363 -1.14389 -14.9724 1823.57 -2596.04 1107.36 0 0 0 0.5 
228 1 1 0.983742 1.17933 5.86274 -103 0 1 -371.858 -8.70689 2.8394 -1314.09 496.745 36.5939 0 0 0 0.5 
509 2 2 1.27715 0.845181 5.132 -98 0 0 -381.571 -5.60425 -17.4564 -315.751 1432.76 1133.92 0 0 0 0.5 
172 1 1 3.73056 1.61271 5.27796 -161 0 0 -352.728 24.5989 -17.577 -346.003 420.107 883.483 0 0 0 0.5 
364 1 1 1.91106 2.70703 4.37768 -45 0 0 -212.762 -18.9027 2.21917 1224.94 -113.687 -1142.41 0 0 0 0.5 
575 2 2 2.27226 0.603857 5.19763 126 1 -1 -422.949 6.28931 13.6472 -1668.3 1853.97 -1034.12 0 0 0 0.5 
544 2 2 1.63829 3.04039 5.67429 4 0 0 -194.715 -10.8377 39.2136 890.982 -1753.49 231.036 0 0 0 0.5 
930 2 2 4.02705 1.84054 4.39725 -31 0 0 -326.276 3.25378 -3.12424 -797.565 -1144.45 -1189.74 0 0 0 0.5 
495 1 1 0.463317 2.65241 5.43524 -65 0 1 -203.65 -14.8355 -1.56551 -2139.4 1026.73 -1320.77 0 0 0 0.5 
635 2 2 2.49229 3.85138 5.72778 -271 -1 0 -103.198 -2.57574 1.37773 -3822.78 3631.79 -41.0039 0 0 0 0.5 
747 2 2 2.04477 1.27607 4.6016 -177 0 0 -393.446 4.28279 -5.49909 -290.752 -119.77 -474.778 0 0 0 0.5 
493 1 1 4.66766 0.0692776 4.89946 186 1 0 -529.621 16.7912 -7.4452 -585.271 640.869 185.593 0 0 0 0.5 
514 2 2 0.623157 1.05718 4.42517 -72 0 0 -407.575 2.38161 -6.44074 345.783 622.022 838.559 0 0 0 0.5 
513 2 2 1.75175 3.50709 4.16131 -74 0 0 -156.703 20.9078 8.1642 1469.24 -1836.57 146.397 0 0 0 0.5 
606 2 2 1.80009 2.04392 5.02074 -124 0 -1 -312.224 9.71933 -13.0112 -262.967 637.985 1652.36 0 0 0 0.5 
189 1 1 1.00343 2.00202 4.45773 169 1 0 -330.773 4.45312 -4.06139 1234.08 631.366 -1301.37 0 0 0 0.5 
258 1 1 0.255979 1.98983 4.86557 -102 0 1 -317.513 -21.7467 -27.1415 -1943.29 452.776 3023.84 0 0 0 0.5 
709 2 2 1.3725 0.301038 4.43165 119 1 0 -439.009 -9.55615 16.4745 147.403 -971.444 -1200.05 0 0 0 0.5 
821 2 2 3.18229 0.0680772 4.64034 170 1 0 -502.939 8.33009 -14.7133 -3219.98 2476.93 840.698 0 0 0 0.5 
492 1 1 1.2265 3.15125 4.92405 -139 0 0 -184.739 -18.3981 1.39245 -183.513 1134.19 347.894 0 0 0 0.5 
346 1 1 2.41731 2.85167 5.32803 197 1 0 -199.291 -11.1442 -21.738 150.996 76.365 -38.8025 0 0 0 0.5 
568 2 2 3.61327 2.96354 4.99736 -61 0 0 -202.932 4.08834 -4.58276 244.253 -150.494 -339.218 0 0 0 0.5 
460 1 1 1.15521 3.83322 5.59101 -17 0 0 -123.453 -2.10631 15.7274 303.096 -459.695 -2110.36 0 0 0 0.5 
488 1 1 4.91918 2.96422 4.61282 -112 0 1 -183.142 -6.85719 -4.71215 0 0 0 0 0 0 0.5 
989 2 2 0.529141 4.19102 5.9835 69 0 0 -109.273 20.6393 6.66656 -237.566 -1115.97 344.207 0 0 0 0.5 
816 2 2 3.61064 4.58738 4.50247 -7 0 0 -40.1523 1.00311 42.3364 213.53 -392.303 387.718 0 0 0 0.5 
220 1 1 3.08278 3.2904 5.73411 249 1 0 -192.266 -2.66859 3.50011 1821.09 -2455.11 -892.147 0 0 0 0.5 
104 1 1 0.774335 4.55089 5.13488 -2 0 0 -72.715 23.9868 23.6082 3477.76 971.354 3212.08 0 0 0 0.5 
795 2 2 2.77971 3.03881 4.44391 -80 0 0 -208.56 21.2079 -19.7324 -239.23 -1373.1 104.981 0 0 0 0.5 
440 1 1 2.69231 2.1366 4.65293 8 0 0 -292.873 -7.02177 -1.07143 -147.982 1313.07 -196.294 0 0 0 0.5 
262 1 1 4.66427 0.785227 5.17911 -158 0 0 -406.872 13.0674 12.3584 -488.557 2012.34 -375.466 0 0 0 0.5 
406 1 1 0.243158 4.88382 4.75853 -59 0 1 -17.099 2.58816 -16.8741 218.539 -1336.77 -707.749 0 0 0 0.5 
611 2 2 3.34357 3.92328 5.09599 -39 0 0 -69.3193 -14.9508 -2.1831 -1972.18 -1976.79 1200.62 0 0 0 0.5 
56 1 1 0.113617 3.47675 5.12155 -51 0 0 -145.464 5.7736 -4.74698 1213.08 157.539 -748.582 0 0 0 0.5 
229 1 1 3.82561 0.794112 5.55143 -114 0 0 -413.564 1.0282 -19.0425 -1240.87 -1163.41 -1419.83 0 0 0 0.5 
506 2 2 3.85545 3.1289 5.97507 -92 0 0 -194.307 18.2035 -1.16931 843.934 1970.27 -563.618 0 0 0 0.5 
459 1 1 1.11637 4.02386 4.64156 17 0 0 -104.501 5.22002 4.81034 -1550.59 -142.993 44.301 0 0 0 0.5 
464 1 1 2.72058 4.47447 4.8115 23 0 0 -73.5392 -1.50763 6.43296 193.626 1490.56 710.751 0 0 0 0.5 
180 1 1 3.67164 0.941526 4.59331 12 0 0 -400.914 3.20092 2.9563 -124.452 2163.06 610.396 0 0 0 0.5 
550 2 2 3.00011 4.84188 5.63242 52 0 0 -10.0056 3.0236 12.2266 -229.341 -301.439 -673.531 0 0 0 0.5 
971 2 2 4.25293 3.82123 4.70357 53 0 0 -99.2315 4.76931 4.65014 1588.96 -178.316 -685.698 0 0 0 0.5 
702 2 2 4.33244 2.2909 5.74806 179 1 0 -270.511 13.5099 -31.0581 -382.479 -397.001 1745.01 0 0 0 0.5 
390 1 1 4.69385 1.99689 5.01147 102 1 -1 -318.268 -4.57195 -10.8577 1247.78 -961.017 -1243.58 0 0 0 0.5 
917 2 2 4.68662 4.8301 5.89588 37 0 0 39.7878 -14.0426 18.9386 0 0 0 0 0 0 0.5 
267 1 1 4.92931 1.07653 4.29271 -137 0 0 -387.792 4.96631 -7.80079 -3734.41 -404.014 -1727.69 0 0 0 0.5 
105 1 1 1.59076 0.570736 6.0912 129 1 0 -397.26 -16.3546 -0.162633 -1139.59 2777 1796.47 0 0 0 0.5 
904 2 2 1.56204 2.90066 7.93834 120 1 -1 -173.268 -17.0521 15.2051 1998.82 -2043.46 1984.55 0 0 0 0.5 
717 2 2 2.35415 1.19407 7.60177 -83 0 0 -292.268 -13.4763 -3.22251 -634.03 529.778 -262.251 0 0 0 0.5 
403 1 1 1.88151 3.55278 7.07195 -6 0 -1 -128.309 4.07891 4.84518 -3641.22 642.859 484.778 0 0 0 0.5 
394 1 1 2.35435 2.24272 6.03182 137 1 -1 -257.773 -7.14189 -12.0216 -502.679 137.831 161.016 0 0 0 0.5 
485 1 1 1.12795 2.27488 6.06993 -97 0 1 -231.239 -19.5758 5.10353 768.465 471.755 1090.15 0 0 0 0.5 
590 2 2 2.42915 4.01634 7.75136 -17 0 -1 -122.928 6.60502 18.2512 -239.552 795.682 -574.699 0 0 0 0.5 
970 2 2 0.0637192 0.409981 6.10057 192 1 -1 -452.799 3.53565 -2.6969 -304.549 -1496.15 -134.923 0 0 0 0.5 
157 1 1 4.58504 3.83447 7.66085 -53 0 0 -109.705 -9.48449 -1.57417 -626.182 1281.43 -1835.37 0 0 0 0.5 
624 2 2 2.69089 3.49048 7.01258 20 0 -1 -171.608 8.87453 11.0117 2909.69 584.494 -752.237 0 0 0 0.5 
338 1 1 1.34169 0.416032 7.55301 94 1 0 -450.093 -3.01806 -3.21089 1466.57 -1125.04 -2484.39 0 0 0 0.5 
688 2 2 0.508561 1.20211 6.59378 -21 0 1 -357.266 -20.1732 25.0856 -263.4 1091.11 -272.648 0 0 0 0.5 
992 2 2 0.470602 2.77312 7.94235 -132 0 0 -192.883 -7.01571 -9.88422 664.24 87.8797 -1660.47 0 0 0 0.5 
232 1 1 1.75041 2.67914 6.67318 -71 0 1 -231.685 0.373395 25.0542 2683.75 -1671.38 -104.786 0 0 0 0.5 
166 1 1 4.39631 0.769199 6.99546 45 1 -1 -419.789 -2.63067 -5.71831 1498.19 -1708.6 273.08 0 0 0 0.5 
191 1 1 0.694833 0.271145 6.84226 132 1 0 -448.564 -11.0292 -9.39154 482.654 -1947.03 629.514 0 0 0 0.5 
146 1 1 3.37289 4.9555 7.24714 -10 0 0 -40.2525 19.0513 12.9248 1803.66 -1493.44 -1501.47 0 0 0 0.5 
115 1 1 0.217297 1.75316 7.73493 113 1 -1 -353.478 7.09605 -24.2163 3609.74 -1413.9 -357.423 0 0 0 0.5 
283 1 1 1.62821 1.80064 7.3015 -139 0 0 -299.199 15.0177 12.1922 633.267 -535.686 253.014 0 0 0 0.5 
502 2 2 0.0207156 2.70104 7.1104 -128 0 0 -260.713 40.2492 17.388 798.604 -2039.98 1210.11 0 0 0 0.5 
987 2 2 0.0892785 1.88658 6.89545 159 1 0 -337.355 8.85583 6.66799 -969.981 1196.89 -2700.83 0 0 0 0.5 
703 2 2 1.56793 1.33373 6.57142 -138 0 0 -355.937 6.7884 -7.87819 285.785 262.104 474.461 0 0 0 0.5 
241 1 1 0.954788 3.0579 6.52207 272 1 1 -185.718 6.54784 32.9811 -1839.68 430.391 -116.153 0 0 0 0.5 
988 2 2 2.55415 2.66224 7.57906 25 0 0 -212.659 -10.9425 14.0215 12.8826 -22.3259 148.268 0 0 0 0.5 
661 2 2 4.26242 2.30279 7.32273 -60 0 -1 -272.398 0.138227 5.15159 -1322.02 1010.19 774.132 0 0 0 0.5 
748 2 2 3.31472 3.03519 6.92688 181 1 -1 -205.246 3.75788 3.84282 1517.03 -1333.19 137.49 0 0 0 0.5 
938 2 2 1.08169 3.39173 7.46142 21 0 -1 -130.298 -23.5243 25.9754 -2145.65 917.516 -1169.87 0 0 0 0.5 
974 2 2 1.64352 4.16555 6.23705 313 1 0 -87.4449 -6.06703 -3.41765 -1062.72 860.317 126.563 0 0 0 0.5 
431 1 1 3.30269 1.13638 6.24689 -94 0 -1 -355.171 -1.34295 -6.83785 -1086.99 711.464 1445.64 0 0 0 0.5 
31 1 1 4.15831 0.358634 6.20339 139 1 0 -484.462 19.8464 -4.92523 588.235 -2199.17 3044.3 0 0 0 0.5 
281 1 1 1.38839 4.49197 7.94133 -5 0 -1 -69.9179 6.43659 0.37049 2269.25 -1709.32 -1708.92 0 0 0 0.5 
331 1 1 2.5082 4.81309 7.32591 -9 0 -1 -42.3294 7.85718 -3.30339 -235.142 -994.078 -1877.25 0 0 0 0.5 
188 1 1 3.04773 4.24237 6.50745 12 0 0 -99.975 21.6461 13.5603 983.362 -1118.1 1305.45 0 0 0 0.5 
200 1 1 0.847284 4.05641 7.02641 -125 0 0 -76.3094 -7.73525 -5.49129 1010.56 -818.11 -1481.36 0 0 0 0.5 
640 2 2 4.04563 2.63406 6.62395 -115 0 0 -226.15 -2.94559 -16.022 1102.81 -981.666 -114.342 0 0 0 0.5 
582 2 2 0.593601 4.33036 7.81315 -6 0 -1 -95.0206 -19.6484 -15.4148 -246.336 1180.08 1227.23 0 0 0 0.5 
11 1 1 4.2488 4.40012 6.75101 -18 0 -1 -88.2202 10.1738 -6.65138 0 0 0 0 0 0 0.5 
5 1 1 2.39657 4.29133 6.64277 30 0 -1 -110.779 0.196553 7.59352 -491.62 -537.908 49.7742 0 0 0 0.5 
307 1 1 2.87529 2.04193 6.75807 187 1 -1 -257.104 1.95673 1.29837 212.696 -81.9803 296.518 0 0 0 0.5 
787 2 2 3.88918 2.60964 7.97043 -55 0 0 -259.763 16.0692 4.24882 -499.065 854.216 1928.51 0 0 0 0.5 
335 1 1 2.92611 0.550981 6.96579 -82 0 0 -450.689 22.7176 14.5702 -369.409 -119.321 -1177.68 0 0 0 0.5 
646 2 2 0.378008 3.30489 6.02662 -53 0 0 -181.069 0.497308 -0.710785 -12.1608 1172.87 -241.185 0 0 0 0.5 
706 2 2 0.417346 4.63578 6.72459 64 0 0 -82.5043 14.1953 8.56212 -732.967 1977.34 -45.2041 0 0 0 0.5 
694 2 2 3.84563 0.605496 7.70737 -197 0 0 -436.164 8.8995 5.69291 89.3712 885.288 91.4472 0 0 0 0.5 
899 2 2 3.85069 1.37277 7.25238 -126 0 -1 -366.915 25.7084 3.68581 -1316.78 1673.84 492.853 0 0 0 0.5 
163 1 1 4.29303 1.35875 6.33332 154 1 0 -347.079 16.8742 -10.3365 -77.746 443.785 -498.426 0 0 0 0.5 
926 2 2 3.61995 4.10526 6.031 125 1 0 -109.69 19.9504 -19.2207 1629.96 -95.8796 26.0733 0 0 0 0.5 
261 1 1 4.67872 4.72158 7.61581 -12 0 0 -16.782 15.7105 -7.13608 -81.5232 -772.054 39.1978 0 0 0 0.5 
813 2 2 4.89472 1.72384 7.12533 186 1 0 -330.155 11.3689 0.773645 2457.93 -2499.94 -210.767 0 0 0 0.5 
186 1 1 2.55735 3.12525 9.17568 141 1 -1 -162.711 -0.903674 -7.58393 -268.808 967.909 1351.59 0 0 0 0.5 
1000 2 2 0.873339 2.81372 9.66009 -89 0 -1 -208.88 0.488175 -14.7616 -40.6194 7.51917 -62.67 0 0 0 0.5 
353 1 1 1.69024 0.334031 8.37275 107 1 0 -479.518 13.6827 16.4056 -263.265 943.942 -115.701 0 0 0 0.5 
671 2 2 2.13828 3.65072 8.53089 -21 0 0 -148.067 2.67082 1.92554 -939.999 257.741 100.956 0 0 0 0.5 
508 2 2 2.1474 4.70451 9.14247 -255 -1 0 -66.1584 13.7804 -26.8792 1953.77 164.715 1124.45 0 0 0 0.5 
126 1 1 0.759962 0.813477 8.13836 169 1 -1 -397.827 -3.15417 -8.06746 -1467.3 1205.83 1614.93 0 0 0 0.5 
465 1 1 3.87862 2.77385 9.66579 -17 0 0 -207.468 0.483379 0.0607609 496.958 -197.019 -259.203 0 0 0 0.5 
920 2 2 4.57558 0.137235 8.54899 -174 0 0 -485.601 -1.3457 4.99253 1635.77 2098.77 -1073.13 0 0 0 0.5 
199 1 1 0.0218796 0.162868 9.47311 -212 0 -1 -461.67 -13.9504 -12.1831 -1016.48 -342.498 -1606.47 0 0 0 0.5 
252 1 1 0.0104487 1.75036 9.58345 138 1 0 -371.496 10.5811 8.5331 -952.702 -691.353 -68.5501 0 0 0 0.5 
130 1 1 2.54905 1.88629 9.43723 -43 0 -1 -284.044 -19.6746 23.5007 -281.542 -137.862 386.021 0 0 0 0.5 
648 2 2 1.79893 1.10212 8.96148 186 1 0 -431.375 23.0332 22.1759 -561.121 -751.861 -204.891 0 0 0 0.5 
639 2 2 0.567312 1.42185 9.30147 67 1 0 -373.771 10.9684 -9.27011 1793.16 -602.222 -1009.79 0 0 0 0.5 
586 2 2 1.482 3.7497 9.468 210 1 0 -132.458 3.41942 -30.4985 442.855 -83.3362 -206.961 0 0 0 0.5 
383 1 1 1.73206 2.27645 9.11765 -70 0 0 -267.808 8.18618 9.05881 -237.207 113.281 -92.7881 0 0 0 0.5 
42 1 1 4.78431 2.54416 8.37166 -81 0 0 -245.712 5.99156 -1.55127 -378.508 27.6882 -169.663 0 0 0 0.5 
645 2 2 4.52136 1.16517 9.09191 103 1 -1 -326.036 -11.3508 5.57353 3282.64 -1476.09 -974.253 0 0 0 0.5 
796 2 2 4.13694 4.21032 8.42007 18 0 -1 -65.586 -6.69361 -16.5213 -615.15 846.466 1435.41 0 0 0 0.5 
983 2 2 2.63823 2.51653 8.54677 10 0 -1 -221.188 -15.1973 20.3398 174.684 -1389.48 -1606.9 0 0 0 0.5 
425 1 1 0.969799 0.629344 9.22166 -132 0 0 -421.309 -23.4251 19.9915 825.007 -368.457 -220.724 0 0 0 0.5 
467 1 1 0.63393 4.98139 8.36068 272 1 0 -0.375196 5.18797 4.45601 -153.92 444.037 -187.747 0 0 0 0.5 
420 1 1 3.01705 2.93217 9.87036 -1 0 0 -212.241 -9.78002 28.0415 1548.69 -1089.65 -1792.33 0 0 0 0.5 
929 2 2 1.08377 3.68487 8.46576 -18 0 1 -144.587 5.5033 -7.82775 2985.5 -573.313 -228.22 0 0 0 0.5 
912 2 2 1.3443 4.66322 8.89246 13 0 -1 -47.7704 -15.9073 -2.26414 1143.36 -1493.05 -400.45 0 0 0 0.5 
218 1 1 0.135459 3.86697 8.53825 14 0 -1 -97.1493 -15.1075 -26.0389 -2395.21 -2230.66 1394.64 0 0 0 0.5 
581 2 2 0.785303 4.75538 9.33232 -16 0 0 -28.4238 -12.5974 23.266 -137.036 -2611.42 1756.08 0 0 0 0.5 
861 2 2 3.26729 1.80989 8.08703 -42 0 0 -235.167 -22.631 -15.8436 0.392104 1.25398 10.3413 0 0 0 0.5 
291 1 1 3.28815 0.707919 8.30392 -105 0 0 -440.429 7.1885 26.3633 -3084.89 2416.83 -1496.95 0 0 0 0.5 
737 2 2 4.78746 2.08235 9.49659 -52 0 0 -297.914 -5.60184 -14.5694 -332.709 -85.8554 1080.29 0 0 0 0.5 
40 1 1 4.27527 1.59927 8.24385 -30 0 0 -326.728 14.6117 4.07109 -1397.76 2812.12 1062.6 0 0 0 0.5 
233 1 1 3.30233 1.92198 9.01142 -100 0 0 -285.009 9.54583 -4.59539 -1212.25 1306.67 -799.427 0 0 0 0.5 
890 2 2 3.98002 3.18522 8.76918 -33 0 -1 -194.362 12.5078 7.5403 -11.5574 -97.9755 -293.051 0 0 0 0.5 
121 1 1 0.345729 2.91138 8.84606 201 1 -1 -200.867 -7.28839 -28.1753 -185.88 243.263 1701.84 0 0 0 0.5 
608 2 2 0.553348 3.86635 9.3952 -43 0 0 -133.351 -9.66221 9.03455 468.538 403.887 -1645.89 0 0 0 0.5 
366 1 1 3.87449 4.20712 9.29584 -10 0 0 -71.5637 -4.30213 -7.01589 -657.405 530.556 -901.099 0 0 0 0.5 
41 1 1 3.9151 1.46758 9.18699 -159 0 -1 -308.41 -10.1249 23.0877 -1679.54 417.668 1030.71 0 0 0 0.5 
392 1 1 3.04719 4.55066 9.60639 -15 0 -1 -81.0817 7.67186 -11.9545 3418.16 -359.521 -1804.63 0 0 0 0.5 
86 1 1 2.83147 4.70863 8.5275 -32 0 1 -61.6683 15.5791 -17.6333 707.182 4.25927 -635.746 0 0 0 0.5 
708 2 2 3.78403 0.393464 8.83338 -129 0 0 -452.585 17.1561 9.86863 -1664.35 -176.523 -829.893 0 0 0 0.5 
293 1 1 3.85259 0.513604 9.69173 -131 0 0 -440.754 17.749 -14.1175 -1893.33 28.9521 1171.63 0 0 0 0.5 
533 2 2 4.62925 0.894451 8.09922 254 1 -1 -412.419 5.88996 -10.1469 192.719 -2641.85 -443.517 0 0 0 0.5 
111 1 1 1.65996 9.20391 1.40323 120 0 0 468.425 -2.20432 -10.8724 -2058.34 -3588.67 -305.068 0 0 0 0.5 
670 2 2 3.12777 9.47298 0.440709 -66 -1 1 498.626 -11.4682 16.051 -777.935 -75.9909 1136.56 0 0 0 0.5 
727 2 2 0.250136 8.08163 1.19613 -20 0 1 299.379 19.5868 9.88008 -1303.92 -1939.6 -1449.01 0 0 0 0.5 
638 2 2 1.38903 9.42953 0.544354 53 0 -1 475.475 7.02795 -6.99999 -498.427 869.191 246.974 0 0 0 0.5 
430 1 1 4.26463 5.26808 0.319833 -17 0 1 54.2206 0.126964 9.11126 444.29 -2832.5 317.58 0 0 0 0.5 
273 1 1 3.50597 8.51122 0.356668 -168 -1 2 388.304 -15.6133 3.89748 -4777.54 2403.39 368.366 0 0 0 0.5 
723 2 2 3.07361 7.2582 1.45241 100 0 0 232.657 -6.29873 12.6978 311.124 730.706 -2654.83 0 0 0 0.5 
633 2 2 0.821182 9.28807 1.30674 -144 -1 1 458.319 -18.0693 -12.5383 -2386.88 5846.32 -384.427 0 0 0 0.5 
325 1 1 0.0510985 8.67045 0.602708 112 0 -1 374.839 36.2918 -1.22939 -332.628 2316.34 -234.616 0 0 0 0.5 
909 2 2 3.27986 9.20923 1.89001 -77 -1 1 442.963 9.9598 8.35692 -1557.62 -705.319 30.9201 0 0 0 0.5 
176 1 1 4.15976 6.42801 1.80778 66 0 1 179.453 -1.74958 -8.0132 -2902.26 1201.35 -798.282 0 0 0 0.5 
414 1 1 0.512742 8.05748 0.262288 124 0 0 323.1 9.9374 7.25237 122.716 -1024.83 -284.79 0 0 0 0.5 
426 1 1 4.46128 8.7999 1.34864 105 0 -1 387.869 38.1301 -11.3558 -116.221 96.2319 -2315.56 0 0 0 0.5 
946 2 2 4.36743 8.75108 0.258473 78 0 0 397.855 11.7806 4.62782 384.633 -1606.71 890.166 0 0 0 0.5 
3 1 1 2.046 5.1909 1.79352 54 0 0 44.1637 -3.94505 7.72537 -146.119 104.979 -426.725 0 0 0 0.5 
564 2 2 4.59863 5.24358 1.40482 19 0 0 40.061 -16.2963 -17.8709 -340.344 -1220.51 1203.12 0 0 0 0.5 
212 1 1 3.20779 8.5077 1.27737 182 0 0 398.123 -8.83007 15.5137 1740.5 -2071.88 -544.819 0 0 0 0.5 
387 1 1 3.22078 7.7938 0.764609 -173 -1 0 311.619 -26.4422 -4.32676 -2376.42 2171.11 -639.706 0 0 0 0.5 
548 2 2 3.81787 9.72998 1.11876 -110 -1 1 517.971 -13.2402 12.5816 615.384 982.274 2171.87 0 0 0 0.5 
986 2 2 3.85212 5.92033 0.0844964 57 0 1 81.8165 17.1668 -6.30201 467.901 -963.446 -2685.46 0 0 0 0.5 
801 2 2 0.765049 7.43058 1.72537 -223 -1 -1 247.207 -5.19723 -11.4045 1186.71 -1696.03 840.689 0 0 0 0.5 
274 1 1 1.87657 7.0186 0.680611 -179 -1 -1 184.82 -15.9448 23.0218 -1201.73 1327.04 -191.135 0 0 0 0.5 
449 1 1 1.74372 7.851 1.51377 13 0 0 272.167 7.02795 -18.8894 1461.58 -1507.43 73.7894 0 0 0 0.5 
194 1 1 0.620692 5.74863 0.676958 -228 -1 0 85.5485 -0.956174 -0.992869 -275.536 -1175.55 -1021.89 0 0 0 0.5 
419 1 1 0.182284 9.26814 1.99596 106 0 0 437.415 7.84194 -13.4938 2756.38 -2448.59 493.164 0 0 0 0.5 
127 1 1 1.14359 8.3765 1.40184 -118 -1 1 299.058 18.9957 -6.71202 2673.49 550.041 -667.831 0 0 0 0.5 
503 2 2 2.20443 8.65408 0.583499 -8 0 0 407.091 1.74253 -1.57095 741.84 -1486.26 120.421 0 0 0 0.5 
953 2 2 2.17824 5.98741 1.79368 87 0 0 120.851 2.70612 -3.80734 67.0474 -144.912 -152.033 0 0 0 0.5 
323 1 1 0.701551 5.35541 1.69924 -222 -1 0 78.6823 -4.88998 19.7471 -1313.61 4642.63 -1318.69 0 0 0 0.5 
800 2 2 3.43971 6.50544 0.618621 265 1 0 150.244 5.56778 9.10588 -1229.99 1745.07 1593 0 0 0 0.5 
832 2 2 1.9255 7.79673 0.494777 -7 0 0 302.055 2.44528 -5.22192 2789.18 -2535.58 -249.216 0 0 0 0.5 
84 1 1 -0.0256998 5.63426 0.269132 115 0 1 95.7494 -7.83885 -1.91059 -1986.54 829.132 -2226.24 0 0 0 0.5 
73 1 1 2.59569 9.22685 1.41741 25 -1 0 462.198 -1.47212 -26.6739 -1491.23 577.463 -854.778 0 0 0 0.5 
942 2 2 1.36043 8.5907 0.567113 36 0 0 399.579 -23.1533 -18.56 -3621.14 3518.99 516.993 0 0 0 0.5 
279 1 1 0.19611 6.89879 0.0457478 361 1 0 200.825 -6.03442 2.68839 59.677 3344.27 985.21 0 0 0 0.5 
994 2 2 0.578243 6.61176 0.942865 72 0 0 196.7 -21.7626 -3.5506 -569.096 1081.51 -1323.96 0 0 0 0.5 
100 1 1 4.23779 5.9469 1.03555 -14 0 0 123.012 -4.21469 -2.94192 -2168.52 1974.59 -1254.33 0 0 0 0.5 
561 2 2 0.338924 7.38477 0.854038 66 0 0 247.935 -6.90265 -4.93898 94.9052 1288.02 1512.21 0 0 0 0.5 
563 2 2 2.40785 6.34673 0.923871 31 0 1 154.93 -19.3473 4.45677 1507.37 -1256.93 -155.747 0 0 0 0.5 
34 1 1 1.04501 7.10782 0.239105 153 0 1 198.043 21.8391 2.67003 1067.69 -3280.72 -2375.61 0 0 0 0.5 
883 2 2 1.96595 5.4224 0.892418 1 0 0 77.5782 20.8024 13.3836 1622.18 -1166.2 -1458.17 0 0 0 0.5 
569 2 2 2.2781 9.49305 0.417459 198 0 0 486.514 4.09351 -7.5592 -303.308 919.24 -255.386 0 0 0 0.5 
689 2 2 4.2754 9.52355 0.41011 -109 -1 1 460.771 -1.00243 -7.70671 -836.533 3074.95 -1952.2 0 0 0 0.5 
846 2 2 1.29162 5.62584 0.857423 -48 0 1 65.8798 10.8514 14.0766 1242.92 58.1385 856.837 0 0 0 0.5 
344 1 1 1.42115 6.51157 1.38792 72 0 0 156.917 -0.123274 19.0217 1574.34 -233.019 908.75 0 0 0 0.5 
192 1 1 0.323538 6.5071 1.83714 25 0 1 179.813 -6.19951 -10.7588 443.835 -244.231 38.698 0 0 0 0.5 
296 1 1 2.62948 7.03962 0.277329 52 0 -1 203.935 -13.5421 14.608 173.123 766.893 147.152 0 0 0 0.5 
63 1 1 3.90108 8.86118 1.92522 82 0 0 409.289 3.92309 23.2159 -924.412 255.026 1373.23 0 0 0 0.5 
407 1 1 4.06263 7.30292 0.943931 30 0 0 241.605 -23.1245 10.7056 2768.54 -1173.96 541.914 0 0 0 0.5 
545 2 2 4.20225 8.15056 0.872801 112 0 -1 317.522 -0.911759 10.5963 3091.23 -1254.08 1484.31 0 0 0 0.5 
388 1 1 4.90193 8.17948 0.179042 -163 -1 1 319.748 -4.39326 -6.65166 1151.28 -2612.47 -472.421 0 0 0 0.5 
300 1 1 3.17288 8.60104 3.79639 99 0 -1 343.393 8.37275 -18.813 4331.72 -165.876 2436.58 0 0 0 0.5 
145 1 1 4.25234 8.41147 3.32137 147 0 0 400.485 -45.3717 15.8353 -3134.48 4489.28 1917.44 0 0 0 0.5 
517 2 2 4.37735 6.39298 3.02637 -13 0 0 144.593 27.1694 -2.1993 -571.931 2670.44 1336.97 0 0 0 0.5 
562 2 2 4.03917 6.1523 3.90583 124 0 1 123.453 8.65875 -14.958 -550.133 -1501.14 1875.22 0 0 0 0.5 