# vtk DataFile Version 4.2
Generated by LIGGGHTS
ASCII
DATASET POLYDATA
POINTS 1000 float
3.70277 4.67158 1.70392 0.663214 0.40617 1.15442 0.0580825 2.16919 0.0893862 
0.832592 0.883222 1.97982 2.44857 0.0235416 1.37439 1.97192 0.487882 0.865062 
3.45256 0.263858 0.644848 2.22085 1.28849 0.188086 0.102947 1.73589 1.35403 
2.30951 1.86083 1.8432 4.74801 1.90218 1.94535 1.76645 1.31619 0.888276 
0.86433 1.30048 0.871831 2.12128 0.492794 0.0179582 0.993204 2.72855 0.847959 
1.77972 2.13581 1.23703 1.17997 2.55683 1.85592 0.916239 0.569602 0.205111 
2.54951 1.28444 1.14981 4.14788 4.4006 1.04675 1.749 0.88302 1.68003 
1.36701 3.46728 0.100621 4.66367 4.2002 1.45897 2.26012 4.29671 1.50995 
2.21578 2.86719 1.62044 4.53883 2.75774 1.74091 1.58342 2.09055 0.395551 
2.2701 2.96897 0.28175 2.07186 3.66276 0.753696 3.26579 0.341259 1.49622 
3.13065 1.4662 0.548596 1.16472 4.82763 0.305555 4.64025 2.08229 0.308253 
4.14491 0.305733 1.88364 0.796328 3.70642 0.821882 3.526 4.14469 0.393238 
0.517143 4.55603 1.23655 4.32798 2.08966 1.15368 3.17237 2.73745 1.86619 
4.13319 3.44266 1.8317 4.73326 4.02706 0.473056 3.67302 3.08008 0.00436727 
0.610091 3.23064 1.72779 2.66083 3.68823 1.98464 2.5499 2.64281 0.786489 
2.89542 1.22731 1.92676 3.01754 3.61491 1.08429 2.76206 4.75801 0.502254 
3.13389 2.23243 0.835834 3.47562 2.04662 1.58581 3.48013 1.24418 1.23135 
2.83912 0.73375 0.0643081 3.63866 1.05659 0.305283 1.17575 4.35579 1.93472 
4.01353 3.15602 0.939998 4.95695 0.159314 0.232558 4.967 2.98528 1.00327 
1.61508 1.66809 3.20948 2.312 0.493391 2.17339 1.52075 3.41662 2.34971 
0.707947 1.22184 3.29721 0.317239 2.01767 3.49867 4.50641 3.77016 2.56777 
4.35876 4.97229 3.47255 3.791 1.7989 2.74141 1.22577 3.09322 3.29044 
3.87644 1.63805 2.03033 3.90324 0.637791 2.99108 3.67119 0.855354 2.07863 
2.35647 0.716382 2.96859 3.25137 3.38674 2.88356 2.39275 3.17105 2.65979 
1.06035 0.119182 2.22764 1.10502 1.77607 2.25562 2.1795 2.36774 2.67548 
2.03306 0.4853 3.71389 2.56435 4.80089 3.03431 2.25293 3.91133 3.01107 
2.59025 1.62505 2.72885 1.50355 0.765892 2.93423 1.31688 2.34791 3.46075 
4.76601 0.35861 3.1932 3.94807 4.076 2.41838 1.85564 4.36566 2.26448 
1.49314 3.95266 3.58107 2.75404 1.3953 3.57086 2.68366 3.46528 3.578 
3.23854 2.5266 2.67479 1.90166 4.82029 3.04064 3.30083 4.21689 2.58408 
0.437135 3.32166 2.88564 3.92169 2.05474 3.97154 3.01088 4.2691 3.50364 
0.277908 3.71418 3.66257 4.28994 2.77218 2.67151 3.04686 0.536843 3.60196 
3.57311 3.58846 3.71322 0.808892 4.28639 2.90139 3.12382 0.815294 2.70644 
3.7743 2.8323 3.95119 4.52554 0.940377 3.80437 0.120144 2.79259 3.80364 
3.36794 4.86899 3.97422 3.41931 2.18586 3.35677 2.9968 2.67137 3.76196 
0.543162 4.59216 3.86195 4.92175 1.42215 2.71024 4.91238 0.368613 2.0404 
4.92763 3.49095 3.12523 4.91507 4.40779 3.20739 1.87752 3.07906 4.62264 
2.57324 1.07028 5.37678 2.52019 3.96323 4.42163 0.850273 1.17986 4.24898 
1.11801 0.681943 4.73735 2.35924 2.81711 4.12654 3.98564 2.3292 4.88282 
4.8823 2.81956 5.0037 2.07595 2.4602 4.9697 2.39018 2.03132 4.18205 
1.58827 1.49179 5.05266 0.411616 3.345 4.46355 2.76597 4.32771 5.39221 
3.88624 1.0536 5.07903 1.20633 0.210238 5.35981 1.90973 3.56555 5.39119 
4.90842 2.86887 5.89463 0.424481 2.58742 4.93292 0.674464 1.63153 5.64985 
4.37442 3.35018 5.17101 0.443256 0.678268 5.94732 1.18918 3.23367 4.18453 
0.97722 2.54554 5.72075 0.707315 1.90485 4.64356 0.691905 0.0299227 4.07355 
1.00795 3.30069 5.21722 2.44818 0.131397 4.34503 1.4632 1.89797 5.95778 
2.48493 1.97887 5.23942 3.51072 2.95939 4.73371 2.15043 4.69707 4.2673 
3.9518 2.83671 5.99377 3.27413 0.0865896 5.13737 3.57538 4.08068 5.52887 
0.473296 3.97023 4.90013 4.57677 4.88768 5.48908 3.177 2.05583 5.88853 
2.74993 2.60762 5.90029 0.157015 4.07307 5.5325 3.35531 1.57961 4.7174 
4.66233 0.0383182 4.08478 3.43242 1.34129 5.83432 3.8363 3.9026 4.58441 
3.19168 0.694652 4.49224 1.45762 0.0568195 4.44469 0.0944313 4.60008 4.79941 
0.235828 4.8427 5.80766 1.1628 4.33838 4.23536 1.2382 4.53627 5.6085 
3.71761 3.34202 5.54045 0.508696 3.53218 5.9227 2.78152 1.65441 4.44641 
4.5093 3.20171 4.24205 4.71501 0.55994 5.42795 4.72082 1.84828 5.06709 
1.77414 1.29702 4.00711 4.83368 4.02668 4.64808 4.84799 4.3756 5.39644 
0.438753 0.321037 7.46689 2.15723 3.18815 6.751 3.83294 1.93043 7.49289 
2.03501 1.02784 7.80124 3.8123 3.69853 7.46525 1.92328 1.34684 6.01138 
2.05118 0.266581 6.39586 4.62578 3.85758 7.48204 3.02908 3.13328 6.70749 
2.55959 2.76092 7.54138 1.26204 3.24654 6.18953 3.89414 4.51522 6.819 
3.93146 1.29139 6.58165 0.650674 1.13214 7.95919 4.79538 4.14696 6.09124 
1.55389 0.875835 6.67504 0.165668 1.46926 7.21832 4.77395 1.94855 6.08824 
4.35179 3.50398 6.65619 1.17507 2.81392 7.30973 0.962269 1.21247 7.17033 
2.10624 0.396032 7.31721 2.39824 4.51244 6.92338 3.93742 0.645485 7.31931 
0.635596 4.41795 6.33783 0.619028 3.13884 6.68413 1.40932 4.13983 6.40438 
2.98174 1.97686 7.75582 2.54254 4.52649 7.92928 3.89827 3.83162 6.2838 
3.28849 1.73234 6.74645 3.06049 2.3153 6.86805 3.71406 2.69853 7.69038 
4.13151 1.43677 7.35659 4.64458 0.827158 7.54936 4.62632 0.219595 6.99178 
1.27471 4.48867 7.97243 3.17549 4.30693 7.13087 4.08236 2.69051 6.85592 
2.78632 0.185634 7.02379 1.24598 3.7489 7.55017 2.47777 1.1451 6.87136 
0.414178 3.85912 7.0306 3.95957 0.539287 6.07047 4.76329 2.29432 7.64792 
4.96569 1.09721 6.47962 4.96895 2.64352 6.77591 4.95224 4.70715 7.33666 
3.4403 4.76886 6.00007 2.49029 0.142641 9.25097 1.47091 1.55645 9.64506 
1.63071 1.2367 8.43838 4.8639 0.339036 9.0687 0.518591 1.13007 9.77136 
4.27448 4.85759 9.37051 2.95735 1.82478 8.81866 0.844901 1.9998 9.8469 
1.85155 2.84416 9.56211 0.849009 2.8164 9.57446 1.78435 0.828042 9.31242 
2.92355 2.64596 9.63899 3.79099 0.97843 8.19528 4.54464 1.43 8.13621 
1.22728 2.07306 9.03362 1.49514 0.20885 8.60099 1.57622 3.69629 9.21618 
1.08226 2.76467 8.74323 3.56015 0.621558 9.03921 2.45003 2.69185 8.93497 
0.978455 1.07992 8.89226 2.27885 0.560893 8.57131 0.101749 1.21627 8.57191 
1.72997 3.7396 8.32846 2.74024 1.982 9.96661 1.75422 2.81561 8.02717 
0.710964 3.8902 8.82979 2.77326 3.70118 9.43892 3.61901 4.82557 8.52691 
3.91462 4.04982 8.35909 3.93964 3.571 9.08089 4.57659 2.26199 9.27465 
4.75746 4.78637 8.505 0.102506 4.79457 9.65104 3.17532 2.78511 8.36469 
3.78127 1.76275 8.96973 3.07924 0.0372738 8.46502 3.79832 2.66362 9.04833 
4.79356 1.57171 9.69303 0.514543 4.05419 9.8192 2.79277 4.40468 8.84445 
2.87878 3.6827 8.23186 2.78404 1.06292 9.25326 3.50906 1.50089 8.16309 
3.35482 4.61482 9.62768 3.51031 1.97383 9.87797 3.89754 1.33828 9.57671 
4.20892 3.26098 8.28083 4.25096 0.591523 9.73524 4.32519 0.625673 8.61635 
4.32619 2.10986 8.38492 4.28512 4.08719 9.81407 4.45635 2.7788 9.87888 
4.91719 3.54188 9.49973 1.74282 9.29685 1.03615 4.83596 6.57291 1.31081 
0.768414 8.32729 0.388332 2.43401 8.37737 0.0594516 2.14949 9.78894 0.378978 
4.32147 9.16907 1.92097 4.73557 9.9221 1.43543 2.60098 7.99463 1.76494 
2.87189 6.59749 0.521435 2.48068 6.31368 1.45189 3.23992 7.73894 1.00036 
4.22866 7.82306 1.89644 1.3662 6.71424 0.55838 0.989949 8.84702 1.744 
4.24312 8.61942 1.20796 3.36949 6.06609 1.5439 0.03684 8.80484 1.69802 
1.01888 5.75929 0.65194 -0.0198316 9.6247 1.77047 0.564338 9.18436 0.828547 
2.91184 9.43683 1.50446 3.50991 8.97857 1.65297 4.09692 7.79282 0.588674 
2.32139 7.76809 0.866738 3.33848 8.63616 0.755814 1.55772 9.89775 1.60819 
3.52419 9.49891 0.812365 1.64185 7.53119 1.85024 1.45423 8.49878 1.10429 
2.57197 5.23707 1.59704 1.99197 9.11178 1.87352 2.30658 8.57028 1.34899 
1.66117 8.10823 0.538096 4.85958 7.51529 1.55185 1.51377 5.2386 1.27443 
0.0200146 5.3422 1.04239 4.18661 6.2516 0.741974 0.804108 5.85555 1.51583 
2.70408 9.19142 0.472404 1.05807 6.7704 1.43953 1.90759 7.08612 0.210815 
1.74218 5.89085 0.00952689 4.69432 7.19353 0.478574 4.23034 9.75737 0.597288 
2.14633 6.97653 1.05364 1.98332 5.59054 1.84099 3.89997 6.99627 1.30361 
4.02946 8.54646 0.29076 4.08014 5.5844 0.118406 4.93445 5.54821 0.0489899 
4.90112 5.40454 1.21798 4.05154 7.89384 3.74339 0.0558558 7.71211 3.13499 
2.07285 9.76498 2.4102 2.54582 5.63246 2.51216 1.24941 5.00216 3.46358 
3.19911 8.13536 2.51623 3.7541 5.42482 2.91912 1.48357 6.55188 2.19896 
4.5181 9.44193 2.74412 3.15415 5.03368 2.30691 0.449262 8.27379 2.36548 
2.61055 8.66425 2.89033 4.43224 8.61098 2.32053 3.43576 9.29691 3.29804 
4.47313 6.22775 2.70422 3.92111 8.02711 2.92227 3.88341 5.78469 3.7268 
3.07227 7.95654 3.75198 1.1796 9.76567 2.94867 1.39943 7.12483 3.89985 
2.91199 6.83275 2.31742 3.07562 6.32789 2.99219 0.687604 8.52787 3.29951 
3.89502 9.84805 2.66166 3.58156 9.98637 3.55514 0.989597 5.77931 3.83996 
2.11122 6.70545 3.1218 1.15991 7.84433 3.718 0.503202 6.49729 2.38055 
4.47428 8.85366 3.57846 1.83387 7.50575 2.94582 0.801641 5.14483 2.14412 
1.7413 5.6166 2.74948 1.28392 6.63798 3.15591 0.0445365 5.83204 2.95256 
1.84255 9.22572 3.12656 0.923473 5.79664 2.88566 1.75085 8.3388 3.15485 
2.00742 8.30186 2.25888 2.09414 5.77405 3.82191 3.82991 7.15067 3.07403 
0.108297 6.23759 3.67434 0.638583 7.08365 3.18452 3.0303 5.85891 3.65968 
3.49502 8.67723 3.39648 3.79178 6.6128 2.28954 4.82652 8.25352 3.01528 
2.35893 7.27633 2.00238 4.91122 7.10063 3.84617 4.93486 6.18725 3.52233 
1.66382 9.38859 5.00855 0.389508 7.942 4.06401 0.305072 7.97303 5.0928 
3.86593 8.18525 4.52817 0.876111 8.68387 4.23304 2.93078 8.63935 4.27941 
2.97014 6.41387 5.60425 0.411076 9.37457 5.87422 3.41682 5.62683 5.75874 
-0.0383086 8.55124 5.53874 3.866 9.69591 5.1734 4.18195 6.83106 5.08433 
3.36724 9.73846 5.99068 0.202102 9.88618 5.13933 3.93658 8.58813 5.41095 
2.76712 5.23913 5.11475 3.25453 5.42817 4.39418 1.33121 9.59907 5.88337 
1.07219 9.37846 4.2244 2.58551 9.22424 4.96844 0.754909 9.14017 5.16245 
3.14605 8.5978 5.20687 3.44794 7.332 5.27996 2.51625 7.51287 5.43933 
2.327 9.11907 4.03668 1.70088 6.33511 4.79453 4.59949 7.98731 5.27013 
1.21981 6.36508 5.43375 1.32774 7.72393 4.64973 3.82178 8.98199 4.44391 
[...]
POINT_DATA 1000
FIELD FieldData 7
id 1 1000 int
725 773 582 96 923 227 901 717 935 
480 809 762 530 199 424 214 186 533 
875 881 389 408 243 947 579 159 130 
835 890 548 614 592 853 916 541 812 
924 400 486 641 333 327 510 803 586 
483 828 374 35 421 181 577 603 792 
38 252 18 769 47 902 488 691 527 
772 745 288 722 20 329 73 39 770 
536 25 428 137 103 766 204 111 354 
975 860 370 826 967 188 416 871 600 
939 196 666 511 785 557 98 819 67 
653 821 921 699 619 952 292 549 542 
7 254 346 269 104 217 22 78 440 
56 492 345 970 795 922 17 747 478 
568 352 948 513 662 95 625 258 781 
12 24 992 748 741 154 660 807 913 
667 377 402 780 441 101 1 399 593 
10 877 206 903 971 989 64 284 308 
75 120 506 930 895 974 191 646 658 
502 734 629 718 468 926 827 375 651 
829 393 257 193 163 688 200 74 61 
811 119 287 459 232 539 910 201 880 
813 743 661 640 229 253 810 635 169 
708 912 283 609 509 590 247 703 951 
415 425 233 42 969 4 685 740 285 
121 787 487 80 694 291 761 126 868 
465 565 671 173 338 656 929 857 403 
331 420 508 972 999 598 305 261 321 
904 689 157 358 392 91 796 65 180 
889 290 41 940 759 645 260 944 941 
1000 946 840 387 545 569 482 419 176 
587 3 334 357 144 859 942 442 212 
369 259 822 736 27 84 607 962 418 
594 476 832 430 692 867 996 605 976 
760 616 209 977 668 14 522 993 960 
801 409 381 537 716 323 301 127 884 
825 455 21 518 847 779 469 990 494 
507 576 700 520 849 915 897 615 564 
997 628 133 876 767 917 382 505 561 
444 451 846 955 735 677 263 517 183 
76 88 994 892 351 834 131 808 312 
195 234 739 55 682 473 963 143 919 
336 168 567 980 378 562 44 207 466 
406 831 726 197 601 337 68 489 669 
657 704 156 560 712 680 174 289 356 
866 636 221 893 384 791 715 452 245 
504 256 820 112 943 818 528 359 320 
363 150 109 546 631 850 151 99 639 
355 134 888 543 499 353 475 771 998 
836 474 937 166 315 981 991 135 681 
6 349 790 164 360 512 604 184 448 
525 46 463 730 45 788 71 515 927 
538 429 50 686 471 938 949 89 479 
304 824 964 303 873 642 423 496 279 
32 237 116 272 54 470 87 295 152 
599 372 330 556 266 85 398 954 373 
920 365 128 986 484 223 268 239 97 
194 705 175 368 854 108 198 69 914 
679 8 236 906 388 366 319 869 697 
852 588 984 654 674 966 147 908 231 
138 670 165 995 322 450 765 413 280 
192 162 277 472 690 110 833 842 265 
410 526 856 750 864 891 149 62 427 
445 341 597 458 437 581 633 446 794 
933 778 117 146 264 267 433 439 918 
729 82 83 783 896 361 675 566 647 
9 332 731 786 584 851 894 844 190 
153 79 950 350 216 886 905 612 271 
816 278 898 23 454 339 282 555 501 
182 213 815 461 638 105 43 932 798 
395 514 516 544 744 367 531 438 845 
823 746 167 885 611 203 724 664 394 
652 523 872 434 219 742 456 13 460 
529 5 838 262 988 493 495 220 211 
172 189 572 606 464 16 575 524 390 
961 343 251 982 228 485 293 626 31 
431 983 580 521 102 249 33 86 987 
348 224 805 862 968 313 899 241 92 
447 58 620 294 613 650 383 328 11 
281 624 132 585 956 187 142 246 754 
861 702 222 270 93 863 806 804 721 
318 307 559 311 208 618 637 573 887 
768 51 106 314 40 623 467 621 364 
711 2 148 139 401 870 737 155 316 
957 115 591 242 205 218 843 310 648 
608 443 118 123 775 90 37 934 693 
171 727 385 595 26 758 405 503 347 
755 386 738 958 49 325 238 497 100 
273 244 800 978 841 802 63 296 250 
985 655 634 858 235 571 457 784 411 
29 248 407 145 449 911 275 19 161 
698 185 404 837 751 414 879 94 909 
300 707 659 799 578 596 602 797 644 
547 945 710 757 574 953 570 391 839 
179 713 380 627 340 883 342 663 907 
931 782 302 855 732 583 706 789 309 
720 53 865 158 900 684 114 107 553 
763 397 714 558 709 426 925 324 160 
610 814 752 376 477 550 436 113 882 
498 215 255 622 959 617 81 630 756 
673 490 874 632 226 59 683 777 34 
122 687 965 30 491 72 276 422 299 
70 177 665 695 317 733 979 589 36 
774 676 672 52 57 379 297 830 500 
136 362 28 643 540 432 453 124 753 
286 552 335 60 140 435 141 723 848 
48 696 728 481 878 532 749 210 225 
719 170 178 129 240 554 519 551 417 
66 701 776 202 793 764 125 412 973 
678 326 534 928 344 396 274 649 15 
306 535 371 230 298 817 936 77 563 
462 
type 1 1000 int
2 2 2 1 2 1 2 2 2 
1 2 2 2 1 1 1 1 2 
2 2 1 1 1 2 2 1 1 
2 2 2 2 2 2 2 2 2 
2 1 1 2 1 1 2 2 2 
1 2 1 1 1 1 2 2 2 
1 1 1 2 1 2 1 2 2 
2 2 1 2 1 1 1 1 2 
2 1 1 1 1 2 1 1 1 
2 2 1 2 2 1 1 2 2 
2 1 2 2 2 2 1 2 1 
2 2 2 2 2 2 1 2 2 
1 1 1 1 1 1 1 1 1 
1 1 1 2 2 2 1 2 1 
2 1 2 2 2 1 2 1 2 
1 1 2 2 2 1 2 2 2 
2 1 1 2 1 1 1 1 2 
1 2 1 2 2 2 1 1 1 
1 1 2 2 2 2 1 2 2 
2 2 2 2 1 2 2 1 2 
2 1 1 1 1 2 1 1 1 
2 1 1 1 1 2 2 1 2 
2 2 2 2 1 1 2 2 1 
2 2 1 2 2 2 1 2 2 
1 1 1 1 2 1 2 2 1 
1 2 1 1 2 1 2 1 2 
1 2 2 1 1 2 2 2 1 
1 1 2 2 2 2 1 1 1 
2 2 1 1 1 1 2 1 1 
2 1 1 2 2 2 1 2 2 
2 2 2 1 2 2 1 1 1 
2 1 1 1 1 2 2 1 1 
1 1 2 2 1 1 2 2 1 
2 1 2 1 2 2 2 2 2 
2 2 1 2 2 1 2 2 2 
2 1 1 2 2 1 1 1 2 
2 1 1 2 2 2 1 2 1 
2 2 2 2 2 2 2 2 2 
2 2 1 2 2 2 1 2 2 
1 1 2 2 2 2 1 2 1 
1 1 2 2 1 2 1 2 1 
1 1 2 1 2 1 2 1 2 
1 1 2 2 1 2 1 1 1 
1 2 2 1 2 1 1 1 2 
2 2 1 2 2 2 1 1 1 
2 2 1 2 1 2 2 1 1 
2 1 2 1 2 2 2 1 1 
1 1 1 2 2 2 1 1 2 
1 1 2 2 1 1 1 2 2 
2 1 2 1 1 2 2 1 2 
1 1 2 1 1 2 2 1 1 
2 1 1 2 1 2 1 2 2 
2 1 1 2 1 2 2 1 1 
1 2 2 1 2 2 1 1 1 
1 1 1 1 1 1 1 1 1 
2 1 1 2 1 1 1 2 1 
2 1 1 2 1 1 1 1 1 
1 2 1 1 2 1 1 1 2 
2 1 1 2 1 1 1 2 2 
2 2 2 2 2 2 1 2 1 
1 2 1 2 1 1 2 1 1 
1 1 1 1 2 1 2 2 1 
1 2 2 2 2 2 1 1 1 
1 1 2 1 1 2 2 1 2 
2 2 1 1 1 1 1 1 2 
2 1 1 2 2 1 2 2 2 
1 1 2 2 2 2 2 2 1 
1 1 2 1 1 2 2 2 1 
2 1 2 1 1 1 1 2 2 
1 1 2 1 2 1 1 2 2 
1 2 2 2 2 1 2 1 2 
2 2 1 2 2 1 2 2 1 
2 2 2 1 1 2 1 1 1 
2 1 2 1 2 1 1 1 1 
1 1 2 2 1 1 2 2 1 
2 1 1 2 1 1 1 2 1 
1 2 2 2 1 1 1 1 2 
1 1 2 2 2 1 2 1 1 
1 1 2 1 2 2 1 1 1 
1 2 1 2 2 1 1 1 2 
2 2 1 1 1 2 2 2 2 
1 1 2 1 1 2 2 2 2 
2 1 1 1 1 2 1 2 1 
2 1 1 1 1 2 2 1 1 
2 1 2 1 1 1 2 1 2 
2 1 1 1 2 1 1 2 2 
1 2 1 2 1 2 1 2 1 
2 1 2 2 1 1 1 1 1 
1 1 2 2 2 2 1 1 1 
2 2 2 2 1 2 1 2 1 
1 1 1 1 1 2 1 1 1 
2 1 1 2 2 1 2 1 2 
1 2 2 2 2 2 2 2 2 
2 2 2 2 2 2 2 1 2 
1 2 1 2 1 2 1 2 2 
2 2 1 2 2 2 2 2 1 
2 1 2 1 2 2 1 1 2 
2 1 2 2 2 1 2 1 1 
2 2 2 1 1 2 1 1 2 
1 1 1 2 2 2 1 2 2 
2 1 2 2 1 1 2 2 1 
1 2 2 1 1 1 1 1 1 
1 1 2 2 1 2 2 2 1 
2 2 2 1 1 1 1 2 1 
1 1 1 2 2 1 1 1 2 
1 2 1 1 1 1 1 2 2 
1 2 2 1 2 2 2 1 1 
2 1 1 1 1 2 2 2 1 
1 2 2 1 2 2 1 1 2 
2 1 2 2 1 1 1 2 1 
1 2 1 1 1 2 2 1 2 
1 
i 3 1000 int
-35 0 0 -70 0 0 -2 0 0 
-83 0 0 124 1 0 -101 0 1 
-100 0 0 -75 0 1 -49 0 1 
-87 0 2 141 1 0 -96 0 1 
-58 0 2 -200 0 0 -15 0 1 
-11 0 0 121 1 0 240 1 0 
-25 0 1 -14 0 0 -58 0 0 
-9 0 0 -57 0 0 7 0 1 
-34 0 0 183 1 0 -37 0 0 
-34 0 1 -29 0 0 -98 0 1 
96 1 1 -23 0 0 134 1 0 
-81 0 0 135 1 0 39 0 1 
-47 0 1 -110 0 0 149 1 1 
-25 0 0 -16 0 0 -46 0 0 
-42 0 0 158 1 0 189 1 1 
123 1 0 -41 0 1 -22 0 1 
-119 0 2 145 1 0 85 1 0 
140 1 0 160 1 0 169 1 0 
-73 0 1 123 1 1 -36 0 1 
-19 0 1 -90 0 0 193 1 1 
-104 0 1 133 1 0 17 0 0 
-59 0 1 -20 0 1 -20 0 -1 
-100 0 0 -175 0 0 -101 0 1 
37 0 0 -88 0 0 -48 0 0 
-140 0 0 -106 0 0 -67 0 1 
-152 0 0 15 0 0 -65 0 1 
-129 0 1 107 1 0 -36 0 1 
158 1 1 -23 0 1 -18 0 0 
221 1 0 145 1 -1 15 0 0 
-82 0 0 -6 0 0 -31 0 1 
-41 0 0 185 1 0 20 0 0 
-21 0 -1 244 1 1 126 1 0 
-42 0 0 -49 0 1 202 1 1 
210 1 0 156 1 0 -60 0 1 
33 0 -1 -50 0 1 24 0 0 
-249 -1 -1 -127 0 0 -183 0 1 
-57 0 0 4 0 0 177 1 0 
-125 0 0 0 0 0 -44 0 0 
110 1 0 0 0 1 15 0 0 
-47 0 0 -134 0 0 157 1 0 
176 1 -1 -75 0 0 38 0 0 
-89 0 0 -167 0 0 -7 0 1 
-55 0 0 -74 0 0 198 1 0 
-70 0 0 -65 0 1 -15 0 0 
-25 0 0 -95 0 1 137 1 0 
-84 0 0 143 1 -1 -125 0 0 
163 1 -1 -100 0 0 3 0 0 
16 0 0 -61 0 0 -7 0 0 
-40 0 0 -209 -1 1 -146 0 0 
-136 0 0 48 0 0 -90 0 0 
-176 0 -1 -109 0 -1 26 0 1 
-133 0 1 169 1 1 -55 0 1 
-38 0 -1 55 0 0 70 0 0 
51 0 -1 -94 0 0 -58 0 1 
163 1 1 -129 0 -1 -84 0 0 
-23 0 0 -75 0 0 289 1 0 
118 1 0 -50 0 0 -40 0 0 
-121 0 0 -56 0 0 -139 0 -1 
-159 0 0 9 0 0 103 1 0 
-44 0 0 133 1 -1 26 0 -1 
-41 0 0 60 1 -1 -38 0 0 
152 1 0 138 1 0 -14 0 1 
-123 0 0 17 0 0 -115 0 0 
31 1 0 1 0 0 158 1 0 
19 0 0 -65 0 1 -94 0 0 
-32 0 1 -68 0 0 18 0 0 
170 1 0 -53 0 0 -55 0 -1 
-108 0 0 -104 0 0 -172 0 0 
47 0 0 -244 -1 0 186 1 0 
-118 0 0 15 0 -1 -132 0 0 
-39 0 0 -87 0 0 -12 0 -1 
-148 0 0 -131 0 0 -37 0 0 
-1 0 -1 -120 0 0 -92 0 0 
-73 0 0 102 1 -1 -134 0 -1 
24 0 0 -56 0 0 79 0 -1 
181 1 -1 -49 0 0 -104 0 -1 
-36 0 0 -186 0 0 -97 0 0 
-115 0 0 156 1 -1 -79 0 1 
-11 0 0 -74 0 0 -16 0 0 
140 1 0 80 1 0 -82 0 0 
-16 0 1 -13 0 -1 -2 0 -1 
-7 0 -1 2 0 0 -229 -1 0 
15 0 -1 -37 0 -1 -46 0 0 
64 0 -1 -11 0 0 -4 0 -1 
101 1 -1 -95 0 0 -49 0 0 
-38 0 -1 -12 0 -1 -9 0 -1 
20 0 -1 -44 0 0 21 0 0 
2 0 -1 147 1 0 -151 0 -1 
15 0 -1 -59 0 -1 87 1 -1 
-112 0 0 -78 0 0 -16 0 -1 
-84 0 -1 68 0 0 -15 0 1 
-156 -1 0 104 0 -1 185 0 0 
28 0 0 93 0 0 61 0 1 
-27 0 1 52 0 0 64 0 0 
-204 -1 1 18 0 0 -155 -1 1 
27 0 0 10 0 0 172 0 0 
-38 0 1 -114 -1 -1 -80 -1 1 
-205 -1 2 -107 -1 1 110 0 1 
75 0 1 -108 -1 0 -106 -1 1 
-103 -1 1 -61 -1 1 -15 0 0 
-18 0 1 146 0 0 27 0 0 
-45 -1 0 20 0 1 50 0 0 
-51 0 1 -32 0 1 -196 -1 0 
93 0 0 -4 0 1 16 0 1 
-15 0 1 33 0 1 162 0 1 
-204 -1 -1 274 1 1 36 0 1 
109 0 1 -41 0 0 -199 -1 0 
69 0 0 -100 -1 1 47 0 0 
107 0 -1 17 0 0 -88 0 1 
-157 -1 0 23 0 0 -11 0 0 
130 0 0 5 0 0 21 0 0 
-115 -1 0 76 0 0 83 0 0 
63 0 0 27 0 1 53 0 0 
36 0 0 143 0 0 15 0 0 
29 0 1 36 0 1 121 0 1 
-55 -1 1 -80 -1 1 36 0 0 
-155 -1 -1 -134 -1 0 61 0 0 
55 0 1 17 0 1 -48 0 1 
10 0 1 44 0 0 -14 0 1 
-53 -1 1 -15 0 0 84 0 -1 
103 0 1 63 0 0 67 0 0 
50 0 -1 -14 0 1 48 0 0 
73 0 0 84 0 0 2 0 1 
-159 -1 1 -59 0 0 17 0 0 
94 0 0 22 0 0 34 0 0 
74 0 0 76 0 0 -90 -1 0 
93 0 0 31 0 0 22 0 0 
131 0 1 -130 -1 0 120 0 1 
57 0 -1 148 0 1 78 0 0 
-60 0 1 66 0 0 114 0 -1 
83 0 0 83 0 0 123 0 0 
99 0 0 79 0 -1 -226 -1 0 
76 0 0 95 0 -1 32 0 0 
49 0 0 84 0 0 -123 -1 0 
70 0 -1 -176 -1 -1 32 0 0 
30 0 -1 -110 -1 0 81 0 0 
12 0 0 -35 0 0 44 0 -1 
128 0 0 29 0 0 -33 0 0 
59 0 0 -4 0 0 -106 -1 0 
-2 0 0 -94 -1 0 125 0 0 
64 0 -1 -26 0 0 46 0 0 
34 0 -1 76 0 -1 34 0 0 
21 0 0 29 0 0 89 0 1 
-19 0 0 -129 -1 -1 55 0 0 
114 0 0 -105 -1 0 300 1 0 
-123 -1 0 48 0 0 95 0 0 
42 0 0 -113 -1 0 -130 0 0 
134 0 -1 55 0 0 -48 -1 0 
32 0 -1 45 0 0 79 0 -1 
66 0 0 0 0 -1 22 0 0 
18 0 -1 59 0 0 -142 -1 0 
47 0 -1 -157 -1 0 42 0 -1 
79 0 1 54 0 0 9 0 0 
-185 -1 -1 91 0 0 135 0 0 
-133 -1 -1 78 0 0 63 0 0 
70 0 0 -170 -1 -1 22 0 0 
194 0 0 -9 0 0 28 0 0 
43 0 -1 74 0 0 22 0 -1 
93 0 1 -96 -1 0 64 0 0 
-117 -1 0 7 0 0 62 0 -1 
137 0 0 -135 -1 0 -193 -1 0 
-179 -1 0 91 0 -1 330 1 -1 
169 0 -1 -87 -1 0 34 0 0 
-139 -1 -1 57 0 0 74 0 -1 
12 0 0 95 0 -1 36 0 0 
60 0 -1 -108 -1 0 60 0 -1 
99 0 -1 -159 -1 -1 74 0 0 
82 0 -1 162 0 -1 -121 -1 -1 
-159 -1 0 -155 -1 -1 43 0 0 
54 0 0 32 0 0 -2 0 -1 
38 0 -1 -235 -1 0 10 0 0 
-206 -1 -1 -117 -1 0 16 0 -1 
8 0 -1 14 0 -1 -138 -1 0 
-11 0 0 -74 -1 0 21 0 0 
-25 0 -1 58 0 0 -118 -1 0 
80 0 -1 -145 -1 0 -10 0 0 
6 0 -1 -28 0 0 -26 0 -1 
-147 -1 0 55 0 0 150 1 1 
-73 0 1 -39 0 0 -56 0 1 
-103 0 0 -71 0 1 -38 0 1 
-46 0 1 -55 0 1 49 0 0 
-115 0 1 88 1 0 108 1 0 
179 1 0 -39 0 0 -101 0 0 
23 0 1 114 1 0 -126 0 1 
10 0 1 94 1 0 -62 0 1 
2 0 0 -101 0 1 -61 0 1 
-43 0 0 -98 0 1 -137 0 1 
-107 0 1 -27 0 1 25 0 0 
-12 0 0 -48 0 0 -21 0 0 
-24 0 0 17 0 0 -81 0 1 
39 0 0 -89 0 0 -16 0 1 
-134 0 1 -38 0 1 22 0 0 
-17 0 0 -134 0 1 -133 0 0 
-8 0 0 -22 0 0 -131 0 0 
147 1 -1 -42 0 0 -86 0 0 
155 1 1 42 0 -1 138 1 0 
-51 0 1 -9 0 -1 -41 0 0 
-50 0 0 218 1 1 -81 0 0 
214 1 0 -129 0 0 252 1 0 
-123 0 1 -70 0 1 -136 0 0 
12 0 0 122 1 0 -34 0 1 
26 0 0 -87 0 1 19 0 -1 
134 1 0 -112 0 1 238 1 0 
-47 0 0 -10 0 1 -52 0 0 
-5 0 0 163 1 -1 -44 0 0 
-106 0 1 162 1 0 -60 0 1 
171 1 0 -25 0 0 126 1 0 
54 0 -1 192 1 1 116 1 0 
211 1 0 39 1 -1 113 1 0 
-95 0 0 -60 0 0 -146 0 0 
90 1 0 -64 0 0 -93 0 1 
8 0 0 119 1 0 103 1 -1 
-59 0 0 18 0 -1 -26 0 0 
187 1 -1 -23 0 0 145 1 -1 
31 0 0 -37 0 0 -134 0 0 
-171 0 0 76 1 0 119 1 -1 
-20 0 0 -101 0 1 -6 0 0 
-87 0 0 12 0 -1 4 0 -1 
-43 0 0 13 0 -1 -15 0 0 
-14 0 0 31 0 -1 8 0 1 
-147 0 0 27 0 0 173 1 0 
-61 0 1 230 1 0 122 1 0 
-153 0 0 152 1 0 -71 0 0 
-118 0 -1 23 0 0 -100 0 0 
111 1 -1 -51 0 1 84 1 -1 
-5 0 0 -45 0 0 -47 0 0 
33 1 -1 -95 0 1 -92 0 1 
-121 0 0 -43 0 -1 127 1 0 
-86 0 -1 13 0 -1 150 1 0 
-61 0 0 -4 0 -1 -72 0 1 
201 1 0 -30 0 1 140 1 0 
-18 0 0 -128 0 0 -95 0 -1 
-38 0 0 190 1 0 -127 0 -1 
-118 0 -1 251 1 1 47 1 0 
57 0 0 48 0 -1 -11 0 0 
73 0 0 -37 0 0 -36 0 0 
-65 0 0 39 0 -1 -17 0 -1 
-2 0 -1 24 0 -1 60 0 0 
-92 0 0 -77 0 0 -76 0 0 
-89 0 -1 165 1 0 -85 0 0 
-37 0 0 160 1 0 196 1 0 
-78 0 0 99 1 -1 -45 0 0 
-78 0 0 -137 0 -1 158 1 0 
-75 0 0 168 1 -1 -129 0 0 
-18 0 0 -18 0 0 -66 0 1 
-77 0 1 -94 0 0 116 1 -1 
-117 0 -2 3 0 0 -48 0 -1 
-76 0 0 -23 0 0 -51 0 0 
248 1 0 6 0 0 -40 0 0 
90 1 -1 -31 0 0 -19 0 0 
-32 0 0 56 0 -1 7 0 0 
-47 0 0 42 0 0 -104 0 -1 
48 0 -1 95 1 -1 -221 -1 0 
-246 -1 0 -121 0 -1 16 0 -1 
-22 0 0 39 1 0 172 1 0 
-41 0 0 91 0 0 146 0 1 
-30 0 0 -120 -1 0 52 0 0 
-252 -1 0 41 0 0 39 0 0 
-27 0 0 -29 0 1 -182 -1 0 
97 0 1 133 0 0 -4 0 0 
9 0 0 -16 0 0 -13 0 0 
-46 0 0 83 0 0 181 0 1 
154 0 2 -14 0 1 101 0 -1 
-189 -1 0 159 0 1 -16 0 0 
-154 -1 2 -277 -1 0 236 1 0 
31 0 0 54 0 0 21 0 1 
73 0 0 46 0 -1 -47 0 1 
57 0 0 -192 -1 1 74 0 -1 
-13 0 0 -2 0 0 41 0 1 
26 0 0 -58 0 1 -19 0 0 
94 0 0 -208 -1 0 25 0 0 
136 0 0 7 0 0 -172 -1 -1 
-106 -1 0 -84 -1 0 0 0 1 
56 0 0 13 0 0 8 0 0 
-171 -1 0 127 0 1 115 0 0 
140 0 1 -11 0 0 -64 -1 1 
92 0 -1 -291 -1 0 -86 -1 0 
121 0 0 88 0 0 -69 -1 1 
130 0 0 159 0 0 252 1 1 
59 0 0 71 0 0 94 0 0 
68 0 0 2 0 1 83 0 0 
-199 -1 1 -9 0 0 -36 0 1 
106 0 0 -170 -1 1 -44 0 1 
-11 0 0 -1 0 0 0 0 0 
-17 0 1 67 0 0 -92 -1 0 
27 0 0 78 0 -1 101 0 0 
-203 -1 0 -212 -1 1 -100 -1 1 
63 0 0 -77 0 0 55 0 0 
36 0 -1 35 0 0 -82 -1 -1 
-29 -1 1 -118 -1 0 54 0 0 
-200 -1 -1 -174 -1 1 -220 -1 1 
53 0 1 71 0 -1 305 1 0 
55 0 0 105 0 0 94 0 -1 
93 0 0 99 0 0 85 0 0 
44 0 -1 -158 -1 1 13 0 -1 
-140 -1 0 102 0 0 50 0 0 
61 0 0 44 0 -1 -13 0 0 
168 0 0 66 0 0 -105 -1 1 
46 0 0 115 0 0 73 0 1 
41 0 1 74 0 0 -73 -1 1 
114 0 -1 -155 -1 0 83 0 0 
23 0 -1 -102 -1 0 67 0 -1 
41 0 -1 -138 -1 -1 146 0 0 
87 0 0 136 0 0 48 0 -1 
16 0 0 72 0 -1 150 0 0 
-163 -1 0 -218 -1 -2 0 0 0 
72 0 0 53 0 0 99 0 1 
66 0 0 -7 0 0 117 0 -1 
82 0 0 61 0 0 -171 -1 -1 
-134 -1 0 114 0 -1 -23 0 -1 
156 0 0 118 0 0 -123 -1 0 
112 0 -1 207 1 -1 30 0 0 
0 0 -1 40 0 0 42 0 -1 
-3 0 1 -191 -1 0 40 0 0 
50 0 -1 105 0 0 63 0 0 
74 0 0 72 0 -1 -71 -1 0 
39 0 0 94 0 0 40 0 -1 
-45 -1 0 94 0 -1 -167 -1 1 
75 0 -1 35 0 -1 24 0 0 
72 0 -1 129 0 0 42 0 -1 
-172 -1 0 123 0 -1 -80 -1 0 
137 0 0 115 0 -1 37 0 -1 
-146 -1 -1 -138 -1 0 -154 -1 -1 
-102 -1 -1 2 0 0 86 0 0 
-55 -1 0 69 0 -1 -106 -1 0 
92 0 -1 133 0 -1 -44 0 0 
-191 -1 0 -187 -1 0 -18 0 0 
16 0 -1 -18 0 0 36 0 0 
7 0 -1 66 0 -1 -29 0 0 
-160 -1 -2 36 0 0 -85 -1 1 
78 0 -1 107 0 0 -31 0 0 
95 0 0 -106 -1 -1 30 0 -1 
11 0 0 129 0 0 25 0 0 
124 0 -1 
v 3 1000 double
-75.994057782 9.4929647787 -5.3701484926 -390.21656068 -32.473819505 8.8334485437 -254.95736658 5.6015196723 -31.483660195 
-387.1465843 8.3602185359 -1.8401696571 -460.57588437 -2.8928472281 -5.6225374106 -451.90000058 0.73058760811 8.7053706822 
-486.40426316 15.108206331 -18.852907275 -351.0458978 10.463786121 -11.847885842 -241.54552153 -33.523393999 16.152717651 
-315.43882286 12.843290347 20.444025723 -331.26564458 8.4362066423 1.8294160043 -344.83129875 -11.403492513 -0.48489455798 
-335.16655295 -9.6794144754 14.27468729 -433.10862919 -11.399261892 2.976032066 -160.50053186 -13.166927282 -17.277446127 
-283.51892395 6.319590665 -0.99682614312 -197.17318856 -6.5285643766 8.5889225127 -407.30811582 -17.422430478 -1.0027316414 
-360.20002757 -7.5371513258 0.2892803056 -102.25466546 10.876924223 -19.81980079 -382.55663342 -4.0192571478 8.0161240947 
-143.7721862 -2.8842405155 -12.054208332 -117.07705454 13.008646486 33.532514456 -102.54762872 18.122862678 -28.623835486 
-212.13852814 5.2570830335 0.18650398805 -214.96504795 -14.315699266 11.786693964 -239.88339912 7.7894535518 1.3750418556 
-205.38177956 12.106449377 -24.826840844 -140.8512999 11.49466927 0.35607821686 -462.25738671 1.5637389967 0.083033534151 
-368.01253232 3.2782635102 3.0925709399 -83.93095692 19.369804797 -9.8406799503 -276.51493109 -10.480894712 -3.2415072069 
-457.36655434 -9.6288967169 -29.731729464 -128.16749072 5.8039215867 3.2933857937 -79.937121089 -13.085480968 11.815214589 
-31.609977067 -8.1337991669 34.767779998 -339.41441763 -2.3167387003 -0.95618159533 -268.12446081 34.589216717 -5.4047157674 
-205.1436968 8.1512708721 -20.099137986 -89.296074207 -17.612955329 13.232668433 -194.06741191 16.952448404 5.6652771272 
-157.74102509 8.5703945098 -4.9256969406 -122.01109612 -0.77647008972 12.339098115 -265.97432274 9.1156793084 13.200147473 
-350.38020181 -5.9296458773 -7.8057072772 -123.88546349 0.85104602434 7.6733356376 -76.454180298 13.189114989 -6.5713981189 
-274.89723094 9.7861766334 -6.1695604139 -318.29201605 8.9370022349 -2.8112110759 -387.9468352 -6.8919517912 1.2776670009 
-413.4988482 2.5906263887 19.674029185 -402.44332741 7.2492564892 -8.2161417371 -11.925597673 -36.000411281 -33.58312959 
-190.08065537 -2.6161095087 -19.697321943 -549.5715093 30.620739666 -16.923665772 -218.3839392 2.6794356167 11.200309128 
-313.50407816 -10.478953912 -9.1279287478 -428.95540139 15.076932551 -1.0308624 -156.61118539 -1.2809665616 13.598646361 
-312.63090035 -35.515827544 -6.040107832 -268.11460685 -16.447551915 1.3821517375 -128.76406991 -5.0256512096 -0.19483669037 
-5.8568746185 4.6509586099 17.637377209 -280.91864304 -22.579053029 8.3769703474 -179.25400325 8.1074994345 -3.8732182172 
-324.19695857 2.4791723341 -12.401965295 -419.87793125 33.945584183 13.200805721 -399.90378867 7.9507735221 2.1139842105 
-405.18844778 -5.8898816253 0.44271276482 -185.01056318 13.536430432 -24.55380894 -157.43974062 -20.769019498 -6.9794723423 
-424.2192872 -26.199739186 -10.827483403 -328.10264296 -2.3109018451 19.447881704 -256.50145467 -15.250441605 10.500483038 
-396.16393482 -19.119215352 -8.72890676 -17.262374215 24.77327526 1.3156696628 -118.04857062 10.106557593 0.45853388178 
-305.39436612 -13.570268526 6.3520464215 -396.40943237 -16.46183911 -17.185501155 -264.97855763 -10.447243344 9.5349071663 
-465.82046632 -3.0342427335 -26.248244194 -130.47157923 17.396345279 -12.355458579 -37.370578108 -6.7781820708 19.63695389 
-76.334611832 -6.3659933077 -16.982029299 -351.10245329 -6.8693329184 -5.4318723925 -189.64992387 1.5889064469 10.940123839 
-257.00543059 -3.2665235742 -24.710569491 -25.92515737 -11.431129391 0.32899473736 -132.81838103 6.8760037554 -5.0590991778 
-158.91606776 -6.9947794039 -11.456175348 -285.26461559 -26.108873152 3.9503531256 -98.650332761 12.407656568 1.4035769584 
-110.64611152 1.3505986197 1.4099697263 -230.85154866 -1.1789178275 10.565501869 -425.93595087 1.661416604 4.7801700345 
-183.6459525 31.622777949 -25.975535243 -73.882134139 12.739048854 -1.0640670987 -414.71584874 7.2488792124 2.3250562569 
-218.78858158 6.1986915336 -22.930520912 -407.25135003 21.993559649 17.707010991 -190.09867104 -3.2640543997 -0.73850983129 
-2.47272054 -2.7375779156 -2.7753905096 -279.11701638 -26.031242314 -12.10056873 -207.20344402 -9.6893587081 -25.706756058 
9.5887124018 -12.43475763 -0.43116545743 -389.00706296 14.077126927 5.3578837414 -468.77115424 7.3419213572 16.691270189 
-151.96148836 -12.85221602 11.826391774 -87.096523696 15.048647172 -2.0696083789 -186.07948096 14.54267913 22.952387108 
-376.34910107 -23.832762293 0.33490704105 -81.053181735 -16.619329284 18.303431131 -365.50387061 -8.9836785823 -5.8226369935 
-416.11828283 5.2182352279 0.9514628798 -198.5904116 1.5374761424 -8.2554100844 -234.78523145 -20.467164259 4.2969723306 
-226.62853929 4.2181489695 -15.323930372 -285.52472984 8.4562462424 9.8751368052 -322.21420828 3.0947261859 -27.240584057 
-344.73986323 2.3171762189 -8.4873174878 -164.01915141 -9.7726845115 -5.2493762015 -25.256221556 -10.97674483 -9.7720651955 
-400.0969052 8.6226134445 3.4843021211 -524.24892702 16.186648624 24.129439284 -132.40646939 12.636298231 26.465567479 
-180.6182395 10.181017035 6.9962039444 -253.12747925 14.553617935 23.319379015 -323.7515925 -25.023232482 -14.701575004 