# vtk DataFile Version 4.2
Generated by LIGGGHTS
ASCII
DATASET POLYDATA
POINTS 1000 float
1.22882 3.47518 0.946962 0.206123 0.839016 0.0960809 0.885172 0.407434 0.773105 
1.87005 2.02709 0.148367 1.27757 2.65983 0.461149 0.0446463 1.79948 0.555653 
2.16383 1.97765 1.76257 4.86286 4.29655 0.912325 2.49005 2.92761 0.114879 
2.27262 2.91677 1.9649 0.801253 1.6285 0.9503 0.499989 0.906047 1.75381 
4.13703 1.61092 0.778827 2.28191 0.210975 1.77242 1.40324 0.307166 1.73292 
0.434207 1.96127 1.70119 1.96364 1.11784 1.41021 1.51585 1.42158 0.704812 
1.96634 2.72279 1.08245 2.28691 1.20628 0.283157 3.63691 0.434236 1.21813 
0.313337 3.9355 1.45997 1.79533 4.28406 1.07823 2.69525 4.33548 0.834908 
4.77045 1.31063 0.632061 2.73944 4.97483 0.258763 4.26014 3.91566 0.260915 
2.63752 4.63347 1.64787 0.207895 4.79584 0.3307 2.24512 3.80058 1.94496 
3.2055 2.96696 0.685238 1.73588 4.59497 1.93016 3.58375 1.57483 1.51771 
2.7352 1.49049 1.08936 1.80409 4.56571 0.171828 3.95841 4.4458 1.10151 
2.95977 3.6019 0.948784 3.28282 0.894225 0.579111 0.0478972 3.93686 0.606041 
3.08244 0.734829 1.58864 3.62808 2.37435 1.3852 3.72509 0.418514 0.115399 
4.63805 1.10969 1.67529 1.06061 4.69634 1.00727 3.47791 2.37556 0.470629 
3.61834 4.6137 0.33539 3.75868 1.90954 0.491119 3.9274 3.27463 1.41281 
4.36909 0.50462 1.01113 4.45544 4.00966 1.75388 4.53112 2.89725 0.505226 
4.59381 2.94933 1.44412 4.99064 0.746377 1.84655 4.91633 2.77252 3.73178 
0.899859 0.568801 2.64637 2.97907 1.83738 2.02099 4.36831 1.55583 2.25401 
2.36746 4.17878 2.89739 1.91079 0.315219 3.25296 1.34992 0.901216 3.65292 
0.544298 2.21504 3.86932 3.78238 4.43492 2.06093 1.46185 3.71104 2.27624 
2.44488 2.73922 2.86146 2.28215 1.11958 3.09305 1.74726 1.39299 2.68349 
1.02861 1.61061 2.99716 2.61398 0.936738 2.18352 4.144 2.30609 2.08383 
3.37413 3.73265 3.6401 0.665695 3.21197 3.03211 1.72064 3.97835 3.30931 
3.46535 2.9693 3.37726 4.00931 0.950253 3.53929 3.1185 3.55578 2.13897 
3.89595 2.70797 2.86917 4.3072 4.84955 3.56072 3.03379 0.861203 3.6791 
4.47668 1.60179 3.10486 -0.00976039 3.28821 2.14928 -0.0137592 2.83788 3.95271 
2.8548 4.86676 3.35447 -0.0162159 4.18616 2.32493 2.84473 0.0885247 3.14818 
3.32329 2.70379 2.1973 3.37878 0.132352 3.97423 4.07917 0.657208 2.56437 
3.48216 1.35992 2.56029 2.95747 2.02952 2.99827 0.959534 4.02249 3.71188 
3.09578 4.11357 2.87456 4.32188 3.96552 3.2376 1.90727 4.92202 2.97584 
4.62195 0.540198 3.30118 3.15157 4.79461 2.41799 3.44934 4.54157 3.82768 
4.54563 2.36643 2.98434 3.11934 2.05122 3.99543 3.44152 1.57886 3.99163 
4.91766 4.83067 2.87278 0.424874 1.81924 5.85191 3.25094 3.25561 5.37014 
0.305074 1.17064 4.8563 2.63368 3.25942 4.86313 2.1412 2.67415 4.17457 
2.5172 3.96746 5.18647 3.13455 1.82803 4.97872 1.2593 0.594599 4.60391 
0.632546 2.04517 4.90728 2.04525 0.303178 4.44172 0.873101 0.50198 5.86981 
1.42887 2.61471 5.31458 4.18142 2.19405 5.83829 1.64182 1.55458 4.49623 
4.93039 1.58779 5.01653 0.586366 0.575293 5.03482 0.915749 1.55439 4.03546 
1.71729 0.164216 5.42872 1.33692 4.62722 5.49975 1.58591 3.56247 4.26005 
4.3818 3.63686 4.3734 3.50011 4.4938 4.81307 0.00586965 3.93058 4.1481 
4.1974 4.94229 5.82389 4.55284 2.10614 4.3666 0.720611 3.77309 4.82492 
3.15553 4.71706 5.67823 3.77413 0.823639 5.31324 3.06928 2.90567 4.20264 
3.11581 0.974474 4.77224 1.95196 4.53279 4.19049 4.37272 0.799744 4.43332 
3.58162 0.165663 4.96356 4.87631 2.38519 5.20197 4.13304 2.7459 4.8609 
3.41212 4.09019 5.6619 2.25545 4.718 5.45201 0.157291 3.2594 5.67357 
4.78948 3.27434 5.75038 3.76348 1.65407 5.19026 2.78061 4.61185 4.52187 
2.55875 3.70735 4.03111 2.88516 0.262833 4.59592 2.94848 0.590504 5.68256 
3.38096 2.39396 5.64929 3.98462 3.24579 5.6245 3.95735 1.31742 4.42348 
1.91077 1.34772 5.91662 2.08833 0.141738 6.72981 1.27277 0.11114 7.24366 
4.08978 3.41117 7.32022 1.23201 3.34578 6.53159 2.38799 2.40559 7.16283 
1.29965 0.0525298 6.40966 1.97597 0.865988 7.5912 3.95104 4.0415 6.14633 
4.52783 2.39542 7.0439 1.61867 1.28477 6.97841 0.0341078 0.191797 6.72697 
3.18733 0.595576 6.74815 1.06751 1.44562 6.29155 2.48922 3.61434 6.06704 
1.23375 2.8617 7.74856 2.19278 3.25322 6.95921 3.76395 1.21857 7.9622 
0.963937 1.44454 7.42978 2.51254 3.79964 7.70335 4.25589 1.63785 6.98302 
4.87422 1.48536 7.88682 1.47939 2.25344 7.08823 2.31578 2.51815 6.19606 
2.0793 4.18459 6.33105 2.49297 1.70374 7.37494 2.30433 0.935293 6.66912 
4.43143 0.574206 6.01453 0.618712 0.224501 7.28167 3.82245 4.47452 6.87873 
1.89078 4.12199 7.2711 0.596411 3.19933 7.21018 3.85658 1.2415 6.08054 
1.57454 4.79542 6.37836 2.98477 4.68348 7.92739 3.87735 0.834081 7.28374 
4.48074 3.14617 6.62856 0.334783 3.71726 6.47022 2.99672 2.09507 6.48954 
3.21082 3.35792 6.32987 3.31361 1.36076 6.94108 2.87417 3.00654 7.68291 
1.17885 4.52488 7.85829 3.04386 1.2989 6.113 3.30765 1.80457 7.65033 
3.28916 3.66212 7.18137 2.30314 0.383527 7.98077 0.528041 4.60489 6.9664 
0.534895 3.7168 7.90362 3.22414 4.98832 6.53533 3.60165 2.53836 7.13753 
3.76119 2.20033 6.43636 4.50358 0.636081 7.39121 4.77357 4.02716 6.38844 
4.88038 4.60801 7.05307 0.483097 1.68397 8.998 2.4309 1.32732 8.25227 
1.69265 0.86082 8.76404 0.405227 0.831125 8.25769 4.73781 4.22523 9.3896 
1.97038 0.507963 9.73372 1.29706 0.993554 8.03078 3.18995 1.4633 8.72171 
3.04743 3.92672 9.97516 3.93252 2.50582 8.17633 2.122 1.87404 8.40092 
0.525782 0.0210186 8.31116 4.28085 1.93893 8.10621 0.468679 1.75423 8.02795 
1.94904 1.59868 9.30773 2.14454 3.77982 9.99405 0.97899 0.430195 9.14791 
1.26362 0.0691034 8.12439 2.0284 2.66548 8.09628 2.39405 0.484832 8.98727 
0.738941 1.07318 9.19288 1.67252 3.44309 9.14238 2.63554 4.61086 9.38529 
0.825578 2.55482 8.90599 1.20326 2.17586 9.70633 0.771562 3.18804 9.84729 
3.71016 3.4232 8.50402 1.95058 2.54215 9.0959 1.19276 0.909765 9.95986 
2.53214 3.85422 9.12076 1.313 1.86198 8.41693 2.66559 3.21854 8.60639 
3.04883 2.48779 8.32157 0.0705679 4.40158 8.07315 1.34643 3.70057 8.28805 
3.58173 0.402497 8.08353 1.05516 4.05144 9.12794 0.261737 4.90436 9.02513 
2.90152 0.28852 9.83293 4.36585 3.25617 9.64814 3.36851 2.47983 9.00847 
3.2323 4.65262 8.75033 2.90708 1.0966 9.58573 3.674 1.45323 9.75765 
2.84593 2.00123 9.69874 1.69167 4.80481 8.72025 2.98571 0.594011 8.36969 
3.993 2.1344 9.04373 1.14756 4.82617 9.55284 3.48728 0.746058 9.16945 
3.32016 3.36215 9.3812 0.0378499 4.03884 9.49649 3.84729 4.24354 9.47606 
4.42517 2.25508 9.86316 4.44494 0.863503 8.51329 1.93662 9.67032 1.07324 
2.08955 7.15426 0.104779 4.05938 7.05717 1.43356 2.72404 7.45115 0.659775 
0.908184 8.77123 0.72053 4.78798 9.84234 0.778839 3.94809 8.35279 0.181758 
0.522879 9.01579 1.46752 4.24765 5.52571 0.176358 3.61317 7.34447 1.91549 
0.221542 9.44834 0.630797 1.3871 9.79889 0.0809299 3.52109 5.63583 0.512693 
0.660218 7.58337 1.33759 3.71357 6.31536 0.963521 1.68041 7.29787 1.26654 
1.00228 5.59734 1.18104 1.79622 9.09389 0.161185 -0.0180837 6.7429 0.771205 
3.71166 8.33467 1.20835 3.29169 8.78321 0.622417 1.60707 8.83224 1.59089 
2.5028 8.52712 0.944719 0.127872 6.02787 1.33859 0.597749 8.00592 0.242768 
1.22761 7.34358 1.96884 4.07726 5.57018 1.40159 3.1225 6.48409 1.45247 
2.29074 6.54765 1.32716 -0.0286154 5.43583 0.671109 2.84995 5.63681 1.8624 
1.53715 6.24925 0.193262 2.51815 9.33732 1.34989 1.41409 5.43507 0.183564 
1.35738 7.852 0.674723 3.67883 9.01978 1.74116 0.808284 6.60672 0.524047 
1.99076 5.59474 1.37516 0.590262 5.9628 0.0585799 2.27069 5.62125 0.449259 
1.65458 6.67787 0.841525 2.48975 6.5579 0.344795 2.59239 8.20294 1.83861 
2.62044 9.83361 0.525629 3.10399 5.2478 1.06337 3.17648 9.47957 0.0601259 
3.36611 9.6019 1.10492 3.39831 7.48217 1.14483 3.65287 7.28106 0.392998 
4.41278 8.27099 1.95795 1.47901 6.5706 1.98249 4.60977 5.18059 1.90965 
4.63422 9.17266 1.66227 4.6001 9.94823 1.9713 4.64892 6.73561 0.995634 
4.71703 8.13637 0.816961 1.77996 9.66473 3.83807 0.34969 6.58967 2.34274 
0.304003 9.95436 3.76691 4.83047 8.83274 2.66386 1.55089 9.63425 2.73904 
0.10105 9.6807 2.45885 3.97758 6.56723 3.53771 4.41971 5.61058 2.61612 
0.647951 8.98029 3.76767 3.47643 7.10222 2.9823 4.04483 9.2536 2.81508 
3.74672 8.19506 3.47783 3.45713 5.57381 3.9114 3.61379 5.61085 2.14612 
4.00439 8.96277 3.92275 3.1087 6.24584 3.36515 0.734279 8.43741 2.9785 
3.01711 8.06106 3.92456 1.61872 8.1232 2.10226 3.46736 6.45912 2.34496 
2.30977 6.27261 3.48269 1.07863 7.26338 2.83075 4.63667 6.71247 2.87859 
2.79178 8.80454 3.8598 2.24188 9.2352 3.38296 2.40842 5.41711 3.83554 
1.92964 7.8644 3.90625 1.57858 8.87234 2.59796 2.18828 7.96015 2.72136 
0.833335 6.51746 3.45238 2.6057 7.40478 2.66491 1.80197 7.2462 3.34231 
1.39761 6.09674 3.10025 1.75204 6.61185 3.95968 0.147801 5.70457 3.58122 
2.04844 8.43699 3.18368 1.49963 5.08054 3.7801 4.48815 7.76126 3.58851 
3.92253 5.77132 3.17005 0.585001 5.55146 2.06399 0.435876 7.70066 2.37645 
0.23682 7.16821 3.6345 2.16 5.80423 2.71731 1.3401 5.1598 2.30261 
2.85677 9.82583 2.14733 1.96633 6.67749 2.60839 3.04919 5.54827 2.84528 
3.14347 9.24998 3.08375 3.72355 9.81068 2.12749 3.62385 8.20008 2.12252 
3.87394 9.76383 3.70947 4.23935 7.98933 2.90438 4.30195 6.48758 2.01456 
4.40087 7.46225 2.43879 4.78082 7.24755 3.53226 4.74349 9.81928 3.2999 
4.92428 6.44651 3.55599 2.90606 5.47263 4.67245 2.81376 9.35733 4.58499 
3.54709 5.54577 5.67309 2.70896 6.43074 5.16491 4.60209 9.79 4.54527 
3.04375 6.14728 5.91795 3.43566 7.27158 5.94209 0.989437 8.47082 5.02226 
4.34816 5.8689 5.98909 1.34776 9.24556 5.87775 3.08836 6.26983 4.29846 
0.0846648 9.27793 5.66545 3.91553 6.3516 4.50583 4.41935 5.17317 4.47387 
0.123166 8.27429 4.50859 1.87405 9.4126 4.88207 3.59007 7.37291 4.13918 
3.16974 8.65384 4.62474 3.2016 9.31583 5.44026 2.55747 9.75983 5.48829 
1.66051 6.02334 5.15025 0.64953 6.91646 5.89393 1.06419 7.12329 4.24509 
2.94376 8.46866 5.47793 2.12703 8.94217 5.84726 0.32298 7.47937 4.63348 
2.09437 5.45313 4.94421 2.36129 6.46196 4.3646 3.68977 9.51685 4.62828 
2.70129 7.29773 4.24528 0.80924 5.57644 4.52688 0.352236 6.394 4.59545 
[...]
POINT_DATA 1000
FIELD FieldData 7
id 1 1000 int
190 954 118 314 785 842 647 250 941 
619 480 584 332 548 594 217 389 530 
857 533 825 214 881 347 162 369 341 
264 496 62 582 446 783 603 401 541 
924 876 138 815 566 233 984 616 130 
581 61 510 47 828 947 966 542 350 
809 361 722 547 137 851 501 644 213 
579 488 421 67 597 410 886 288 933 
39 196 243 641 699 203 96 265 346 
847 527 117 147 216 329 204 691 146 
100 555 409 263 840 871 905 354 606 
370 899 460 189 284 188 921 267 967 
625 781 829 970 375 111 434 378 345 
120 667 478 271 789 816 241 653 102 
154 664 741 277 21 325 172 228 513 
511 415 862 232 629 971 872 724 538 
746 529 675 394 618 93 940 544 754 
390 750 609 568 492 31 310 352 624 
910 321 338 287 132 393 523 440 75 
913 626 43 798 72 810 824 611 402 
155 187 224 734 86 948 169 105 74 
983 652 637 974 141 651 465 961 702 
992 246 972 635 762 41 199 694 261 
69 193 42 165 40 65 689 115 813 
208 408 958 687 737 648 995 180 796 
671 904 157 205 2 400 311 661 591 
806 447 403 229 623 467 559 472 260 
870 577 565 935 621 225 126 201 66 
364 1000 80 853 425 259 595 411 634 
273 32 649 518 998 570 419 690 755 
942 784 235 405 27 457 749 252 638 
334 801 248 945 301 571 758 391 103 
37 127 413 832 387 574 244 125 764 
451 993 994 670 430 775 887 195 710 
131 627 858 822 767 587 934 83 693 
395 357 212 536 735 404 583 107 797 
715 732 955 133 757 919 622 76 884 
917 444 256 158 713 377 712 877 482 
850 561 174 739 490 520 680 356 81 
342 517 907 160 3 894 19 985 546 
909 916 849 197 309 707 179 382 1 
359 13 865 550 560 262 474 553 255 
119 756 449 615 349 838 68 662 300 
763 207 493 151 630 714 965 10 304 
82 320 101 289 831 234 963 669 109 
471 814 94 302 473 657 682 276 397 
5 525 528 324 575 684 221 617 676 
673 156 848 353 705 964 463 448 777 
500 384 683 771 317 168 60 297 435 
247 499 665 720 774 888 57 432 470 
6 164 845 938 36 184 177 874 11 
588 704 900 114 726 453 113 124 892 
99 97 695 46 422 567 122 286 718 
996 969 52 372 91 462 556 678 319 
817 388 793 272 368 59 210 412 973 
679 365 108 532 29 396 928 563 330 
87 716 123 522 85 202 730 534 175 
906 417 116 268 8 599 198 144 274 
554 484 34 14 226 305 328 295 240 
90 458 768 227 416 908 327 721 79 
25 237 333 428 759 427 765 578 280 
875 121 902 358 569 656 418 331 322 
990 186 222 35 846 231 159 717 153 
787 171 833 23 149 9 38 487 106 
318 923 761 586 766 999 891 181 486 
78 731 744 495 738 110 531 73 633 
745 514 803 826 433 895 445 976 931 
918 773 278 612 939 769 308 557 844 
860 483 778 461 975 7 807 282 890 
526 549 182 950 772 439 211 839 20 
380 792 600 654 725 596 952 709 454 
659 437 12 98 24 688 251 982 795 
770 660 988 95 220 930 932 524 794 
367 456 22 64 426 819 780 516 821 
898 339 681 636 167 593 406 16 258 
206 729 254 742 666 104 896 748 293 
658 17 880 572 249 399 620 590 823 
438 539 283 903 307 968 56 509 257 
506 580 343 728 926 585 135 743 294 
281 200 987 348 650 646 219 383 610 
703 431 33 925 672 163 148 242 708 
15 485 269 481 951 640 468 450 956 
944 173 290 285 711 298 598 740 864 
776 608 270 843 18 335 805 142 573 
424 291 811 192 316 218 827 613 868 
912 861 863 856 685 139 929 835 306 
957 4 420 502 674 459 507 296 238 
727 977 386 889 166 63 614 323 607 
946 545 340 84 812 537 49 751 209 
668 760 374 381 442 392 867 697 841 
275 986 161 960 859 503 692 943 312 
820 143 407 337 576 736 494 414 808 
786 455 897 893 88 505 385 145 883 
469 782 443 677 879 628 351 698 953 
185 799 452 183 779 911 344 564 802 
733 466 866 376 215 663 55 543 700 
837 429 959 112 53 818 441 489 855 
498 558 834 336 58 885 477 50 980 
747 643 788 150 706 882 464 292 504 
602 562 873 752 601 949 915 44 436 
491 631 989 363 479 791 519 920 355 
475 589 521 313 245 70 223 299 515 
878 303 191 686 194 45 790 508 991 
253 71 701 830 540 836 379 632 134 
362 360 753 92 423 315 922 642 136 
30 604 552 140 230 723 978 371 804 
152 77 497 176 26 128 800 937 51 
170 279 962 914 535 551 981 639 645 
178 719 979 696 927 373 901 852 605 
936 28 655 54 366 89 869 239 266 
129 592 512 476 398 48 997 236 854 
326 
type 1 1000 int
1 2 1 1 2 2 2 1 2 
2 1 2 1 2 2 1 1 2 
2 2 2 1 2 1 1 1 1 
1 1 1 2 1 2 2 1 2 
2 2 1 2 2 1 2 2 1 
2 1 2 1 2 2 2 2 1 
2 1 2 2 1 2 2 2 1 
2 1 1 1 2 1 2 1 2 
1 1 1 2 2 1 1 1 1 
2 2 1 1 1 1 1 2 1 
1 2 1 1 2 2 2 1 2 
1 2 1 1 1 1 2 1 2 
2 2 2 2 1 1 1 1 1 
1 2 1 1 2 2 1 2 1 
1 2 2 1 1 1 1 1 2 
2 1 2 1 2 2 2 2 2 
2 2 2 1 2 1 2 2 2 
1 2 2 2 1 1 1 1 2 
2 1 1 1 1 1 2 1 1 
2 2 1 2 1 2 2 2 1 
1 1 1 2 1 2 1 1 1 
2 2 2 2 1 2 1 2 2 
2 1 2 2 2 1 1 2 1 
1 1 1 1 1 1 2 1 2 
1 1 2 2 2 2 2 1 2 
2 2 1 1 1 1 1 2 2 
2 1 1 1 2 1 2 1 1 
2 2 2 2 2 1 1 1 1 
1 2 1 2 1 1 2 1 2 
1 1 2 2 2 2 1 2 2 
2 2 1 1 1 1 2 1 2 
1 2 1 2 1 2 2 1 1 
1 1 1 2 1 2 1 1 2 
1 2 2 2 1 2 2 1 2 
1 2 2 2 2 2 2 1 2 
1 1 1 2 2 1 2 1 2 
2 2 2 1 2 2 2 1 2 
2 1 1 1 2 1 2 2 1 
2 2 1 2 1 2 2 1 1 
1 2 2 1 1 2 1 2 2 
2 2 2 1 1 2 1 1 1 
1 1 2 2 2 1 1 2 1 
1 2 1 2 1 2 1 2 1 
2 1 1 1 2 2 2 1 1 
1 1 1 1 2 1 2 2 1 
1 2 1 1 1 2 2 1 1 
1 2 2 1 2 2 1 2 2 
2 1 2 1 2 2 1 1 2 
1 1 2 2 1 1 1 1 1 
1 1 2 2 2 2 1 1 1 
1 1 2 2 1 1 1 2 1 
2 2 2 1 2 1 1 1 2 
1 1 2 1 1 2 1 1 2 
2 2 1 1 1 1 2 2 1 
2 1 2 1 1 1 1 1 2 
2 1 1 2 1 1 2 2 1 
1 2 1 2 1 1 2 2 1 
2 1 1 1 1 2 1 1 1 
2 1 1 1 1 1 1 1 1 
1 1 2 1 1 2 1 2 1 
1 1 1 1 2 1 2 2 1 
2 1 2 1 2 2 1 1 1 
2 1 1 1 2 1 1 2 1 
2 1 2 1 1 1 1 1 1 
1 2 2 2 2 2 2 1 1 
1 2 2 1 2 1 2 1 2 
2 2 2 2 1 2 1 2 2 
2 2 1 2 2 2 1 2 2 
2 1 2 1 2 1 2 1 2 
2 2 1 2 2 1 1 2 1 
1 2 2 2 2 2 2 2 1 
2 1 1 1 1 2 1 2 2 
2 2 2 1 1 2 2 2 2 
1 1 1 1 1 2 2 2 2 
2 1 2 2 1 2 1 1 1 
1 2 1 2 2 1 2 2 1 
2 1 2 2 1 1 2 2 2 
1 2 1 2 1 2 1 2 1 
2 2 1 2 2 2 1 2 1 
1 1 2 1 2 2 1 1 2 
2 1 1 2 2 1 1 1 2 
1 1 1 1 2 2 1 1 2 
2 1 1 1 2 1 2 2 2 
2 2 1 2 1 1 2 1 2 
1 1 2 1 1 1 2 2 2 
2 2 2 2 2 1 2 2 1 
2 1 1 2 2 1 2 1 1 
2 2 1 2 1 1 2 1 2 
2 2 1 1 2 2 1 2 1 
2 2 1 1 1 1 2 2 2 
1 2 1 2 2 2 2 2 1 
2 1 1 1 2 2 1 1 2 
2 1 2 2 1 2 1 1 2 
1 2 1 2 2 2 1 2 2 
1 2 1 1 2 2 1 2 2 
2 1 2 1 1 2 1 2 2 
2 1 2 1 1 2 1 1 2 
1 2 2 1 1 2 1 1 2 
2 2 2 1 2 2 1 1 2 
2 2 2 2 2 2 2 1 1 
1 2 2 1 1 2 2 2 1 
1 2 2 1 1 1 1 1 2 
2 1 1 2 1 1 2 2 2 
1 1 2 2 2 2 1 2 1 
1 1 2 1 1 1 2 2 1 
1 2 2 1 1 2 2 1 2 
1 1 1 1 1 1 2 2 1 
1 1 2 2 2 2 2 2 2 
1 2 2 2 2 1 2 2 2 
2 1 2 1 1 1 2 1 1 
1 2 2 1 1 1 2 1 2 
1 
i 3 1000 int
-31 0 1 154 1 0 139 1 1 
-71 0 1 233 1 1 -95 0 1 
-76 0 0 -46 0 1 -13 0 0 
-46 0 1 -82 0 2 -63 0 1 
-124 0 0 -91 0 1 -95 0 1 
-39 0 0 -52 0 0 -53 0 2 
-9 0 0 231 1 0 99 1 -1 
-8 0 0 -13 0 0 -12 0 0 
104 1 0 -38 0 1 19 0 0 
-21 0 0 91 0 0 -46 0 0 
1 0 0 -36 0 1 -45 0 1 
151 1 0 57 0 0 121 1 0 
-46 0 1 -48 0 1 -43 0 1 
108 1 0 207 1 1 -86 0 1 
141 1 1 -32 0 1 -33 0 0 
-15 0 1 -110 0 1 -40 0 0 
-84 0 0 -39 0 1 9 0 1 
-53 0 1 -176 0 1 122 1 0 
132 1 0 -37 0 0 -95 0 0 
60 0 0 -145 0 0 -130 0 0 
116 1 0 238 1 1 180 1 1 
-31 0 0 -99 0 1 135 1 0 
193 1 1 -74 0 1 -39 0 0 
225 1 0 -17 0 -1 -15 0 0 
-85 0 0 176 1 0 -55 0 0 
-22 0 0 33 0 -1 -127 0 0 
-78 0 0 -58 0 1 165 1 0 
23 0 0 19 0 0 -126 0 0 
-99 0 0 -105 0 1 -95 0 1 
-124 0 1 122 1 0 -6 0 0 
-14 0 0 -23 0 0 259 1 1 
-46 0 1 -16 0 1 -6 0 0 
-42 0 0 -32 0 1 -113 0 -1 
-18 0 0 -113 0 -1 -13 0 0 
143 1 0 -92 0 0 18 0 0 
-58 0 1 -127 0 0 136 1 -1 
-21 0 0 129 1 0 -35 0 0 
165 1 -1 121 1 -1 97 1 0 
-81 0 0 -122 0 0 147 1 0 
-122 0 -1 -39 0 0 -5 0 1 
-50 0 0 -77 0 0 -3 0 0 
237 1 1 199 1 0 -2 0 -1 
3 0 0 67 1 0 -97 0 0 
-120 0 1 -88 0 1 94 1 -1 
-146 0 0 -91 0 1 -67 0 0 
-20 0 -1 -1 0 -1 -35 0 0 
-63 0 1 -134 0 -1 55 0 0 
-4 0 0 -164 0 0 187 1 0 
-19 0 0 -12 0 0 -44 0 0 
110 1 -1 -58 0 1 91 1 -1 
17 0 -1 11 0 0 -81 0 0 
77 1 -1 -100 0 0 -38 0 0 
-52 0 0 -130 0 0 120 1 0 
31 1 0 -69 0 0 27 0 -1 
-29 0 1 -2 0 -1 71 1 0 
149 1 0 62 0 0 50 1 -1 
-95 0 1 19 0 0 152 1 1 
-6 0 0 -38 0 -1 -89 0 0 
-139 0 0 143 1 0 47 0 0 
7 0 0 -34 0 0 -141 0 0 
43 0 0 -75 0 0 -121 0 0 
-54 0 0 -28 0 1 187 1 0 
174 1 0 104 1 0 19 0 0 
14 0 -1 -14 0 0 -71 0 1 
275 1 0 -37 0 0 27 0 -1 
-9 0 0 -4 0 0 149 1 0 
-121 0 0 157 1 0 16 0 -1 
-229 -1 0 -91 0 0 -145 0 -1 
-194 0 -1 -180 0 0 -10 0 0 
-66 0 0 143 1 0 -68 0 0 
52 0 -1 -19 0 0 -39 0 0 
-87 0 0 85 1 -1 160 1 0 
-12 0 0 -7 0 -1 147 1 1 
129 1 0 -44 0 0 165 1 0 
-109 0 0 24 0 0 21 0 -1 
-13 0 0 90 1 -1 -46 0 0 
-120 0 -1 -26 0 0 -104 0 -1 
-16 0 0 -51 0 -1 -204 -1 0 
-74 0 0 58 0 0 0 0 -1 
-97 0 0 -49 0 0 234 1 0 
-122 0 0 13 0 0 -108 0 0 
8 0 0 131 1 -1 -68 0 0 
-45 0 0 7 0 0 -72 0 0 
146 1 -1 -68 0 0 -47 0 0 
-37 0 0 -82 0 -1 -34 0 0 
123 1 -1 -113 0 0 -106 -1 -1 
94 0 1 -21 0 0 71 0 -1 
-144 -1 2 162 0 0 32 0 1 
-147 -1 0 -132 0 1 -187 -1 1 
86 0 0 87 0 0 -46 0 0 
23 0 0 -60 0 1 -6 0 0 
9 0 0 -98 -1 1 24 0 0 
-161 -1 1 117 0 1 33 0 -1 
60 0 0 -191 -1 -1 -197 -1 0 
68 0 0 68 0 0 39 0 1 
-5 0 0 -9 0 0 15 0 0 
-238 -1 0 -90 -1 1 -39 0 0 
-20 0 0 -147 -1 0 0 0 1 
-262 -1 0 -177 -1 1 -45 0 1 
14 0 1 31 0 1 63 0 0 
-47 -1 1 -18 0 1 -111 -1 0 
109 0 0 -148 -1 1 91 0 0 
68 0 0 -12 0 0 -13 0 0 
-72 -1 1 -73 -1 1 -29 0 1 
36 0 0 131 0 0 37 0 0 
83 0 0 -194 -1 1 165 0 0 
-133 -1 0 41 0 0 7 0 0 
-90 -1 1 -163 -1 1 153 0 0 
122 0 0 -198 -1 1 9 0 1 
115 0 1 66 0 0 -80 -1 0 
42 0 0 98 0 1 44 0 0 
34 0 0 51 0 1 -7 0 0 
-20 -1 1 -161 -1 1 -195 -1 1 
79 0 0 162 0 1 23 0 0 
87 0 1 58 0 0 66 0 -1 
16 0 0 -142 -1 0 62 0 0 
-113 -1 0 31 0 0 37 0 1 
-18 0 1 -16 0 0 -81 -1 0 
82 0 0 51 0 0 13 0 0 
-75 -1 0 55 0 0 20 0 0 
-55 -1 1 -74 -1 0 22 0 1 
76 0 0 50 0 0 -278 -1 0 
103 0 0 -143 -1 -1 -169 -1 -1 
-29 0 0 12 0 -1 -73 -1 -1 
49 0 0 46 0 0 -139 -1 0 
53 0 0 -208 -1 1 -95 -1 1 
0 0 0 -64 -1 1 5 0 0 
136 0 0 56 0 0 9 0 1 
94 0 0 -57 -1 1 89 0 -1 
48 0 1 141 0 1 166 0 0 
-21 0 0 71 0 0 287 1 0 
44 0 -1 -125 -1 1 -106 -1 0 
42 0 -1 43 0 0 -83 -1 0 
-164 -1 -1 65 0 0 -61 0 0 
70 0 0 -215 -1 0 30 0 0 
70 0 0 -148 -1 1 -12 0 0 
97 0 0 29 0 0 70 0 0 
17 0 0 -149 -1 0 68 0 -1 
31 0 -1 -173 -1 -1 58 0 -1 
94 0 0 104 0 -1 53 0 0 
76 0 0 69 0 1 111 0 -1 
109 0 -1 29 0 0 -158 -1 1 
90 0 0 -106 -1 0 59 0 -1 
129 0 0 4 0 0 -128 -1 -1 
27 0 0 -36 0 0 35 0 -1 
-104 -1 0 -8 0 0 25 0 0 
37 0 0 110 0 -1 37 0 -1 
-141 -1 0 43 0 0 93 0 1 
31 0 -1 -122 -1 0 282 1 0 
114 0 0 39 0 0 69 0 -1 
16 0 -1 42 0 -1 -26 0 0 
21 0 -1 -160 -1 -1 52 0 0 
53 0 0 78 0 0 -17 0 -1 
51 0 0 93 0 -1 -107 -1 0 
-191 -1 -1 108 0 -1 48 0 -1 
43 0 -1 103 0 0 47 0 -1 
-118 -1 -1 9 0 0 61 0 0 
90 0 0 -209 -1 -2 21 0 0 
81 0 0 73 0 0 -151 -1 0 
-36 -1 -1 95 0 -1 153 0 0 
-99 -1 0 -9 0 -1 122 0 -1 
93 0 -1 12 0 -1 4 0 -1 
28 0 -1 -136 -1 0 127 0 -1 
-130 -1 -1 3 0 -1 62 0 -1 
118 0 -1 -176 -1 0 -21 0 0 
-26 0 -1 -143 -1 -1 -129 -1 0 
39 0 -1 91 0 -1 -30 0 0 
5 0 -1 22 0 0 57 0 -1 
10 0 0 -42 0 -1 -30 0 -1 
-15 0 0 72 0 0 89 0 -1 
-123 -1 -1 36 0 0 13 0 -1 
75 0 -1 81 0 0 29 0 0 
37 0 -1 52 0 0 57 0 -1 
-13 0 0 15 0 -1 -149 -1 -2 
-140 -1 -1 31 0 0 143 0 0 
14 0 0 -93 -1 0 64 0 -1 
40 0 -1 88 0 -1 -127 -1 0 
49 0 -1 40 0 0 -113 0 -1 
-95 0 1 -79 0 0 -68 0 1 
-44 0 0 149 1 1 -81 0 1 
-102 0 0 -80 0 1 -14 0 0 
-64 0 1 -53 0 0 -19 0 0 
168 1 0 81 1 0 -96 0 0 
-20 0 1 168 1 0 180 1 1 
-34 0 0 177 1 0 -77 0 1 
-100 0 1 -6 0 0 77 1 0 
5 0 0 109 1 0 184 1 1 
-114 0 2 -48 0 1 -36 0 1 
172 1 0 -70 0 1 27 0 0 
-48 0 1 -27 0 0 6 0 0 
-99 0 1 -10 0 0 201 1 0 
-71 0 1 -99 0 0 -45 0 0 
-70 0 1 115 1 0 -111 0 1 
177 1 1 -64 0 1 -35 0 0 
26 0 0 76 1 0 137 1 1 
2 0 1 243 1 0 110 1 0 
-59 0 1 173 1 1 -55 0 1 
-56 0 0 42 0 0 -128 0 1 
-16 0 1 -60 0 0 146 1 0 
207 1 0 135 1 -1 -75 0 0 
-22 0 0 50 0 0 27 0 0 
-82 0 0 -65 0 0 155 1 -1 
-7 0 1 -39 0 0 -15 0 1 
-53 0 1 118 1 0 112 1 0 
-22 0 1 113 1 0 -130 0 1 
198 1 0 149 1 1 -54 0 0 
-54 0 0 161 1 0 -27 0 0 
-93 0 1 -122 0 0 54 0 -1 
19 0 -1 -59 0 1 -38 0 0 
111 1 0 -37 0 1 -169 0 0 
-44 0 1 153 1 0 -30 0 1 
-71 0 1 -34 0 0 -62 0 1 
27 0 0 97 1 0 152 1 0 
-79 0 0 -86 0 0 -82 0 0 
-38 0 0 135 1 -1 -10 0 1 
-43 0 0 25 1 -1 -73 0 0 
-46 0 0 18 0 0 28 0 0 
-14 0 0 219 1 0 -19 0 0 
-55 0 0 -45 0 1 28 0 0 
93 1 -1 -36 0 0 100 1 0 
52 0 -1 86 1 -1 -48 0 1 
-134 0 0 -90 0 1 146 1 0 
-44 0 0 -58 0 1 22 0 0 
-103 0 0 135 1 -1 27 0 1 
-61 0 1 -96 0 0 -90 0 1 
-56 0 1 146 1 1 5 0 0 
4 0 -1 21 0 0 1 0 0 
-9 0 -1 153 1 -1 -114 0 0 
-37 0 0 -84 0 0 19 0 0 
-67 0 0 -69 0 1 -104 0 -1 
-7 0 0 -8 0 -1 178 1 -1 
20 0 -1 -92 0 0 -126 0 0 
-38 0 -1 158 1 -1 181 1 0 
-43 0 0 -82 0 0 -37 0 0 
-80 0 0 141 1 0 -40 0 0 
24 0 0 90 1 0 -87 0 0 
-1 0 -1 -51 0 0 73 0 0 
1 0 -1 -121 0 0 129 1 0 
-16 0 0 -34 0 0 -49 0 0 
13 0 -1 -60 0 0 43 0 -1 
-128 0 0 -80 0 -1 189 1 0 
85 1 0 -23 0 -1 129 1 0 
-18 0 0 -231 -1 0 -111 0 0 
-78 0 1 -89 0 1 -120 0 0 
72 0 -1 -37 0 0 -105 0 0 
11 0 0 98 1 -1 -73 0 0 
-77 0 0 129 1 0 137 1 0 
81 0 -1 81 1 -1 -99 0 -1 
-42 0 0 -54 0 0 -26 0 0 
-98 0 0 -39 0 0 -74 0 0 
-19 0 0 -33 0 0 -63 0 0 
-90 0 -1 -86 0 -1 -90 0 0 
-13 0 0 -91 0 0 22 1 0 
24 0 0 -99 0 -1 19 0 -1 
-42 0 0 -36 0 0 -78 0 1 
16 0 -1 -33 0 0 -41 0 0 
-131 0 0 24 0 0 -32 0 0 
-15 0 1 -32 0 0 78 0 -1 
48 0 -1 -130 0 -1 3 0 0 
-116 0 0 -35 0 -1 19 0 0 
-106 -1 0 43 0 -1 -179 -1 0 
-35 0 1 86 0 0 77 0 0 
1 0 0 25 0 0 69 0 0 
87 0 1 -186 -1 0 71 0 1 
61 0 0 99 0 -1 -5 0 0 
106 0 1 39 0 1 103 0 1 
-15 0 1 121 0 1 -183 -1 0 
-6 0 1 -52 0 1 -22 0 1 
33 0 1 9 0 0 -12 0 0 
21 0 0 -27 0 0 50 0 0 
-97 -1 0 51 0 1 -1 0 1 
155 0 1 -147 -1 1 -18 0 0 
139 0 0 -84 -1 0 -2 0 1 
-98 -1 0 70 0 0 24 0 0 
116 0 0 71 0 0 -197 -1 2 
17 0 0 109 0 0 81 0 0 
-115 -1 1 16 0 0 32 0 0 
10 0 0 61 0 0 -124 -1 0 
-169 -1 0 129 0 0 -1 0 0 
123 0 0 76 0 -1 83 0 0 
-17 0 1 135 0 1 33 0 1 
-18 0 1 52 0 0 79 0 0 
13 0 0 116 0 0 27 0 0 
78 0 -1 -13 0 0 -162 -1 -1 
61 0 0 11 0 0 15 0 1 
115 0 -1 72 0 0 27 0 -1 
-132 -1 0 62 0 0 61 0 0 
87 0 0 -114 -1 0 77 0 0 
-161 -1 0 -12 0 0 109 0 0 
-4 0 0 28 0 0 119 0 0 
47 0 0 75 0 -1 -192 -1 0 
165 0 0 49 0 0 46 0 0 
90 0 0 48 0 -1 30 0 0 
97 0 0 24 0 0 124 0 1 
-159 -1 0 -6 0 1 58 0 0 
73 0 -1 61 0 0 -15 0 0 
22 0 0 -236 -1 -1 54 0 0 
125 0 0 116 0 1 -124 -1 0 
11 0 -1 76 0 0 90 0 1 
51 0 0 50 0 -1 57 0 0 
67 0 -1 26 0 0 69 0 0 
28 0 -1 60 0 0 42 0 -1 
-92 -1 -1 -150 -1 0 107 0 0 
36 0 0 56 0 0 -52 -1 0 
-119 -1 -1 -37 0 0 67 0 0 
-4 0 -1 -4 0 0 -161 -1 -1 
122 0 0 130 0 0 110 0 0 
39 0 -1 -194 -1 -1 73 0 0 
-134 -1 0 -215 -1 0 64 0 0 
-164 -1 0 65 0 0 63 0 -1 
190 1 -1 -179 -1 0 130 0 -1 
-112 -1 0 22 0 -1 -94 -1 0 
36 0 0 -147 -1 0 62 0 0 
40 0 0 -166 -1 0 40 0 0 
37 0 0 -181 -1 0 -1 0 -1 
14 0 0 74 0 1 71 0 -1 
92 0 0 93 0 0 89 0 -1 
30 0 -1 -32 0 0 -130 -1 -1 
32 0 0 124 0 0 155 0 0 
57 0 0 127 0 -1 38 0 0 
218 1 -1 -41 -1 0 3 0 0 
109 0 -1 311 1 -1 -99 -1 -1 
16 0 0 103 0 0 1 0 0 
74 0 -1 50 0 0 79 0 -1 
31 0 -1 131 0 0 79 0 0 
34 0 -1 21 0 0 -113 -1 -1 
-93 -1 -1 -137 -1 0 18 0 0 
8 0 0 40 0 -1 -182 -1 0 
52 0 0 -11 0 0 -86 -1 0 
-30 0 0 -223 -1 0 -146 -1 -1 
-134 -1 -1 -23 0 -1 39 0 -1 
-52 -1 0 75 0 -1 70 0 -1 
27 0 0 -108 -1 0 11 0 -1 
-19 0 0 
v 3 1000 double
-157.74394257 4.3326484493 18.950953294 -423.94580037 -3.8319603085 13.053192916 -456.25215992 0.95436352237 5.0311618099 
-292.87956124 15.343192735 20.693963784 -211.73827894 -6.8703991624 10.60947303 -316.71088995 -10.447004663 16.013867747 
-271.6536154 -5.4132324678 -9.1052373581 -114.02087838 26.843215204 2.2582660238 -193.88493516 -22.778925181 -2.6776207203 
-197.50222698 -3.0990307643 -0.77067524861 -318.26096934 -9.7584430437 8.5357103289 -415.78034128 9.0750409794 -9.9170796066 
-344.36513758 -7.6214261097 29.769904494 -429.33735292 -13.029192945 14.470049377 -430.39150209 -18.602022603 11.312686528 
-287.13713943 -9.4161487901 30.6659624 -338.27706546 -32.351135324 17.868427214 -323.90074128 -15.813786381 1.9514723906 
-203.20002576 -9.5634573835 5.3402048613 -339.91621456 -11.004057749 -22.685733053 -448.4070871 -5.5625323802 6.6526379367 
-128.67168631 3.9000262101 -12.19125411 -50.220111375 -21.47152263 -0.14780402728 -70.041748243 1.0862761778 -7.4189538627 
-358.02295648 3.4746121422 5.5294870504 -1.5522662289 -8.9538739419 -26.155311532 -114.20793896 -2.2558787395 14.509804052 
-20.975759227 -2.291246343 -12.649312048 -6.4770559936 -21.427657764 -14.800610782 -98.996857328 6.3607213793 -27.772344138 
-198.83882499 7.5773381576 13.082475206 -28.187106363 -13.711682899 -16.394265849 -326.78160141 -13.520829317 8.751412718 
-353.48939364 17.056094535 -7.5428095672 -10.390762566 -17.609641174 -1.1344655823 -107.40383315 12.147472183 17.853959732 
-125.85667948 -6.0520506919 28.463521054 -398.75306416 -0.11860134552 7.2657946927 -77.901020768 -36.030919645 6.6497677493 
-428.58335156 -1.8957448053 15.408899761 -239.91195226 6.9497467202 -9.9279938122 -490.71419574 2.6931012755 18.505372859 
-409.76361534 11.571299558 -39.524050856 -49.570129878 -12.336875087 -10.760804591 -270.31985679 7.0746629062 -24.717156207 
-81.064753557 14.841235276 -11.099133822 -318.16994938 -9.6267034061 -7.3944044299 -203.03666497 18.41486612 0.74664366741 
-472.42760522 17.434583219 -18.797220878 -90.733532648 5.0451550885 12.551066816 -237.96050845 13.252819826 6.3280344618 
-202.92946831 1.9572499823 25.69749394 -435.27831776 -6.6700999032 -15.663643354 -184.98937402 6.3265339457 -2.392491968 
-430.36868708 5.0827879544 6.3513469039 -277.427537 -2.8621289213 11.509307295 -331.03292801 -5.1911858209 3.9702228854 
-63.208451939 -3.9404613659 -32.127534678 -456.82535326 11.526829681 -2.2152222354 -395.07403141 -4.1488799633 -2.6927047051 
-315.75723964 25.486223785 -39.494295112 -98.47108239 15.970342675 13.113761439 -108.25689191 -18.968365813 -9.3421793 
-217.13107205 1.7508154149 -2.7523239012 -355.76212835 8.8690318949 18.772065446 -346.90607443 10.266747361 -40.288265588 
-346.93102577 4.8791906883 -1.2360338819 -342.8923389 -12.221393978 33.026277682 -242.29012798 15.824972412 10.923280128 
-134.4794491 12.767503515 7.7044959196 -190.87890895 -1.6553317837 0.91598666123 -49.348684733 -22.412936837 2.2273711487 
-203.31840306 -1.0176876813 5.7305310131 -435.69652832 7.6964157205 -1.7334700735 -195.21313053 29.199797228 -18.175524898 
-242.55722106 14.269250722 -0.65616476583 8.1867988723 12.941059897 -8.5639482504 -443.29628811 12.635227366 -15.222675517 
-338.45485773 -8.1305618262 -2.3705168873 -167.74831871 11.33289271 -6.3591709245 -215.05440798 -6.7934629021 17.144646609 
15.441970308 -13.181476195 -19.850782505 -57.033554892 -7.7535659668 31.26116635 -495.05830378 2.9216858426 -24.714973748 
-241.30360934 3.3669717956 -8.8230005032 -508.04689917 5.5974212789 0.57380324349 -443.53007942 1.7191231553 -10.852767811 
-320.21056772 -13.619029009 28.428870728 -243.51575502 -17.078550807 -4.4108355667 -57.019713536 -19.841790993 11.897814767 
-126.63292264 7.9926018789 11.006336573 -129.38558888 4.4501987999 -15.969496961 9.6189909587 1.7671736507 3.9093365588 
-449.9228345 26.722022979 3.7701909545 -58.005988237 18.34564635 8.202771038 16.191317737 2.5993792295 7.382729377 
-250.39414445 13.778202634 -3.3751501741 -259.52660436 8.2570467952 -12.861829511 -333.35321306 -5.6144916353 -40.146773075 
-25.664570029 8.4276654207 -6.7905646957 -327.47102054 0.68252594708 -4.3390091565 -131.24549292 -7.8023331657 -10.441306051 
-375.69485169 9.0174010608 -7.6839209379 -128.19893924 -34.068163498 -14.27516345 -188.83387427 -10.450280732 -23.741885241 
-55.144296333 -4.5813128533 10.660134203 -329.92624516 15.738661447 -37.038881693 -431.25410702 5.4006456789 2.1910068503 
-247.73062708 8.4597076011 -6.8592718703 -442.52494605 5.9600757006 -2.6777011957 -450.68702513 11.227158511 -4.4267700328 
-267.72138051 16.606948103 8.1680909852 -259.25797271 15.069849252 -14.586310086 -331.17489589 7.2111253525 18.812837304 
-344.2203718 -23.529076853 -2.4808576297 -427.16411904 -37.207657094 -1.438733067 -346.11630354 -11.437795038 -16.489664116 
-449.2722873 2.2698406264 -5.0867900573 40.742269228 -29.393747635 2.6139525213 -47.704145571 -21.13135662 15.052996636 
-107.32517338 -0.77878452668 -18.409128038 -13.06385104 7.5326072109 14.110442332 -65.073297932 19.579321803 -8.8182705295 
33.992421132 -18.517510167 9.8215856013 -215.64382066 -24.612663287 -36.683678105 -67.365191426 2.2127841764 20.023547979 
6.5578882104 8.6752518157 7.0692329763 -399.78165127 7.8283543991 19.033777004 -175.78491933 13.037777944 -1.4666009565 