# vtk DataFile Version 4.2
Generated by LIGGGHTS
ASCII
DATASET POLYDATA
POINTS 1000 float
0.158076 0.688619 0.108513 1.76393 1.95708 1.1671 1.54292 1.69867 0.292104 
1.02574 1.17723 1.47637 0.899372 0.0272797 1.86729 1.81506 1.83384 1.98841 
0.0464896 0.235267 1.97177 0.243776 0.465567 1.00365 2.76736 4.89424 0.984355 
2.17964 1.19529 0.19528 0.275949 1.05135 1.44426 1.63255 2.67006 0.606042 
2.00181 3.50853 0.63417 0.850498 0.301776 0.870697 3.19317 2.58081 0.406786 
4.60181 0.513809 0.363267 1.06237 2.34848 1.65208 3.80287 0.173319 0.321656 
0.383692 2.8683 1.4615 2.41458 3.19572 1.39726 1.59463 0.212397 1.01942 
0.939404 1.71874 0.773191 1.7395 0.945993 1.76111 0.0489527 1.71235 0.865951 
0.277978 2.68796 0.483268 2.00076 4.20389 1.03245 4.44905 1.49885 1.77745 
1.80759 4.48176 1.98638 2.84057 4.45491 0.182319 4.19739 2.56821 1.15243 
3.57758 1.06474 1.41002 1.4302 4.5877 0.784544 3.07288 3.28558 0.71321 
0.881153 4.72376 1.70254 2.88911 4.84958 1.87839 3.49613 4.83223 0.828819 
4.28047 3.74996 1.23862 0.466553 3.71718 1.57026 0.77984 3.66632 0.699586 
4.37274 1.87163 0.758856 3.71734 2.26162 0.263358 3.37413 2.64726 1.30816 
4.18497 0.979969 0.902583 2.71598 1.77242 1.80821 3.13687 0.596176 0.544461 
4.09085 3.41578 0.175048 2.45643 4.05659 1.64777 2.49507 0.899272 0.963894 
2.58526 1.88057 0.814044 2.68994 2.58761 1.83003 3.28765 4.01285 0.396842 
3.32869 1.73745 1.30718 4.00156 1.88167 1.92293 4.7865 3.1423 1.63261 
4.89512 3.23464 0.680036 2.06951 0.59034 2.86227 4.1625 1.59944 2.7809 
4.45333 2.32916 3.7489 1.6038 3.67327 3.93842 4.67037 3.10309 3.88896 
1.98591 2.17468 2.81929 2.15808 2.7394 3.41103 1.5961 0.855603 3.61746 
4.41092 4.03749 2.99396 2.76833 1.00625 2.3145 1.81662 3.96685 2.87331 
2.2568 0.077815 3.51296 0.938077 1.7052 3.4261 4.56337 4.39339 3.97428 
1.46519 3.50884 2.02908 1.71821 0.14506 2.10175 0.705205 0.129323 2.85347 
0.707048 3.83181 2.43139 1.81962 1.81494 3.68591 1.65199 1.28316 2.78035 
1.43001 2.75886 3.26756 2.20807 3.33591 2.40966 2.36032 1.54464 2.66614 
0.553727 0.794047 3.56545 3.81068 2.299 3.06944 0.991012 0.861381 2.40176 
2.82433 3.78932 3.93336 0.705926 2.98881 3.67402 0.123495 2.78801 2.60763 
0.201756 4.36653 3.46127 3.74475 2.8484 2.27038 3.81845 0.1506 3.67 
2.84902 2.0375 3.23371 4.26303 1.43709 3.69315 0.962565 4.81183 3.76679 
3.77094 3.07157 3.52839 0.00792033 3.3338 3.15851 0.0470516 3.68498 3.98231 
0.680204 4.61563 2.81188 3.71478 0.656774 2.82605 4.32966 3.57721 2.22552 
2.58192 3.80648 3.16054 2.68029 4.82268 3.01487 3.96924 2.41301 2.05594 
1.18644 4.19389 3.36595 4.24272 0.514584 2.01997 4.75284 4.85343 2.1506 
4.88817 2.26881 2.668 4.89413 3.17123 2.95604 1.55641 0.268709 5.35387 
1.56878 3.18745 5.69676 0.40864 2.05064 4.18766 1.0316 1.43433 5.8858 
4.08841 4.33324 4.70686 1.97238 2.61931 4.60921 0.273174 2.43775 5.02917 
4.2437 2.93408 5.94399 0.287779 0.63313 5.53786 0.659785 0.195692 4.24936 
0.686793 0.0414703 5.26846 1.53588 4.01168 5.07784 0.105506 0.846174 4.48253 
2.05296 0.545774 4.27298 2.72841 2.545 4.05263 1.40965 1.85538 4.74162 
2.71275 2.01591 5.45276 1.95469 4.1306 5.92219 0.377679 1.50785 5.22033 
1.75328 3.28125 4.75277 4.49568 2.29803 5.71451 1.06356 1.05648 5.09032 
1.77616 1.21377 4.45496 0.607222 4.34314 5.28135 0.0266151 2.357 5.96309 
2.97377 3.28347 4.63876 1.72227 4.54911 4.3799 0.0553101 2.83332 4.29018 
0.733031 3.71013 4.60238 4.44902 0.0880766 4.37372 2.97857 4.01582 5.19734 
2.65943 4.83436 5.13564 4.3576 1.02716 5.93615 3.68535 2.95858 5.16672 
3.5806 2.0852 5.46097 2.85468 1.66944 4.00862 3.26812 4.59451 4.1738 
4.04566 1.80211 4.87184 2.84214 3.12938 5.54563 1.20272 4.92378 5.84371 
0.636925 4.53933 4.4253 2.69944 1.35011 4.75855 0.344653 3.23786 5.37579 
3.68631 3.77742 5.57567 3.40362 1.14934 5.69493 3.29436 4.80033 5.71884 
3.64646 2.51571 4.33529 4.16345 0.680763 4.36087 4.87563 1.7804 5.43156 
4.87348 2.16183 4.5811 2.17582 0.262044 6.11343 2.17362 3.08728 7.33206 
0.913666 3.18497 7.15063 2.70265 3.84002 6.3186 0.0993883 0.836123 7.70316 
4.6409 1.64099 7.36021 4.09107 4.6217 6.1444 0.251281 4.20154 7.49729 
3.65921 0.167637 7.47221 0.860449 2.22048 7.39703 3.31283 0.97621 7.61741 
1.80109 3.92782 7.0859 1.57807 0.587993 7.41073 4.32018 2.8183 6.85386 
1.70573 0.221184 6.72687 2.53297 4.00058 7.70057 0.640164 0.621572 6.84946 
0.881019 2.71059 6.34416 2.02427 1.63848 7.39638 2.46528 0.540149 7.50076 
1.39549 2.05498 6.3589 3.61311 2.08731 6.34109 3.9955 1.37148 6.63889 
3.39617 3.44958 6.70677 0.430583 3.34367 6.22012 1.21423 4.02931 7.85605 
4.50427 0.259886 7.59176 -0.0119935 3.00671 7.13566 4.31591 2.82959 7.76523 
3.51625 4.51112 7.04177 2.81844 2.57514 6.33946 3.33361 2.23447 7.89108 
2.11012 4.749 6.64933 0.457596 4.15623 6.07895 1.09132 0.844417 7.99313 
3.36842 3.16838 7.91655 3.74896 1.81448 7.27028 4.38459 3.71088 6.38094 
0.879586 3.99389 6.89204 1.31814 4.77726 6.77042 0.121661 4.48508 6.64868 
2.74694 4.96887 7.30362 3.44565 2.60424 7.0265 4.10204 3.87841 7.3392 
2.96962 4.80868 6.46121 3.04289 1.03192 6.74935 4.95848 0.340533 6.76087 
1.6355 1.56165 8.75314 3.70895 3.97853 9.53286 2.25654 0.0185949 8.21102 
4.30111 4.48894 8.6627 1.80943 0.458038 9.68558 0.340332 1.61579 8.09111 
1.71151 0.302256 8.65327 2.37297 2.24057 8.48199 1.63671 3.27569 8.19373 
3.8626 1.75876 9.80912 3.54985 0.789513 9.6738 0.136949 0.170644 9.25234 
2.12243 4.24232 9.82329 2.42129 3.77818 9.15309 4.71407 2.00633 8.46773 
2.19396 2.69617 9.58426 4.01107 1.71026 8.14502 0.57675 0.841899 8.67417 
1.01186 1.88477 8.98372 1.14596 0.476351 9.07069 0.62159 1.48741 9.84786 
0.255033 2.16088 9.45237 2.00171 1.08953 8.15244 1.40843 1.21227 9.57709 
3.58831 4.74646 9.26372 2.70574 4.74938 9.19353 2.79811 1.26631 8.60947 
1.10306 4.82356 8.15446 0.306364 3.27356 9.00338 3.60408 0.104517 9.1379 
3.51525 4.12727 8.31343 2.8293 3.32339 8.73091 0.519244 4.20749 8.62797 
4.3774 4.73675 9.90821 4.33896 3.21166 9.38154 1.41473 4.14006 8.88981 
0.992697 2.94602 9.90244 0.203689 3.69991 9.88663 2.93647 2.48452 9.60761 
3.98798 0.625942 8.44327 2.82319 4.35395 8.48761 2.34627 1.68898 9.36164 
-0.00977963 2.44529 8.45298 2.9734 1.261 9.84278 3.69694 1.35053 8.95495 
4.43274 3.67676 8.51165 2.72308 3.51968 9.91356 2.56114 4.92025 8.13032 
3.31215 2.45058 8.76908 4.64123 2.5662 9.11914 4.783 2.67432 9.9961 
4.92992 0.329835 8.38068 3.49444 6.7777 1.3506 2.94306 9.76726 1.70995 
3.30708 6.118 1.98838 4.29042 9.25441 1.94461 1.06856 9.06661 0.864957 
3.1846 5.81082 1.23137 3.68272 7.94247 1.01862 2.6903 7.03158 1.792 
0.34646 8.62473 1.63141 3.76474 9.84847 1.19515 3.86724 7.55744 1.72865 
4.4584 8.36692 1.08452 1.19773 9.80226 0.185408 3.38539 9.19482 0.222233 
2.26132 5.10075 1.29558 3.326 5.86097 0.393019 4.09711 8.80406 0.564295 
1.97412 9.58857 1.4136 2.97773 7.22225 0.900575 1.23322 7.35457 1.57878 
3.51811 8.13042 0.215096 2.34224 5.03913 0.342916 0.106478 6.49645 0.660428 
2.79626 6.23212 0.816654 3.22374 8.25445 1.67783 1.72801 8.67441 0.316498 
1.62488 5.49534 0.3819 4.52857 6.78584 1.28923 1.49712 7.0781 0.68015 
1.27336 5.62801 1.28803 2.08729 6.63173 1.09811 2.08235 8.31937 1.11161 
3.80478 7.12532 0.447277 0.453683 7.36208 0.377473 0.419449 6.75448 1.93615 
1.29472 8.20329 1.61142 2.28776 6.91477 0.103323 0.0706468 5.59184 0.35403 
2.10734 5.61151 1.50298 2.0867 6.13128 1.88311 2.07096 7.49836 1.74419 
4.47103 7.21345 1.84765 3.0421 9.14706 1.04545 4.21937 5.5414 0.213229 
0.726042 8.14391 0.879583 4.53142 9.59157 1.23667 4.22583 6.48743 0.551349 
2.47983 8.56907 1.92545 2.73669 8.20815 0.528749 4.88387 8.71214 1.95783 
4.35866 5.10521 3.42127 4.54957 9.96322 3.38826 1.27998 9.63466 2.85617 
3.48003 5.18259 3.30152 3.09434 6.62416 2.49637 0.91754 6.0735 3.62917 
3.9572 8.98882 2.70719 2.59959 5.47276 2.27129 2.47606 7.76647 3.95336 
4.34624 8.0715 2.50533 3.58824 8.03953 3.15067 0.0823435 9.3039 2.24263 
4.76 7.89814 3.61308 1.38593 9.27349 3.82738 0.651675 8.94485 3.22224 
0.331112 8.33534 3.92007 2.50304 6.9071 2.73319 3.22078 6.8818 3.64803 
2.81486 5.71223 3.18948 0.750356 8.24316 2.86378 0.0453376 9.46296 3.21448 
1.27557 8.59289 2.28273 3.8363 8.82271 3.88299 4.47421 8.65448 3.32129 
1.7576 6.66901 2.14234 1.08625 8.09122 3.77524 -0.0188775 6.84786 2.68789 
1.13463 5.53398 3.26777 2.2741 8.52534 3.04786 2.83153 8.07525 2.90319 
2.39002 9.39836 2.24752 0.320666 5.74202 2.91737 1.65965 7.73401 3.34825 
2.17966 7.29793 3.15364 1.78909 5.29468 3.41835 1.84195 6.0809 2.75967 
0.585486 5.48339 2.07406 2.02338 8.5588 3.97577 2.01094 6.40099 3.49979 
1.37744 6.89963 3.80081 1.07758 6.7463 2.89307 4.77563 7.04743 3.18686 
2.04518 5.47832 2.55336 1.29367 5.21725 2.50461 3.88885 6.24931 2.86834 
2.19461 9.29189 3.21379 4.79729 9.25636 2.69111 2.59311 6.224 3.25501 
3.42426 7.75329 2.33391 3.38795 7.79645 3.9725 0.249364 5.22443 3.9281 
3.63671 9.73491 2.86425 3.96935 7.41241 3.07523 4.10631 6.76817 3.65712 
0.494668 6.77644 3.97267 4.22114 6.20385 2.01956 4.63139 7.32562 2.57596 
4.90785 6.35954 3.61366 4.0896 5.00228 5.29272 2.95034 5.75351 4.92369 
3.52632 5.3376 4.69754 2.53633 5.38212 5.97973 2.35575 9.89853 4.5849 
1.16342 6.92766 5.98379 2.80151 7.82409 5.78791 2.62273 8.61326 5.29986 
4.58454 9.64927 4.25932 2.55641 5.81526 4.11953 3.75022 7.91699 5.96091 
0.171347 8.73742 4.73231 2.80251 6.22992 5.25217 2.08975 6.88882 4.1586 
4.52777 7.1192 5.28428 1.11699 9.58238 4.71099 3.7523 5.72885 5.71993 
2.86625 7.01322 4.63823 4.72371 5.64795 5.79758 0.629704 6.7248 5.12466 
1.18467 6.1382 4.92353 0.905619 7.9234 5.26945 0.555493 9.33013 4.0264 
3.80897 6.87802 5.74414 3.0977 8.06395 4.85633 3.97637 7.78519 4.63815 
2.26577 7.1396 4.89576 4.10645 9.88826 5.07654 0.00594945 5.51976 5.2733 
4.70811 8.47732 4.24361 3.71602 9.24891 5.56496 2.15783 6.15208 4.40524 
4.35055 9.07544 4.75452 2.51772 9.86626 5.47876 1.0304 5.54731 4.30698 
0.921321 6.02064 5.74677 1.55459 5.29465 4.52894 3.25752 7.2375 5.35409 
4.36835 6.22507 4.76608 0.512477 5.17697 5.79567 1.79119 7.77749 4.768 
[...]
POINT_DATA 1000
FIELD FieldData 7
id 1 1000 int
372 425 877 844 194 58 267 247 472 
115 443 354 140 376 360 521 947 670 
912 307 713 277 913 909 733 577 637 
423 950 465 93 198 268 549 56 524 
80 547 393 787 350 648 217 503 958 
644 329 1000 593 921 408 582 309 62 
284 895 142 702 251 835 91 845 745 
986 439 39 941 357 386 428 684 683 
980 826 630 803 6 695 128 693 10 
598 957 288 700 361 480 919 24 810 
228 971 161 312 823 741 149 831 182 
562 207 243 848 65 363 486 673 614 
492 798 76 606 815 629 507 454 596 
131 254 792 608 366 185 418 540 253 
620 206 987 205 477 667 520 708 938 
949 336 139 621 588 38 86 352 590 
600 697 875 905 95 860 744 983 548 
399 154 759 106 184 812 314 249 311 
208 8 756 82 400 148 33 550 168 
580 430 662 42 470 31 575 125 162 
854 201 276 978 769 945 457 435 441 
862 592 676 770 525 199 830 748 479 
245 464 413 717 544 291 849 462 861 
722 694 391 536 969 884 976 795 932 
283 280 426 689 701 147 842 721 711 
496 226 561 467 241 111 865 955 67 
427 53 628 665 541 461 813 298 809 
863 19 132 880 98 846 940 374 660 
736 529 51 571 466 493 9 514 679 
387 841 681 801 325 906 349 789 191 
773 856 728 335 171 261 847 197 401 
212 814 83 385 703 110 962 341 825 
874 137 403 760 12 739 299 822 23 
143 324 20 109 405 942 526 802 114 
624 437 344 925 888 776 176 625 316 
963 626 918 799 680 469 186 982 333 
560 543 471 317 857 259 340 948 396 
421 447 434 238 642 41 478 68 633 
936 883 727 90 177 449 45 81 545 
451 240 591 786 398 765 488 438 279 
3 917 330 153 220 272 195 122 985 
820 126 34 659 720 731 294 233 306 
691 371 452 234 124 63 119 64 72 
818 459 458 998 71 519 605 448 101 
793 889 113 784 871 653 481 328 11 
602 29 48 973 639 617 308 796 928 
77 225 237 475 688 258 898 775 315 
615 265 666 415 392 535 531 69 852 
491 246 295 834 964 716 836 522 900 
15 292 585 175 817 635 304 682 790 
872 638 718 968 112 622 192 105 236 
853 794 664 73 420 559 32 343 431 
362 1 937 355 885 753 321 911 991 
320 599 498 943 285 404 429 494 146 
4 46 381 170 678 933 302 886 242 
239 677 60 758 489 442 116 508 37 
100 411 54 563 527 345 979 388 30 
696 517 339 984 263 726 868 97 509 
25 78 130 96 440 310 970 353 338 
21 269 899 138 257 966 850 954 383 
699 631 858 761 163 623 14 742 581 
22 568 108 797 556 735 511 904 893 
483 724 833 395 843 406 828 189 923 
640 619 808 557 894 960 782 783 654 
16 612 939 79 974 763 293 771 806 
930 566 364 687 213 927 216 533 196 
712 603 530 232 337 993 221 780 999 
652 502 890 190 88 816 158 318 487 
956 378 879 747 740 104 908 746 510 
356 484 896 210 35 931 282 450 248 
133 169 902 551 821 675 714 674 327 
609 951 178 565 552 504 961 989 532 
553 375 542 778 743 49 641 994 159 
446 473 785 737 910 685 661 658 270 
610 607 278 200 656 616 264 751 804 
766 988 224 222 929 204 61 50 897 
348 992 926 369 672 611 7 730 650 
157 445 613 346 380 935 40 601 767 
136 570 482 319 827 671 155 5 305 
250 777 433 402 211 924 981 266 382 
410 209 646 43 2 573 738 188 134 
859 180 47 655 572 389 235 167 281 
460 587 554 422 485 595 537 144 84 
165 173 579 645 373 959 892 881 287 
774 290 214 515 647 686 274 230 347 
150 887 379 342 300 916 160 657 313 
181 368 567 13 870 882 618 839 151 
725 997 574 286 303 627 632 135 323 
528 394 152 107 873 851 920 869 424 
518 643 252 129 807 538 141 604 490 
409 996 118 975 436 500 838 995 455 
262 715 187 516 754 218 597 358 934 
952 414 944 855 87 26 121 663 59 
273 164 891 594 297 215 576 669 811 
255 75 723 85 202 704 907 729 864 
456 914 915 416 901 499 866 179 417 
967 407 120 289 377 990 55 174 92 
523 779 707 476 965 227 705 367 709 
698 512 271 791 558 444 231 755 583 
788 66 903 70 145 229 824 117 223 
172 732 156 89 332 506 331 584 351 
203 589 649 829 800 922 752 94 876 
127 193 781 260 28 334 757 840 474 
18 564 390 99 546 972 166 365 102 
505 275 953 764 539 578 123 501 668 
555 749 256 634 17 878 692 453 44 
690 219 384 497 710 719 103 768 296 
569 837 946 326 397 750 183 805 468 
27 977 57 832 495 513 52 734 819 
322 534 463 772 867 301 359 370 74 
651 419 586 244 412 636 36 432 762 
706 
type 1 1000 int
1 1 2 2 1 1 1 1 1 
1 1 1 1 1 1 2 2 2 
2 1 2 1 2 2 2 2 2 
1 2 1 1 1 1 2 1 2 
1 2 1 2 1 2 1 2 2 
2 1 2 2 2 1 2 1 1 
1 2 1 2 1 2 1 2 2 
2 1 1 2 1 1 1 2 2 
2 2 2 2 1 2 1 2 1 
2 2 1 2 1 1 2 1 2 
1 2 1 1 2 2 1 2 1 
2 1 1 2 1 1 1 2 2 
1 2 1 2 2 2 2 1 2 
1 1 2 2 1 1 1 2 1 
2 1 2 1 1 2 2 2 2 
2 1 1 2 2 1 1 1 2 
2 2 2 2 1 2 2 2 2 
1 1 2 1 1 2 1 1 1 
1 1 2 1 1 1 1 2 1 
2 1 2 1 1 1 2 1 1 
2 1 1 2 2 2 1 1 1 
2 2 2 2 2 1 2 2 1 
1 1 1 2 2 1 2 1 2 
2 2 1 2 2 2 2 2 2 
1 1 1 2 2 1 2 2 2 
1 1 2 1 1 1 2 2 1 
1 1 2 2 2 1 2 1 2 
2 1 1 2 1 2 2 1 2 
2 2 1 2 1 1 1 2 2 
1 2 2 2 1 2 1 2 1 
2 2 2 1 1 1 2 1 1 
1 2 1 1 2 1 2 1 2 
2 1 1 2 1 2 1 2 1 
1 1 1 1 1 2 2 2 1 
2 1 1 2 2 2 1 2 1 
2 2 2 2 2 1 1 2 1 
2 2 1 1 2 1 1 2 1 
1 1 1 1 2 1 1 1 2 
2 2 2 1 1 1 1 1 2 
1 1 2 2 1 2 1 1 1 
1 2 1 1 1 1 1 1 2 
2 1 1 2 2 2 1 1 1 
2 1 1 1 1 1 1 1 1 
2 1 1 2 1 2 2 1 1 
2 2 1 2 2 2 1 1 1 
2 1 1 2 2 2 1 2 2 
1 1 1 1 2 1 2 2 1 
2 1 2 1 1 2 2 1 2 
1 1 1 2 2 2 2 2 2 
1 1 2 1 2 2 1 2 2 
2 2 2 2 1 2 1 1 1 
2 2 2 1 1 2 1 1 1 
1 1 2 1 2 2 1 2 2 
1 2 1 2 1 1 1 1 1 
1 1 1 1 2 2 1 2 1 
1 2 1 2 1 1 1 2 1 
1 1 1 2 2 1 2 1 1 
2 2 1 2 1 2 2 1 2 
1 1 1 1 1 1 2 1 1 
1 1 2 1 1 2 2 2 1 
2 2 2 2 1 2 1 2 2 
1 2 1 2 2 2 2 2 2 
1 2 2 1 2 1 2 1 2 
2 2 2 2 2 2 2 2 2 
1 2 2 1 2 2 1 2 2 
2 2 1 2 1 2 1 2 1 
2 2 2 1 1 2 1 2 2 
2 2 2 1 1 2 1 1 1 
2 1 2 2 2 1 2 2 2 
1 1 2 1 1 2 1 1 1 
1 1 2 2 2 2 2 2 1 
2 2 1 2 2 2 2 2 2 
2 1 2 2 2 1 2 2 1 
1 1 2 2 2 2 2 2 1 
2 2 1 1 2 2 1 2 2 
2 2 1 1 2 1 1 1 2 
1 2 2 1 2 2 1 2 2 
1 1 2 1 1 2 1 2 2 
1 2 1 1 2 2 1 1 1 
1 2 1 1 1 2 2 1 1 
1 1 2 1 1 2 2 1 1 
2 1 1 2 2 1 1 1 1 
1 2 2 1 1 2 2 1 1 
1 1 2 2 1 2 2 2 1 
2 1 1 2 2 2 1 1 1 
1 2 1 1 1 2 1 2 1 
1 1 2 1 2 2 2 2 1 
2 2 2 1 1 2 2 1 1 
2 1 1 1 2 2 2 2 1 
2 2 1 1 2 2 1 2 1 
1 2 1 2 1 1 2 2 1 
1 2 1 2 2 1 2 1 2 
2 1 2 2 1 1 1 2 1 
1 1 2 2 1 1 2 2 2 
1 1 2 1 1 2 2 2 2 
1 2 2 1 2 1 2 1 1 
2 1 1 1 1 2 1 1 1 
2 2 2 1 2 1 2 1 2 
2 2 1 2 2 1 1 2 2 
2 1 2 1 1 1 2 1 1 
1 2 1 1 1 2 1 2 1 
1 2 2 2 2 2 2 1 2 
1 1 2 1 1 1 2 2 1 
1 2 1 1 2 2 1 1 1 
2 1 2 2 2 2 1 2 2 
2 2 1 2 1 2 2 1 1 
2 1 1 1 2 2 1 2 1 
2 2 2 1 1 2 1 2 1 
1 2 1 2 1 2 1 2 2 
1 2 1 2 2 1 1 1 1 
2 1 2 1 1 2 1 1 2 
2 
i 3 1000 int
-184 0 1 -201 0 1 275 1 1 
238 1 0 -324 0 0 35 0 -1 
-202 0 0 -203 0 0 10 0 1 
209 1 0 189 1 0 -84 0 1 
178 1 1 -239 0 0 -321 -1 1 
-131 0 1 -34 0 1 -148 0 1 
-4 0 0 297 1 -1 -251 0 1 
-167 0 1 -57 0 0 -138 0 1 
87 0 0 266 1 0 -166 0 2 
-335 -1 1 35 0 -1 -46 0 1 
212 1 0 -13 0 1 31 0 0 
-165 0 0 -71 0 0 -113 0 2 
-70 0 1 45 0 0 195 1 0 
-95 0 1 268 1 0 279 1 1 
-110 0 0 79 1 0 252 1 2 
409 1 1 -158 0 1 -134 0 0 
-11 0 1 -86 0 1 -51 0 0 
-29 0 0 145 1 0 -61 0 0 
-126 0 0 -125 0 0 -119 0 -1 
280 1 0 -96 0 0 -66 0 1 
-32 0 0 -46 0 0 -107 0 1 
56 0 1 -113 0 0 -120 0 0 
-78 0 0 -290 0 1 112 0 0 
-110 0 1 103 1 1 126 1 0 
244 1 2 358 1 0 147 1 1 
308 1 0 22 0 -1 148 1 0 
114 1 1 108 1 -1 -199 0 1 
-105 0 1 19 0 0 -67 0 -1 
196 1 1 -78 0 0 -148 0 2 
-262 -1 0 253 1 -1 31 0 1 
-136 0 1 44 0 1 -13 0 1 
-3 0 1 284 1 -1 -124 0 0 
-18 0 0 72 0 0 24 0 -1 
117 0 1 252 1 1 -61 0 0 
-250 0 1 -96 0 0 112 1 -1 
301 1 1 213 1 -1 204 1 0 
-160 0 0 -195 0 0 105 0 1 
-164 0 -2 206 1 -1 -200 0 -1 
-237 0 0 299 1 0 -135 0 0 
154 1 0 -29 0 0 322 1 0 
-62 0 0 -3 0 1 -30 0 0 
-167 0 1 -368 -1 0 -239 0 0 
-54 0 0 -48 0 1 265 1 0 
-41 1 -1 125 0 0 -65 0 0 
64 0 1 -194 0 1 -7 0 -1 
97 0 1 82 0 0 -70 0 0 
-6 0 0 127 1 1 -78 0 1 
-47 0 1 -107 0 0 -36 0 -1 
-24 0 1 -58 0 -1 -72 0 1 
-86 0 0 -53 0 0 -36 0 1 
249 1 0 -34 0 -1 -170 0 1 
-140 0 -1 -28 0 0 -99 0 -1 
-84 0 -1 52 0 0 -4 0 1 
-123 0 0 -99 0 1 -40 0 0 
-67 0 1 133 1 1 -151 0 1 
21 0 -1 -161 0 0 -50 0 0 
317 1 0 43 0 0 130 1 0 
276 1 -1 -45 0 0 -156 0 1 
-110 0 0 169 1 -1 229 1 0 
236 1 -1 -388 -1 0 258 1 -1 
60 1 -1 -93 0 0 -318 -1 0 
17 0 -1 -74 0 1 138 1 -1 
71 0 -1 59 0 -1 15 0 0 
-55 0 0 -48 0 0 128 0 -1 
-73 0 0 -334 -1 -1 -239 0 -1 
404 1 -1 301 1 -1 81 0 0 
-24 0 0 5 0 0 -74 0 0 
-137 0 0 -32 0 0 -180 0 0 
42 0 0 164 1 -1 -89 0 0 
-161 0 -1 -257 0 0 -19 0 -1 
-233 0 0 173 1 0 115 1 0 
68 0 -1 -104 0 -1 -110 0 0 
-188 0 0 -174 0 0 190 1 -2 
-171 0 0 149 1 -1 -150 0 -1 
-157 0 0 276 1 0 198 1 -1 
89 0 -1 -256 -1 0 117 1 -1 
425 1 0 388 1 1 175 1 -1 
-131 0 -1 -1 0 1 348 1 1 
-33 0 -1 77 0 0 42 0 1 
209 1 0 278 1 -1 377 1 -1 
259 1 0 -166 0 -1 247 1 -1 
-87 0 0 -173 0 -1 21 0 0 
-10 0 0 -68 0 -1 -36 0 0 
-45 0 -2 -38 0 0 -40 0 0 
-299 0 1 -19 0 1 -47 -1 1 
66 0 1 156 0 0 246 0 0 
370 1 0 -148 -1 0 11 0 0 
-270 -1 0 110 0 0 44 0 1 
-330 -1 -1 176 0 -1 136 0 1 
82 0 1 -71 0 0 200 0 0 
-158 -1 0 -245 -1 1 43 0 1 
-168 -1 1 -14 0 0 11 0 0 
43 0 0 168 0 0 81 0 0 
213 0 0 -299 -1 2 187 0 0 
-323 -1 0 -226 -1 0 -154 -1 1 
-211 -1 0 23 0 0 157 0 -1 
155 0 0 -254 -1 0 -9 0 0 
-58 0 1 -95 0 0 51 0 0 
30 0 0 -176 -1 1 -152 0 1 
131 0 0 160 0 0 -266 -1 0 
106 0 1 25 0 0 89 0 0 
-156 0 1 105 0 1 -317 -1 -1 
5 0 -1 -80 0 0 91 0 0 
177 0 0 482 1 1 -215 -1 0 
95 0 1 -21 0 0 -178 -1 0 
132 0 0 -97 -1 -1 -154 -1 0 
171 0 0 -233 -1 0 176 0 0 
266 1 0 109 0 -1 -66 -1 0 
75 0 0 -223 -1 1 114 0 1 
1 0 1 -81 -1 0 -216 -1 -1 
21 0 0 273 0 0 14 0 1 
246 0 -1 55 0 1 -176 -1 0 
-300 -1 0 -340 -1 0 -172 0 0 
-33 0 1 154 0 0 -241 -1 1 
60 0 0 25 0 0 12 0 1 
47 0 0 53 0 1 45 0 0 
146 0 1 99 0 1 143 0 -1 
61 0 1 -264 -1 1 -383 -1 1 
-195 -1 1 139 0 -1 348 1 0 
-113 0 1 13 0 0 -489 1 0 
57 0 0 36 0 0 86 0 -1 
15 0 0 391 1 0 -237 -1 -1 
-311 -1 1 149 0 0 124 0 0 
-199 -1 0 287 1 -1 187 0 0 
-184 -1 0 51 0 -1 402 1 0 
107 0 0 -165 -1 0 84 0 -1 
300 1 0 -21 0 0 27 0 0 
-49 0 0 161 0 0 141 0 0 
21 0 0 47 0 -1 204 0 0 
174 0 0 -14 -1 0 46 0 0 
-84 0 0 133 0 0 -232 -1 -1 
58 0 0 59 0 0 -115 0 0 
181 0 -1 1 0 0 44 0 -1 
-42 0 1 -10 0 0 399 1 0 
54 0 -1 50 0 -1 -21 0 0 
161 0 0 149 0 0 94 0 -1 
8 0 0 145 0 0 119 0 1 
-133 -1 1 26 0 -1 44 0 -1 
186 0 0 -164 -1 0 -162 -1 0 
89 0 0 -103 -1 1 -165 -1 1 
-26 0 0 -216 -1 -1 69 0 0 
188 0 -1 -45 0 0 -28 -1 0 
-8 0 -1 -6 0 -1 146 0 0 
-58 0 0 -192 -1 0 -286 -1 0 
140 0 -1 244 0 0 190 0 -1 
75 0 0 74 0 -1 -14 0 -1 
142 0 -1 0 0 1 -247 -1 0 
-203 -1 2 -420 -1 -1 -198 -1 0 
56 0 -1 91 0 0 -395 -1 0 
-256 -1 0 55 0 -1 -279 -1 0 
14 0 0 119 0 -1 -257 -1 0 
275 0 0 51 0 0 69 0 0 
50 0 0 196 0 0 -255 -1 0 
231 0 -1 -39 -1 -1 154 0 -1 
-59 -1 -1 -73 -1 0 -216 -1 0 
235 0 -1 -153 -1 0 -165 -1 -1 
95 0 0 -247 -1 -1 -144 -1 0 
180 0 0 77 0 -1 75 0 0 
-21 0 -1 -338 -1 -2 81 0 -1 
43 0 0 132 0 -1 241 0 0 
-223 -1 0 54 0 -2 28 0 0 
27 0 0 61 0 -1 0 0 0 
-224 -1 -1 106 0 0 75 0 0 
175 0 -1 70 0 -1 -5 0 0 
146 0 -1 419 1 -1 -395 -1 0 
-335 -1 0 53 0 0 57 0 0 
23 0 -1 122 0 -2 36 0 -1 
80 0 0 -376 -1 0 -370 -1 -1 
4 0 -1 8 0 -1 97 0 0 
42 0 0 4 0 -1 246 0 0 
118 0 0 -245 -1 0 58 0 0 
58 0 -1 21 0 0 -99 0 1 
252 1 1 -133 0 1 203 1 0 
-127 0 2 82 1 0 -142 0 0 
-171 0 0 -44 0 1 -84 0 0 
-142 0 0 -50 0 0 139 1 1 
208 0 -1 199 1 1 186 1 1 
-111 0 1 -211 0 0 -177 0 0 
-65 0 1 -82 0 1 -113 0 1 
81 0 1 250 1 0 -98 0 1 
19 0 -1 32 0 0 -10 0 0 
-188 0 1 252 1 1 -60 0 1 
68 1 1 0 0 -1 -35 0 1 
220 1 0 -96 0 0 -210 0 1 
257 1 0 184 1 -1 47 0 0 
-28 0 0 237 1 0 15 0 0 
230 1 0 -263 0 0 -46 0 0 
180 1 0 -48 0 1 -76 0 1 
-88 0 1 264 1 0 207 1 0 
-146 0 0 -113 0 1 54 0 0 
237 1 0 4 0 0 242 1 1 
52 0 -1 -115 0 1 -105 0 1 
-161 0 1 -71 0 1 -64 0 0 
-143 0 1 461 1 0 153 1 1 
-167 0 1 -202 0 0 -121 0 0 
-76 0 0 340 1 1 -79 0 0 
235 1 1 359 1 1 2 0 0 
-133 0 1 364 1 0 328 1 0 
163 1 0 265 1 0 -92 0 2 
-119 0 1 214 1 0 33 0 1 
100 0 1 -192 0 0 -50 0 0 
-65 0 1 -156 0 1 -93 0 -1 
-61 0 1 60 0 0 -29 0 0 
-136 0 1 -111 0 1 -145 0 -1 
-127 0 1 -211 0 0 167 0 1 
-231 0 0 -111 0 0 -13 0 0 
-99 0 1 -76 0 -1 -76 0 -1 
11 0 0 18 0 0 -27 0 -1 
219 1 0 -150 0 1 18 0 0 
304 1 0 216 1 0 -298 0 0 
197 1 1 280 1 0 366 1 1 
83 1 0 272 1 0 -94 0 -1 
-491 2 0 -79 0 0 -74 0 0 
-58 0 0 -57 0 0 123 1 0 
-154 0 0 68 0 -1 62 0 0 
-40 0 0 33 0 0 50 0 0 
-360 -1 1 283 1 -1 -250 0 1 
-174 0 1 -76 0 0 43 1 0 
-30 0 0 81 0 0 308 1 -1 
-55 0 0 76 0 0 361 1 1 
-101 0 0 -69 0 1 32 0 1 
-106 0 -1 -99 0 0 -141 0 1 
40 0 -1 71 0 0 274 1 -1 
-161 0 0 -134 0 1 -66 0 0 
-30 0 -1 230 1 1 -200 0 -1 
-75 0 0 3 0 0 -202 0 0 
344 1 0 -37 0 1 -149 0 1 
-167 0 0 30 0 0 122 1 0 
-44 0 0 -150 0 0 242 1 0 
-27 0 0 -29 0 -1 -57 0 0 
-101 0 0 -272 -1 -1 -59 0 0 
-91 0 0 -52 0 0 -75 0 0 
306 1 0 -44 0 1 -84 0 0 
-52 0 0 168 1 0 -115 0 0 
-17 0 -1 -344 -1 1 152 1 0 
72 1 -1 -73 0 0 -42 0 0 
22 0 0 20 0 -1 61 0 -1 
-48 0 1 -227 0 -1 304 1 -1 
-247 0 0 232 1 0 -55 0 0 
161 1 -1 -346 -1 -1 -325 -1 -2 
-83 0 -1 -353 -1 -1 -77 0 0 
-173 0 0 -84 0 0 -156 0 0 
274 1 0 23 0 0 -197 0 -1 
-273 0 1 -27 0 0 -175 0 -1 
-285 0 0 -118 0 0 -128 0 -1 
58 1 -1 240 1 -1 -17 0 -1 
-36 0 0 -11 0 0 -315 -1 -1 
-365 -1 -2 -135 0 1 174 1 0 
195 1 0 29 0 -1 94 0 0 
10 0 -1 251 1 0 -68 0 -1 
191 1 -1 -190 0 -1 230 1 0 
54 0 -1 -20 0 -1 258 1 0 
-274 -1 0 247 1 0 -33 0 -1 
-303 -1 -1 -135 -1 0 95 0 -1 
-304 -1 -1 126 0 0 -31 0 -1 
150 0 0 210 0 0 -248 -1 0 
-3 0 1 171 0 0 -178 -1 0 
106 0 0 124 0 0 -239 -1 -1 
176 0 0 85 0 0 65 0 1 
24 0 0 -3 0 1 3 0 1 
-161 -1 2 -6 0 1 7 0 0 
-8 0 -1 79 0 1 50 0 1 
113 0 1 189 0 1 9 0 0 
47 0 0 25 0 0 -327 -1 0 
114 0 0 276 1 -1 86 0 1 
-322 -1 2 -257 -1 0 -162 0 0 
-255 -1 1 36 0 1 7 0 1 
-291 -1 0 60 0 2 263 1 1 
-298 -1 0 -169 -1 1 243 0 1 
-155 -1 1 145 0 1 -267 -1 0 
462 1 1 -149 -1 0 206 0 1 
302 1 1 72 0 0 91 0 0 
22 0 1 -164 -1 1 50 0 0 
-243 -1 0 202 0 0 -35 0 1 
-111 0 1 -161 -1 0 11 0 0 
-173 -1 1 -113 -1 0 85 0 -1 
-37 -1 0 199 0 0 -87 0 1 
-309 -1 0 26 0 0 189 0 0 
298 0 -1 125 0 0 111 0 -1 
-244 -1 2 111 0 -1 8 0 0 
-213 -1 1 137 0 -1 97 0 0 
133 0 0 -360 -1 0 87 0 0 
-237 -1 1 341 1 1 123 0 0 
102 0 1 142 0 0 141 0 -1 
-199 -1 0 227 0 1 -10 0 1 
-139 -1 0 59 0 0 75 0 0 
-133 -1 0 -188 -1 0 108 0 0 
55 0 -1 127 0 0 151 0 0 
203 0 -1 67 0 0 -208 -1 0 
-325 -1 -1 -362 -1 1 23 0 0 
188 0 0 110 0 -1 108 0 0 
-195 -1 1 14 0 0 -429 -1 0 
-191 -1 1 103 0 -1 -199 -1 1 
-205 -1 0 177 0 -1 184 0 0 
118 0 -1 99 0 -1 -24 0 0 
48 0 -1 90 0 0 109 0 1 
-41 0 1 -35 0 -1 -205 -1 1 
139 0 0 -154 -1 0 -17 0 -1 
114 0 0 181 0 0 -202 -1 0 
47 0 0 -234 -1 0 38 0 -1 
-223 -1 0 -364 -1 1 103 0 0 
-208 -1 0 -137 0 0 -142 -1 0 
-12 0 -1 -163 -1 0 2 0 1 
-216 -1 0 128 0 0 80 0 0 
-126 -1 0 426 1 0 21 0 0 
46 0 -2 2 0 0 -141 -1 0 
-230 -1 0 241 0 -1 209 0 0 
-178 -1 0 99 0 -1 115 0 0 
102 0 0 -5 0 0 82 0 0 
-42 0 0 44 0 0 185 0 -1 
-255 -1 -1 51 0 0 26 0 -1 
107 0 -1 -291 -1 -1 -48 -1 -1 
-254 -1 0 -220 -1 -1 101 0 -1 
-47 0 0 -103 0 0 143 0 -1 
-3 0 -1 277 1 0 46 0 0 
-31 0 -1 -278 -1 0 45 0 0 
116 0 -2 -157 -1 -1 157 0 0 
212 0 -1 82 0 -1 113 0 -1 
184 0 -1 20 0 -1 -1 0 -1 
179 0 0 101 0 -1 194 0 0 
48 0 0 -139 0 -2 92 0 -2 
272 0 -1 -306 -1 -1 114 0 -1 
28 0 0 114 0 -1 -200 -1 0 
161 0 -2 -181 -1 -1 6 0 0 
-209 -1 0 210 1 -1 177 0 0 
30 0 -1 -112 -1 1 -74 0 -1 
210 0 0 -48 0 0 -58 0 0 
185 0 -1 59 0 0 202 0 0 
-58 0 1 71 0 0 82 0 -1 
16 0 0 -2 0 -1 -58 -1 0 
35 0 -1 148 0 -1 345 1 0 
-430 -1 -1 -316 -1 0 -226 -1 0 
-298 -1 -1 75 0 0 -181 -1 0 
72 0 0 
v 3 1000 double
-474.92071038 12.04386707 -8.2900905804 -320.53784796 8.5188852851 7.4215305592 -356.15587572 27.204552042 -2.2655397162 
-379.02001867 9.8285445264 -0.023518701536 -489.22141649 -15.718616848 -7.6138330692 -323.42161699 4.3527420201 6.6881832388 
-485.77200509 11.500923655 3.2030779323 -479.68667869 -11.403899048 3.772277685 -28.967210376 -10.829253189 6.8628060145 
-383.72790829 -13.345154402 -6.9874353329 -389.66069631 -6.4273300043 6.4829492217 -242.0791722 0.041922717535 2.6903509862 
-117.73306969 -23.891917614 0.46292566526 -485.32090205 0.44281048908 -14.682567892 -260.63574717 -1.9115851721 -3.8539182666 
-504.80585596 38.190651445 -16.016302185 -229.14481584 -14.50624852 16.841954732 -505.9643977 -16.398799406 -5.1748714763 
-222.11684142 -6.2103710978 6.1941701397 -206.69930683 -1.3638988014 2.0327319768 -497.51254623 15.677362774 -3.9442155918 
-343.54305051 6.5196277218 5.1295907534 -372.83299183 -0.98840144208 -0.26834591705 -351.67791812 3.8742526984 -22.755660265 
-224.61647833 -10.206092516 6.401232861 -46.492957107 -15.147292815 13.316261592 -364.70494788 -17.576600174 -8.431790032 
-64.010662735 -6.5766619249 24.891541791 -43.698979933 4.4606157677 -6.3759173892 -233.87032185 7.6937015991 -0.71094562039 
-395.34195428 -33.896120782 24.642060798 -38.771243124 -7.8688737595 -10.820242819 -198.70637389 10.183215369 10.899320174 
-42.574416702 -16.464762506 -26.700394096 -16.006754941 -15.928306401 13.210938465 -35.577693852 16.801585466 8.7048547803 
-173.62909299 12.379938061 -21.658060023 -122.68073565 7.6084667399 14.419300391 -135.80354436 -0.037211934767 10.043377803 
-281.69589354 -25.529491926 -7.7750415009 -265.54514888 9.8728186807 20.060658479 -235.42254886 14.41924557 -4.171774272 
-425.7858458 1.5503456296 -5.3635853914 -314.47724736 -14.152423605 6.4323583455 -439.73634768 -8.3230385003 -1.262717862 
-192.07268535 8.6084408235 31.988037712 -120.29407691 -4.4385863765 31.883398976 -429.06747432 -8.1291872672 30.409800887 
-321.25889862 8.2145070486 -11.684271505 -234.21947989 -3.849831428 25.417223144 -94.34526624 2.9662380059 10.058635723 
-316.08599583 11.845708736 -17.685045403 -341.07274295 -14.543205569 5.8856169657 -187.13805964 -24.250953014 -9.1846670699 
-171.61752523 -11.079515987 -4.9117703671 -418.86780855 -7.3428886982 -15.060903614 -280.75357617 -43.502528612 -9.8090438778 
-257.75318279 -11.900782401 -4.2821831605 -87.394887882 -21.170967173 1.0317081712 -183.68314438 -4.8362902973 13.345505829 
-285.48088889 15.080998719 -14.271169854 -178.27302502 12.840856083 5.0847768214 -422.7286243 -6.5655359119 14.196440003 
-100.25469373 13.291173043 15.625408457 -391.6542755 -23.679879969 8.7636489191 -95.940685229 0.25752665262 -20.666948202 
-461.35273132 -2.8182264367 6.2416844687 -331.57740709 -0.50851661529 -28.58125285 -71.638839756 5.3624396186 10.954786055 
-108.67249174 -26.844002138 -13.705880794 -472.81622455 -6.4292604521 14.930623363 -472.43165959 -12.848886139 15.546543991 
-96.587552298 -27.876756859 7.1662931 -314.7246296 17.740833563 -12.197227334 -396.6190331 5.9283333526 19.060743169 
-196.98850352 -8.3190632547 -14.330784855 -144.18114909 -12.344427303 -34.368499557 -351.68716443 2.0497435662 27.001379053 
-422.06909871 13.901817019 -20.592588456 -256.97186243 -9.7892312329 10.290533755 -387.03011279 -20.319118108 -11.621942647 
-165.40702507 11.376093474 -10.134485617 -161.21055106 -7.0397501971 26.003308981 -219.37622144 -13.188455677 -14.903063285 
-11.82502824 -12.369732669 -12.37784305 -249.02582822 34.026379679 18.214402352 -482.59627442 -0.47641279475 7.4626773317 
-269.94710052 18.891686927 0.12239655483 -339.84466791 -26.050940689 5.3165388301 8.0963787434 4.7710828344 -2.2899216242 
-193.04886745 13.262333923 31.126544447 -145.87922414 -4.9651777671 22.349830078 -91.669875017 -14.673667982 2.845451745 
-62.237815869 14.174276242 -19.894219962 -443.07003854 13.47066002 -6.2015691964 -146.11545664 12.77455273 -6.4565582959 
-110.66862743 -4.6025567053 -48.199390405 -50.581111099 -21.806542403 -9.6692360437 -263.40652284 6.208919803 4.7537794962 
-72.649417015 -22.095919354 -7.7427818256 -451.99985551 7.1751652173 -31.647349726 -71.894981348 21.110897848 -28.097131897 
-298.23990644 4.9764596783 -20.084549995 -188.42425303 -6.6833482183 3.2502835383 -503.86367135 15.181382303 0.76871897058 
-140.44106462 -4.0587893739 17.000798746 -295.69318543 -12.893681564 6.6308476139 -353.69188074 -2.0359684254 26.594562345 
-69.438863348 -18.315153847 3.075082362 -210.40143166 -24.522191019 -8.4376398989 -241.32417237 -3.3073855107 -13.280952323 
-203.1932974 17.885092813 -2.3384955008 -454.21512195 29.56115375 -9.5656875587 -468.02550465 5.4623703267 16.447135373 
-503.41001222 -13.944409534 -12.736573999 -124.29928449 18.427296734 30.727132699 -446.17410857 24.671084043 -3.0256623412 
-441.50847635 -7.6877704227 9.715539308 -207.61845062 -2.3420089351 24.056477718 -327.25854601 24.528055868 4.0994680659 