ITEM: TIMESTEP
6500
ITEM: NUMBER OF ATOMS
1000
ITEM: BOX BOUNDS xy xz yz pp pp pp
0 10 0
0 10 0
-0 10 0
ITEM: ATOMS id type type x y z ix iy iz vx vy vz fx fy fz omegax omegay omegaz radius 
26 1 1 3.74359 0.197675 1.09992 18 1 0 -473.932 -6.86036 -2.19143 -125.842 653.525 896.441 0 0 0 0.5 
703 2 2 1.90082 0.415704 0.382974 -11 0 1 -443.517 6.50793 7.40369 -249.664 -2685.03 -2835.91 0 0 0 0.5 
11 1 1 3.24928 2.95336 1.82417 -2 0 0 -160.236 11.2494 -20.645 1296.88 241.335 -368.369 0 0 0 0.5 
316 1 1 2.21392 1.51262 1.25893 -20 0 0 -308.792 38.6161 7.13444 -683.013 2295.6 1204.3 0 0 0 0.5 
410 1 1 1.84619 3.50289 1.15663 -1 0 0 -94.7703 0.823918 -7.78169 -862.691 1563.55 -1141.65 0 0 0 0.5 
431 1 1 1.41913 2.58082 1.51022 -5 0 0 -143.726 -20.111 20.9988 1061.12 -1059.44 -171.44 0 0 0 0.5 
848 2 2 1.18723 0.535375 0.567076 -15 0 1 -442.425 -4.59978 15.8254 -1607.23 3101.32 1.47561 0 0 0 0.5 
970 2 2 0.052702 0.442396 0.797494 32 1 0 -402.802 10.335 -29.1187 -70.6829 -1405.19 2870.76 0 0 0 0.5 
21 1 1 0.591073 0.725209 1.42084 -26 0 0 -427.335 18.8257 -3.72344 442.448 -2444.91 1022.06 0 0 0 0.5 
770 2 2 0.04455 1.90955 0.0431564 -6 0 0 -220.701 -3.74218 3.29724 2610.59 -669.122 -445.047 0 0 0 0.5 
777 2 2 2.32189 0.972748 1.83051 -14 0 0 -416.437 12.2212 21.5588 1843.93 -732.468 1126.24 0 0 0 0.5 
6 1 1 2.91618 3.32223 0.775846 -3 0 0 -92.2388 -16.8552 12.2751 -676.359 923.443 1001.31 0 0 0 0.5 
434 1 1 1.31686 2.11481 0.708594 -7 0 0 -225.267 8.19474 -14.4522 3805.09 -448.985 752.876 0 0 0 0.5 
94 1 1 4.08163 2.45758 1.59054 -4 0 0 -167.8 -19.7997 2.20039 610.421 1067.9 -388.623 0 0 0 0.5 
13 1 1 1.60919 1.27287 0.675053 -12 0 0 -285.356 -7.88425 -15.1869 -7774.23 1501.84 -727.976 0 0 0 0.5 
96 1 1 1.98842 4.04917 0.00270265 -2 0 1 -37.9596 9.95894 -4.21972 731.326 833.237 769.843 0 0 0 0.5 
787 2 2 4.11106 2.22764 0.523258 -13 0 1 -183.707 -7.25241 -1.2853 669.184 -1881.03 -826.383 0 0 0 0.5 
368 1 1 2.16713 3.29591 0.129657 -1 0 0 -78.4555 0.496299 -0.948032 228.737 -834.142 -190.688 0 0 0 0.5 
672 2 2 2.38818 2.5813 0.346796 -6 0 0 -117.982 -25.6927 15.2765 -3616.37 2834.16 78.0924 0 0 0 0.5 
587 2 2 2.3467 2.95064 1.4976 -5 0 1 -140.344 -0.483451 0.939588 -165.365 -1771.26 -596.597 0 0 0 0.5 
16 1 1 1.51059 0.879085 1.75815 -12 0 0 -411.257 -3.72745 -44.6527 418.657 -1675.58 -1134.26 0 0 0 0.5 
328 1 1 4.60552 3.91388 1.10865 0 0 0 -60.0668 -2.29224 5.65542 -207.298 118.866 -21.0963 0 0 0 0.5 
261 1 1 1.25547 3.12301 0.244174 -1 0 1 -81.639 -17.4789 4.57448 -320.328 -369.607 -713.816 0 0 0 0.5 
800 2 2 2.43798 0.209773 0.676 31 1 0 -467.193 11.3582 10.7429 1750.94 674.501 842.563 0 0 0 0.5 
370 1 1 2.38174 4.99006 1.69484 -1 0 0 -26.3297 22.6036 -16.7909 -650.849 639.184 -897.738 0 0 0 0.5 
382 1 1 0.735901 1.55069 1.37245 -5 0 0 -278.317 13.9705 -25.8037 2744.21 10.008 -1080.53 0 0 0 0.5 
425 1 1 2.50634 1.15865 0.743598 -8 0 0 -376.249 8.08406 -31.4463 8956.68 1267.39 -2927.3 0 0 0 0.5 
600 2 2 3.97395 4.84487 0.881232 1 0 1 -0.124229 -4.16553 8.96062 -1027.5 201.797 -86.7125 0 0 0 0.5 
982 2 2 1.95505 4.30526 0.95177 0 0 0 -22.9108 8.26341 -3.1613 1155.1 -1561.36 509.156 0 0 0 0.5 
772 2 2 0.479062 2.51688 0.680629 -4 0 1 -148.416 -1.23993 4.1444 -4784.75 -505.482 -2270.45 0 0 0 0.5 
256 1 1 0.970453 3.25661 1.22018 -3 0 0 -91.6702 10.7355 0.68353 -742.969 735.453 -310.616 0 0 0 0.5 
990 2 2 1.46736 4.79364 1.55518 0 0 0 -20.4432 10.9499 2.91789 -334.092 -537.393 -902.217 0 0 0 0.5 
882 2 2 1.17005 3.96192 0.532433 0 0 0 -28.8342 7.19359 -0.332315 423.074 -74.5744 -389.105 0 0 0 0.5 
627 2 2 0.552222 4.77525 1.52654 1 0 0 -24.3805 -1.77082 2.01283 -299.616 812.49 -32.9616 0 0 0 0.5 
157 1 1 2.90386 4.40979 1.31979 -1 0 0 -34.8051 3.9496 -4.53305 -126.846 -103.912 -221.701 0 0 0 0.5 
33 1 1 3.63252 0.774511 1.89117 25 1 0 -443.695 10.8694 18.8762 125.842 -653.525 -896.441 0 0 0 0.5 
119 1 1 2.93446 4.07599 0.249205 -2 0 0 -38.4174 5.42962 -7.46953 57.6294 502.816 1702.08 0 0 0 0.5 
231 1 1 4.50415 1.44716 1.16568 -7 0 1 -314.865 1.96667 -11.0137 -366.12 42.7273 221.551 0 0 0 0.5 
323 1 1 3.13164 2.26996 1.15139 -4 0 0 -185.174 -2.51669 7.90867 112.292 360.417 1284.39 0 0 0 0.5 
626 2 2 2.86915 4.88603 0.571408 -1 0 0 -10.2503 21.2419 -6.54567 -100.503 779.752 -287.889 0 0 0 0.5 
763 2 2 0.85451 4.96358 0.615966 1 0 1 21.7437 -8.04816 0.479703 -149.34 -450.121 788.612 0 0 0 0.5 
380 1 1 4.46842 3.12324 0.164093 -4 0 1 -97.0751 -13.6342 -16.7115 541.522 -1790.83 72.891 0 0 0 0.5 
638 2 2 0.405734 4.06943 0.97483 0 0 0 -25.142 -6.8949 4.6806 -892.883 -1088.78 -187.368 0 0 0 0.5 
495 1 1 0.148586 3.16408 1.21118 -2 0 1 -104.398 -4.44964 7.75887 -1552.75 1760.98 1012.32 0 0 0 0.5 
514 2 2 4.61876 3.16145 1.28437 -5 0 0 -82.3574 -31.905 11.6996 -480.596 -1663.37 738.008 0 0 0 0.5 
872 2 2 0.387805 3.95312 1.95899 0 0 0 -38.1995 -16.1835 -6.7935 -773.365 -68.5323 268.713 0 0 0 0.5 
674 2 2 4.2083 3.90345 0.155269 1 0 0 -57.6469 -2.1804 11.0961 104.371 234.788 1671.26 0 0 0 0.5 
361 1 1 3.44134 3.78154 1.4365 -2 0 0 -42.3329 -9.21583 -4.93826 216.898 85.6329 192.35 0 0 0 0.5 
276 1 1 1.29695 1.6573 1.92781 -11 0 1 -294.12 48.3857 -11.0156 637.916 -1863.76 2765.23 0 0 0 0.5 
371 1 1 3.79171 3.09143 0.815872 -1 0 0 -87.6107 -13.8961 11.6751 274.383 787.088 -331.005 0 0 0 0.5 
871 2 2 0.145432 3.77866 0.0450028 -1 0 0 -39.7817 2.01304 0.605065 145.487 -444.719 -131.397 0 0 0 0.5 
91 1 1 4.40396 4.90247 1.79886 0 0 0 -9.30881 -6.09192 22.3379 -525.651 17.2536 137.082 0 0 0 0.5 
784 2 2 3.04523 1.89533 0.37719 -11 0 1 -220.37 10.1726 18.8635 2313.75 -5035.58 1682.52 0 0 0 0.5 
881 2 2 4.8588 4.67023 0.923357 1 0 0 -0.141755 4.19417 14.4069 810.687 -173.59 528.729 0 0 0 0.5 
357 1 1 4.93099 0.314322 0.332177 -9 0 1 -351.351 -22.2795 0.0477392 0 0 0 0 0 0 0.5 
203 1 1 2.35802 1.33586 2.95678 -9 0 0 -271.429 -27.5515 -17.6105 2262.31 -180.345 1171.81 0 0 0 0.5 
539 2 2 1.44196 0.653261 3.89385 -11 0 0 -408.247 -9.52714 12.12 -1062.22 2485.62 -851.669 0 0 0 0.5 
171 1 1 2.01827 3.7314 3.16256 -1 0 0 -71.4593 2.83944 5.03078 -967.353 -353.778 -437.572 0 0 0 0.5 
918 2 2 3.90151 4.17654 3.62505 -2 0 0 -54.1155 -8.54813 -0.874157 -589.531 8.94361 843.029 0 0 0 0.5 
392 1 1 2.54226 2.69286 2.32059 -3 0 0 -141.976 -16.5547 1.91411 -1.26735 133.857 -387.78 0 0 0 0.5 
865 2 2 2.49771 2.20182 3.34789 -4 0 0 -201.684 -0.39652 -8.76145 2433.95 -1121.65 -3151.87 0 0 0 0.5 
767 2 2 2.53351 3.37243 3.86123 -7 0 0 -110.442 -15.6986 -5.02953 -179.886 703.35 1602.13 0 0 0 0.5 
680 2 2 0.644381 1.41363 2.57849 -4 0 0 -309.511 24.3563 26.2498 1555.1 -995.118 -96.0954 0 0 0 0.5 
965 2 2 2.29002 3.98042 2.14196 -3 0 0 -61.5784 13.7698 -1.48598 311.158 -26.775 31.7235 0 0 0 0.5 
151 1 1 1.62247 2.99364 3.54978 -2 0 0 -132.394 -1.53179 -17.9227 -276.83 619.11 -287.767 0 0 0 0.5 
214 1 1 3.43928 4.77516 3.94702 0 0 0 -25.3337 16.5143 8.6266 643.735 -586.754 1623.07 0 0 0 0.5 
667 2 2 1.07714 0.690991 2.99604 -20 0 0 -468.319 11.4456 30.715 5137.64 -569.935 4075.71 0 0 0 0.5 
507 2 2 0.579497 2.23951 3.08631 -8 0 0 -186.621 2.52488 6.58946 -1363.46 1717.79 2171.08 0 0 0 0.5 
538 2 2 0.522531 0.173925 2.23947 22 1 0 -519.941 18.1689 16.9473 3315.23 -2961.77 23.0139 0 0 0 0.5 
204 1 1 1.5743 0.410347 2.49771 -32 0 0 -493.69 -3.14022 8.94376 3474.44 -3896.05 -887.497 0 0 0 0.5 
262 1 1 0.423953 0.759435 3.02791 -15 0 0 -468.8 -15.2334 5.23772 3999.88 -2604.66 -1141.34 0 0 0 0.5 
775 2 2 1.06495 1.06155 2.18781 -17 0 0 -396.576 -0.00920721 -0.431017 -773.625 2001.56 -2949.66 0 0 0 0.5 
716 2 2 4.54446 1.63228 3.22239 -11 0 0 -308.7 10.176 3.72393 1018.46 -476.961 822.152 0 0 0 0.5 
144 1 1 1.33477 4.06262 2.04457 -2 0 0 -63.9802 -1.39405 1.1253 1492.79 61.2262 6.44599 0 0 0 0.5 
531 2 2 1.97796 1.89402 2.5729 -5 0 0 -225.666 2.54723 -19.0258 1056.32 -60.156 -928.75 0 0 0 0.5 
636 2 2 4.36862 2.31831 2.65848 -11 0 1 -203.401 -0.993224 0.69614 716.464 1441.26 -1064.43 0 0 0 0.5 
107 1 1 2.18435 0.716329 3.6576 -11 0 0 -381.13 -6.06991 -17.5922 -440.554 -2891.05 11.0852 0 0 0 0.5 
413 1 1 1.25718 2.33664 2.46754 -17 0 0 -189.447 12.3928 27.326 134.271 512.514 309.055 0 0 0 0.5 
901 2 2 1.85656 2.27324 3.75035 -3 0 0 -187.145 -14.413 -7.32226 -1562.82 -1942.21 -727.997 0 0 0 0.5 
409 1 1 4.02809 3.0871 3.4957 39 1 0 -117.159 -9.54318 42.5352 -278.535 473.336 -440.036 0 0 0 0.5 
895 2 2 0.104644 1.14097 3.38453 -23 0 0 -378.783 36.2696 41.3706 1206.57 473.546 3079.86 0 0 0 0.5 
973 2 2 2.00238 3.05768 2.73258 -3 0 0 -131.435 -8.44729 3.19509 -908.017 120.431 -1229.42 0 0 0 0.5 
142 1 1 1.55123 1.4638 3.37666 -7 0 0 -271.144 -14.0366 -29.1031 -1507.02 -2008.79 1323.59 0 0 0 0.5 
690 2 2 0.391322 4.91556 3.31415 0 0 0 4.23027 3.94922 9.24438 116.648 1341.65 -468.932 0 0 0 0.5 
785 2 2 4.66247 0.0102279 3.67819 32 1 0 -424.367 -35.554 14.4824 645.427 1378.37 -709.37 0 0 0 0.5 
95 1 1 3.05853 4.71842 2.97334 -1 0 0 -14.5183 -1.93213 -4.36849 61.137 516.397 26.5803 0 0 0 0.5 
362 1 1 3.1252 1.96335 2.43269 -3 0 0 -199.54 -22.9874 -4.41611 -957.497 -531.101 -2850.77 0 0 0 0.5 
898 2 2 1.25746 3.61244 3.97288 -1 0 0 -81.8923 -5.18402 8.502 489.324 -8.37967 1204.37 0 0 0 0.5 
675 2 2 1.95515 4.53112 3.09005 0 0 0 -15.3937 8.77632 17.47 1112.59 711.796 953.502 0 0 0 0.5 
941 2 2 3.63252 4.30409 2.21144 -2 0 0 -55.3562 12.4967 -8.75663 615.162 -901.073 110.129 0 0 0 0.5 
366 1 1 4.74707 3.95311 3.50893 -2 0 0 -60.8869 -10.1327 -0.470686 667.053 489.921 -165.235 0 0 0 0.5 
510 2 2 2.96627 3.00609 3.19726 -2 0 0 -122.09 -12.2847 -17.7523 52.6114 -2167.43 -431.343 0 0 0 0.5 
5 1 1 1.16317 4.78217 2.85846 -1 0 0 -8.94464 -1.40353 -8.56196 -498.025 282.478 -908.634 0 0 0 0.5 
172 1 1 4.7485 0.919969 3.74203 -20 0 0 -368.309 1.61005 -12.2673 -762.558 -92.3655 1050.79 0 0 0 0.5 
369 1 1 2.96003 3.8315 2.9045 -2 0 0 -74.5899 -3.80398 -19.0712 -696.143 314.585 -292.771 0 0 0 0.5 
389 1 1 0.78363 3.08034 2.29247 -3 0 0 -115.52 -1.47876 -15.2155 -1691.33 2481.41 -752.834 0 0 0 0.5 
734 2 2 3.74095 2.83771 2.49995 -4 0 0 -201.535 17.3127 7.89808 -5.32202 307.244 1006.57 0 0 0 0.5 
905 2 2 0.607421 4.14665 3.57694 -2 0 0 -59.2003 -6.03209 6.01122 -877.308 -543.984 329.285 0 0 0 0.5 
553 2 2 3.07701 0.0548346 3.24898 -33 0 1 -539.293 0.718877 10.9802 1.15423 -106.626 -37.664 0 0 0 0.5 
39 1 1 3.67049 1.68299 3.1575 -16 0 0 -308.329 4.46334 -0.710521 1111.43 -1134.34 3026.08 0 0 0 0.5 
456 1 1 0.739478 3.84466 2.78327 0 0 0 -54.0142 2.16494 8.16955 295.495 -540.167 -477.283 0 0 0 0.5 
257 1 1 4.59227 3.71438 2.16974 -3 0 0 -74.3745 4.5761 8.53082 331.039 -8.66405 -319.248 0 0 0 0.5 
854 2 2 3.88582 3.73286 2.85102 -2 0 0 -73.0352 -1.25729 2.47567 583.379 -1260.94 -74.7747 0 0 0 0.5 
629 2 2 4.48862 1.48547 2.18032 -9 0 0 -303.426 -14.3109 1.70606 -460.574 -456.037 -451.018 0 0 0 0.5 
200 1 1 3.06747 0.93662 3.56046 -24 0 0 -381.789 17.6874 -1.47292 654.03 270.059 -34.4089 0 0 0 0.5 
12 1 1 0.22663 0.835668 5.18569 -14 0 0 -337.612 -7.60732 5.01699 -5764.25 3102.68 -10.8722 0 0 0 0.5 
283 1 1 3.10317 1.28779 4.65008 -19 0 0 -339.727 3.68961 5.914 -1426.64 652.915 278.208 0 0 0 0.5 
243 1 1 4.03726 2.57466 5.84593 -3 0 0 -90.3163 -33.6027 -5.68336 108.071 -109.153 364.296 0 0 0 0.5 
852 2 2 2.46015 0.807457 5.61774 -17 0 0 -404.247 -3.35242 -29.2192 -426.436 -1643.6 458.643 0 0 0 0.5 
820 2 2 1.23343 1.70825 4.45917 -6 0 0 -284.065 -0.888316 -14.0526 171.143 -840.118 -177.586 0 0 0 0.5 
260 1 1 3.94689 0.901657 4.48554 -29 0 0 -366.466 5.42868 -25.7764 1426.64 -652.915 -278.208 0 0 0 0.5 
925 2 2 2.4781 4.88376 4.04613 -1 0 0 -21.3655 14.4591 -13.0764 -1114.14 -713.065 -487.19 0 0 0 0.5 
38 1 1 1.04339 0.612461 5.37392 -11 0 0 -442.833 29.5911 -18.3567 6369.86 -2638.42 504.877 0 0 0 0.5 
995 2 2 4.47124 1.82036 5.11104 -9 0 0 -214.829 -10.4973 7.59986 -2009.98 -1649.84 2075.57 0 0 0 0.5 
518 2 2 2.14616 2.46269 4.64545 -5 0 0 -171.681 -16.6857 -17.7435 -383.517 -42.0809 258.868 0 0 0 0.5 
509 2 2 1.7387 1.88378 5.5018 -9 0 0 -238.259 -6.90981 -1.41783 -1283.72 566.654 779.205 0 0 0 0.5 
304 1 1 1.24058 2.58852 4.26529 -4 0 0 -181.726 1.91413 -26.7367 976.116 269.428 -53.2257 0 0 0 0.5 
346 1 1 1.82501 0.525672 4.81113 11 1 0 -461.075 14.9995 14.4724 1630.92 -181.095 -1174.32 0 0 0 0.5 
314 1 1 0.633525 2.92915 4.61982 -2 0 0 -176.879 7.91762 -25.9091 -1260.5 481.849 -1118.2 0 0 0 0.5 
149 1 1 4.103 4.84695 4.73106 0 0 0 -24.8146 -8.12481 -10.3124 1027.79 -691.674 -860.726 0 0 0 0.5 
766 2 2 2.05968 4.07138 5.22244 -2 0 0 -70.884 20.6599 22.6736 852.117 -1609.6 819.204 0 0 0 0.5 
229 1 1 2.03475 3.23407 5.01329 -4 0 0 -132.442 3.98242 -0.771908 -42.2369 150.752 98.5683 0 0 0 0.5 
908 2 2 0.55646 2.39648 5.84156 -4 0 0 -173.494 9.4906 2.70645 551.082 -1049.31 -2770.25 0 0 0 0.5 
786 2 2 0.354554 1.65828 4.65301 -12 0 1 -279.843 -0.508014 0.204266 490.203 -1947.46 58.7475 0 0 0 0.5 
187 1 1 2.01201 1.46072 4.05404 -9 0 0 -267.78 -1.95212 26.0653 605.369 -901.571 251.295 0 0 0 0.5 
47 1 1 0.244216 1.54169 5.71653 -14 0 0 -276.94 27.071 -20.8643 -1978.89 3935.25 -854.906 0 0 0 0.5 
817 2 2 2.11877 4.00944 4.06072 -1 0 0 -90.9495 24.8479 7.5632 -30.3396 1139.87 403.577 0 0 0 0.5 
683 2 2 4.08509 4.33895 5.92717 0 0 0 -31.1399 -3.4037 -8.01697 66.9866 125.582 -337.711 0 0 0 0.5 
944 2 2 1.14159 2.35932 5.14728 -9 0 0 -204.184 9.44887 -21.1619 -93.585 587.622 326.088 0 0 0 0.5 
298 1 1 0.605206 0.312607 4.50314 -15 0 0 -461.247 6.232 -21.5626 -100.614 -230.881 -3098.47 0 0 0 0.5 
446 1 1 2.64024 3.16362 5.94728 -1 0 0 -84.1765 -12.2169 1.71424 -264.983 987.777 -1847.8 0 0 0 0.5 
533 2 2 2.46416 1.56647 5.70506 27 1 -1 -263.62 18.6799 0.682864 3327.11 -725.413 598.92 0 0 0 0.5 
112 1 1 0.335641 4.87599 4.2345 0 0 0 2.26017 -5.54141 -3.08301 4.45607 1287.19 -811.586 0 0 0 0.5 
929 2 2 2.65698 4.69477 5.79673 0 0 0 -14.4209 5.77501 6.42168 -25.5813 1433.83 111.398 0 0 0 0.5 
340 1 1 1.35659 4.27289 4.88493 -3 0 0 -74.9378 23.0027 -0.6184 2615.02 601.819 -253.357 0 0 0 0.5 
933 2 2 4.82683 4.65176 5.33048 0 0 0 -20.1358 -3.81494 -7.0481 139.1 54.9594 201.763 0 0 0 0.5 
805 2 2 4.06665 1.09127 5.58448 -11 0 0 -339.368 5.18915 4.22701 509.185 1490.67 -1012.35 0 0 0 0.5 
939 2 2 2.89388 4.73865 4.84278 0 0 0 -23.5379 15.532 0.334362 1968.63 1106.12 42.9863 0 0 0 0.5 
374 1 1 1.19077 4.92918 5.6938 -1 0 0 16.5535 -4.18165 2.49609 -131.827 89.2597 -815.147 0 0 0 0.5 
689 2 2 0.187522 3.41453 5.09186 -13 0 0 -123.702 11.2955 8.13038 1294.76 -1117.37 2173.89 0 0 0 0.5 
418 1 1 3.67218 3.39374 5.45701 -1 0 0 -64.6095 -26.0607 -4.85941 271.922 -895.068 -1114.64 0 0 0 0.5 
513 2 2 3.12428 3.31949 4.64479 -5 0 0 -127.818 -14.7794 16.1965 443.731 -1193.64 852.727 0 0 0 0.5 
411 1 1 4.56613 2.97243 5.15548 -6 0 0 -93.5458 -0.428325 -0.321222 -1828.87 441.385 -2512.53 0 0 0 0.5 
921 2 2 4.12942 2.42227 4.51037 -4 0 0 -191.468 2.96586 0.572602 -1642.35 2432.68 1998.88 0 0 0 0.5 
937 2 2 3.08087 4.07213 4.65294 -2 0 0 -69.7625 1.31973 -13.3273 619.996 -566.697 -346.167 0 0 0 0.5 
827 2 2 0.680828 4.24221 4.46701 -2 0 0 -64.2228 -15.4784 4.45509 -129.88 -2155.76 636.022 0 0 0 0.5 
935 2 2 3.24061 4.12328 5.61131 0 0 0 -34.4406 -9.73658 -7.18387 -110.978 -7.76953 -590.237 0 0 0 0.5 
449 1 1 4.30013 3.85325 4.84273 -1 0 0 -81.1109 0.91745 -8.5195 164.772 192.066 -181.542 0 0 0 0.5 
280 1 1 3.07897 2.59947 4.11736 -8 0 0 -169.716 -12.3349 4.10855 1051.9 -2093.68 104.715 0 0 0 0.5 
251 1 1 0.576535 4.16793 5.47409 -1 0 0 -18.3729 11.3752 19.3044 -3895.63 -636.188 -1484.87 0 0 0 0.5 
876 2 2 2.19027 4.9476 5.04962 0 0 0 -17.4767 -2.46041 -6.08793 -1635.84 957.51 1979.42 0 0 0 0.5 
15 1 1 4.86289 2.08803 4.1178 -8 0 1 -226.832 18.8429 -5.74864 -774.396 2099.44 -1342.5 0 0 0 0.5 
277 1 1 4.9407 0.345491 4.82655 -20 0 1 -416.873 -9.68149 26.1282 0 0 0 0 0 0 0.5 
913 2 2 4.92707 4.78617 4.22574 -1 0 0 -15.5564 4.29281 -7.3982 349.832 -602.708 1053.42 0 0 0 0.5 
547 2 2 2.64849 0.283725 6.90428 21 1 0 -461.18 1.49832 -18.586 617.816 -4111.84 -2435.39 0 0 0 0.5 
606 2 2 1.09973 2.26451 7.38878 -2 0 0 -176.415 -18.7528 -10.0292 151.442 -2662.99 328.486 0 0 0 0.5 
640 2 2 4.294 1.19423 6.67631 -12 0 0 -348.372 18.0049 -5.61235 288.727 -672.788 186.656 0 0 0 0.5 
4 1 1 2.04144 0.161848 6.18739 -23 0 -1 -489.274 13.761 -28.0367 338.6 -1724.97 -2231.21 0 0 0 0.5 
222 1 1 1.98088 2.38173 7.31575 37 1 0 -178.555 10.5185 -26.0871 793.877 2351.2 225.172 0 0 0 0.5 
360 1 1 0.759852 1.43871 7.80887 -10 0 0 -263.766 -2.06184 14.4343 838.562 442.125 2017.22 0 0 0 0.5 
332 1 1 0.368935 1.17334 6.54543 -8 0 0 -331.117 14.497 16.825 38.9721 117.472 1126.18 0 0 0 0.5 
358 1 1 4.39009 3.96675 7.14257 -1 0 0 -37.0817 -20.6258 -4.10926 -1195.47 542.05 -981.488 0 0 0 0.5 
819 2 2 1.33271 3.46206 7.39656 -1 0 0 -108.218 3.60067 17.0387 1673.01 9.40068 1051.32 0 0 0 0.5 
956 2 2 2.23409 0.887718 7.04985 -12 0 0 -421.034 13.3981 -22.4622 -274.121 -1376.6 -25.0442 0 0 0 0.5 
8 1 1 2.16325 3.36759 7.03249 -5 0 0 -121.938 24.8074 -18.0408 -687.331 1617.27 127.607 0 0 0 0.5 
951 2 2 1.91942 4.20457 7.71664 1 0 0 -41.6784 -11.3326 5.16357 524.609 -1844.39 -1997.78 0 0 0 0.5 
814 2 2 0.202562 1.53538 7.11629 -10 0 0 -254.728 7.27757 44.1311 -776.113 2145.38 26.5207 0 0 0 0.5 
824 2 2 4.83969 3.94081 6.20866 -1 0 0 -42.6523 -10.0597 -1.33924 304.094 495.942 310.578 0 0 0 0.5 
35 1 1 0.713102 0.447567 7.56114 -10 0 0 -426.165 15.6795 -36.6526 3563.54 -177.448 -2745.55 0 0 0 0.5 
839 2 2 1.39744 2.67752 6.23157 -8 0 0 -164.449 19.1602 -25.9967 -1298.89 -680.862 -1490.43 0 0 0 0.5 
838 2 2 2.43141 4.23966 6.60791 0 0 0 -28.7449 -4.78327 3.55004 -824.625 269.018 821.985 0 0 0 0.5 
124 1 1 2.93457 0.89924 7.6901 24 1 0 -418.383 5.27864 -18.621 -1189.1 -2391.99 -735.914 0 0 0 0.5 
869 2 2 2.7652 2.6978 6.81868 -5 0 0 -170.13 21.376 -12.7406 906.134 -3449.1 650.662 0 0 0 0.5 
856 2 2 1.2141 1.8594 6.32568 -6 0 0 -246.398 -26.5255 -4.08463 2292.75 901.523 846.155 0 0 0 0.5 
43 1 1 0.897463 2.99693 6.6507 -2 0 0 -145.577 13.7446 11.6984 3843.21 -179.608 459.714 0 0 0 0.5 
307 1 1 1.34238 0.500225 6.62379 16 1 0 -451.467 7.39418 -9.80183 -56.9657 -2473.29 -418.525 0 0 0 0.5 
498 1 1 0.68957 0.839788 6.09345 35 1 0 -426.328 20.9212 -25.9356 2646.81 -4856.8 190.135 0 0 0 0.5 
863 2 2 3.54726 2.33415 7.3695 -5 0 0 -168.254 -17.6888 -15.6021 268.188 875.797 15.9257 0 0 0 0.5 
123 1 1 2.13543 2.15061 6.34986 -11 0 0 -239.618 12.9357 21.8677 2397.02 -1663.45 910.543 0 0 0 0.5 
649 2 2 2.66675 2.40043 7.86365 -4 0 0 -167.854 16.8747 -10.9966 1643.38 -1863.91 -1967.37 0 0 0 0.5 
570 2 2 1.94601 1.55451 7.12917 -11 0 0 -309.266 21.4034 21.8006 -983.585 2427.29 -308.356 0 0 0 0.5 
335 1 1 1.15096 1.08515 7.06056 -9 0 0 -303.083 19.9638 -4.9941 -1872.49 897.901 1892.34 0 0 0 0.5 
611 2 2 1.62776 4.838 7.19899 0 0 0 -8.37837 12.9516 1.5913 1445.81 473.555 -397.064 0 0 0 0.5 
855 2 2 3.4455 1.38687 6.38704 -17 0 0 -360.712 16.5788 -20.1277 -10.4501 2.37254 -3.56259 0 0 0 0.5 
245 1 1 0.291023 3.65278 6.2085 -8 0 0 -89.5983 -1.15473 7.8732 -2250.99 1369.22 -1289.84 0 0 0 0.5 
62 1 1 3.91743 3.35527 6.44685 -1 0 0 -63.7133 -7.76637 -21.8928 992.919 -906.541 3.69832 0 0 0 0.5 
658 2 2 0.939008 4.68067 6.59275 0 0 0 -1.43843 -15.635 -2.06969 -516.741 -302.681 -664.374 0 0 0 0.5 
217 1 1 0.168128 2.77454 6.54744 -3 0 0 -126.476 -18.9592 -11.7672 -1305.43 -550.456 511.917 0 0 0 0.5 
352 1 1 3.81637 3.21298 7.38548 -2 0 0 -77.8216 -11.3012 -8.22334 463.535 -1461.96 -119.274 0 0 0 0.5 
148 1 1 1.14037 3.78739 6.16199 -2 0 0 -84.9219 20.5832 -5.04751 3522.28 -1247.06 2961.61 0 0 0 0.5 
911 2 2 0.357597 0.0677044 6.88266 -31 0 -1 -496.131 19.4154 -13.9967 2566.99 -5197.1 269.408 0 0 0 0.5 
816 2 2 3.11534 3.84723 6.57518 -1 0 0 -46.2457 -9.36383 -1.82486 1419.15 -775.014 43.4281 0 0 0 0.5 
116 1 1 0.689708 3.73322 7.07245 -1 0 0 -66.1487 17.8458 3.40084 516.38 -371.41 -61.3702 0 0 0 0.5 
448 1 1 0.682181 4.99506 7.42775 1 0 0 12.7021 -5.34861 0.668544 -403.506 145.489 -215.944 0 0 0 0.5 
312 1 1 2.77535 4.48875 7.39961 0 0 0 -47.1228 18.2827 4.24415 -172.025 937.303 673.186 0 0 0 0.5 
508 2 2 4.56344 0.475222 6.10156 -18 0 0 -364.471 -14.6446 11.2956 -2364.5 271.016 449.341 0 0 0 0.5 
459 1 1 1.77417 4.49308 6.11677 1 0 0 0.533682 -11.1113 1.29909 -2256.59 -1747.94 -325.136 0 0 0 0.5 
315 1 1 3.46154 3.99288 7.54404 0 0 0 -42.2823 10.3644 5.46902 371.413 114.195 505.903 0 0 0 0.5 
161 1 1 4.16952 4.76136 6.80766 -1 0 0 -1.65019 5.15804 -4.19238 848.458 -731.414 -268.636 0 0 0 0.5 
463 1 1 4.64243 0.366479 7.03135 15 1 0 -387.765 -15.685 7.5278 -170.843 481.345 638.341 0 0 0 0.5 
232 1 1 0.493655 2.86032 7.50455 -5 0 0 -137.554 0.321777 -2.29543 -1282.87 1155.08 -48.7806 0 0 0 0.5 
66 1 1 0.0278771 4.09969 7.12035 -1 0 0 -27.6348 -9.24086 -9.66801 -1573.14 -327.54 -314.476 0 0 0 0.5 
540 2 2 3.73062 0.821496 7.6506 -29 0 0 -439.653 27.3295 -30.5116 3250.59 -692.779 63.4834 0 0 0 0.5 
223 1 1 2.01936 3.07719 7.92834 -3 0 -1 -104.68 10.3833 -11.3844 -768.104 1855.4 616.135 0 0 0 0.5 
80 1 1 3.37145 4.81435 6.42877 0 0 0 -3.9856 -9.6203 5.154 -833.956 -1039.48 662.798 0 0 0 0.5 
40 1 1 0.23503 3.61338 7.96315 -1 0 0 -52.7619 -0.272055 14.6065 537.941 -156.27 686.633 0 0 0 0.5 
1 1 1 1.85285 0.860029 7.9917 -28 0 -1 -339.739 -31.8532 -24.6633 1618.77 2381.45 569.629 0 0 0 0.5 
320 1 1 4.85892 3.03127 6.26372 -2 0 0 -102.634 -5.09037 18.3153 -784.438 0.775787 465.163 0 0 0 0.5 
585 2 2 1.6952 2.36766 9.70197 -1 0 0 -138.776 -9.19575 19.4961 -1731.11 1490.65 322.559 0 0 0 0.5 
120 1 1 1.95091 0.859638 9.67626 -11 0 -1 -391.4 17.619 0.160015 276.852 -1418.11 -1329.98 0 0 0 0.5 
230 1 1 1.17556 0.101477 8.15061 15 1 0 -441.725 -6.33075 -8.42132 2820.48 -1937.43 -1411.52 0 0 0 0.5 
238 1 1 0.652935 0.365843 9.26793 -15 0 0 -404.582 -1.67228 -4.63272 306.115 -672.453 -2069.69 0 0 0 0.5 
384 1 1 1.71462 2.16285 8.55617 -4 0 0 -204.039 41.3251 26.1953 2581.21 -845.001 2453.65 0 0 0 0.5 
56 1 1 1.21938 2.97922 9.26822 -2 0 0 -97.0881 9.71877 -14.0893 19.231 -500.558 -788.469 0 0 0 0.5 
583 2 2 0.158073 1.84425 9.10622 -4 0 0 -215.491 2.11153 5.16076 -4374.24 5962.14 -225.869 0 0 0 0.5 
832 2 2 2.25558 3.16945 8.81446 -2 0 -1 -106.795 3.7182 0.679173 425.309 -332.559 869.965 0 0 0 0.5 
233 1 1 0.369933 2.77706 8.8073 -2 0 0 -109.906 -8.18629 -14.4536 -1431.25 3172.27 1723.32 0 0 0 0.5 
588 2 2 2.48667 4.62755 9.23993 0 0 0 -4.6234 6.29383 -10.8779 -118.563 -425.998 -624.698 0 0 0 0.5 
388 1 1 2.93488 0.86777 9.84947 -9 0 0 -393.004 -25.148 30.0673 -2163.99 -1274.94 1213.74 0 0 0 0.5 
270 1 1 0.844711 2.04803 8.47228 -4 0 0 -199.867 2.25242 4.43592 1507.36 -592.065 -1444.23 0 0 0 0.5 
642 2 2 0.522984 1.06366 9.56364 -25 0 0 -327.899 11.5084 6.04358 1319.34 -469.858 2920.92 0 0 0 0.5 
140 1 1 4.06964 0.297235 8.96223 22 1 0 -435.787 -8.27379 6.92081 230.61 -659.457 258.595 0 0 0 0.5 
387 1 1 0.722653 1.24849 8.79902 -13 0 -1 -315.176 24.2543 3.62321 -795.954 -644.963 -2694.11 0 0 0 0.5 
722 2 2 0.045245 0.86778 8.12241 -7 0 0 -293.958 -8.22956 -3.70331 -5378.78 2584.76 2040.83 0 0 0 0.5 
920 2 2 0.746457 0.616397 8.34985 -10 0 0 -369.467 -0.585809 13.9182 914.929 34.635 -760.435 0 0 0 0.5 
544 2 2 2.17671 3.92635 8.51234 -1 0 0 -57.1002 19.5212 13.1976 489.18 971.952 864.455 0 0 0 0.5 
764 2 2 1.97057 1.59562 8.35617 -10 0 0 -280.902 0.597862 16.9419 -3006.24 -2907.33 985.052 0 0 0 0.5 
376 1 1 2.40736 2.43272 9.26312 -3 0 -1 -136.177 -9.68667 8.36977 69.2225 -379.589 727.397 0 0 0 0.5 
859 2 2 2.08849 1.70302 9.94881 -3 0 0 -181.867 -23.2004 11.3799 -5649.89 365.791 1987.01 0 0 0 0.5 
226 1 1 1.15829 2.89424 8.26814 -5 0 0 -102.733 -7.89378 -16.0687 -3473.12 2242.08 -1173.97 0 0 0 0.5 
771 2 2 4.77375 1.47086 9.89875 -8 0 -1 -315.861 37.7737 6.96867 -347.165 -462.553 -843.508 0 0 0 0.5 
515 2 2 1.79565 0.191769 8.9518 -19 0 -1 -453.517 -8.16675 6.582 -2588.52 2230.13 2246.29 0 0 0 0.5 
272 1 1 2.68797 1.36421 9.01676 -23 0 -1 -296.1 -2.56536 7.89516 -1859.69 2345.24 1745.15 0 0 0 0.5 
823 2 2 1.39387 0.821425 8.93541 33 1 -1 -384.749 31.6061 -5.58909 3098.83 -618.971 1875.98 0 0 0 0.5 
574 2 2 2.70889 3.80552 9.39446 0 0 0 -49.5811 -4.43094 -3.62568 -1565.35 -1169.05 -1371.33 0 0 0 0.5 
42 1 1 2.54274 1.47982 8.00749 -9 0 0 -329.743 32.7295 -15.6694 1221.86 -482.97 -163.153 0 0 0 0.5 
511 2 2 3.02111 2.36063 8.69573 -3 0 -1 -166.702 26.2587 -33.6421 1128.04 2002.3 -1063.74 0 0 0 0.5 
342 1 1 3.33736 3.39709 8.30286 -1 0 0 -90.3212 -3.63227 -1.2791 -789.574 56.7973 -1740.2 0 0 0 0.5 
569 2 2 3.95256 2.29347 9.57811 31 1 -1 -156.324 -4.84684 -17.1473 432.939 -2464.23 -2339.04 0 0 0 0.5 
597 2 2 4.68228 3.78696 8.56524 -2 0 0 -63.947 -1.57861 0.673207 912.995 -1347.21 708.247 0 0 0 0.5 
567 2 2 1.32793 4.92785 8.94995 1 0 0 -0.60208 -15.2027 -4.60701 -92.5968 -283.177 -130.307 0 0 0 0.5 
802 2 2 4.40326 4.52998 8.02497 0 0 0 -24.2095 -2.75861 2.94278 549.833 353.12 -858.768 0 0 0 0.5 
293 1 1 2.9729 1.46723 9.93294 -22 0 -1 -288.303 14.1986 7.34451 5945.15 -2600.62 -976.443 0 0 0 0.5 
57 1 1 3.86898 0.0462542 8.09993 18 1 0 -521.095 -13.4737 -22.9453 -3259.21 -599.236 -874.923 0 0 0 0.5 
864 2 2 3.14498 3.31326 9.85921 -1 0 0 -78.5752 -4.66718 14.4431 156.588 895.084 261.481 0 0 0 0.5 
89 1 1 3.66553 4.07847 9.50856 -1 0 0 -48.1066 -9.51865 16.2639 -1475.65 436.407 566.478 0 0 0 0.5 
71 1 1 1.74019 4.84379 9.74327 0 0 0 -9.39018 13.374 -0.69666 -141.925 1287.08 255.96 0 0 0 0.5 
849 2 2 1.20734 3.96859 9.40675 -1 0 0 -11.7522 -12.1871 0.77043 -579.452 188 -1035.61 0 0 0 0.5 
598 2 2 0.783931 4.68432 9.76888 0 0 0 -12.7718 -11.6721 -4.65391 -418.178 533.652 -113.854 0 0 0 0.5 
241 1 1 2.94007 0.894867 8.67609 28 1 0 -356.126 -23.9745 -9.591 -396.034 -1615.1 -4899.95 0 0 0 0.5 
622 2 2 4.07986 4.79887 9.92627 -1 0 -1 13.7544 -2.26092 2.37796 -1824.55 64.4614 79.2484 0 0 0 0.5 
378 1 1 3.43145 2.62369 9.89629 -4 0 0 -146.852 -11.7906 10.8672 -1018.41 -2221.48 1745.27 0 0 0 0.5 
618 2 2 1.09293 4.51954 8.08218 0 0 0 -5.94625 6.24711 -1.08614 -1314.38 379.484 794.884 0 0 0 0.5 
670 2 2 0.331208 4.31267 8.88667 -1 0 0 -17.7269 2.29052 -5.97874 0 0 0 0 0 0 0.5 
344 1 1 4.05796 4.1393 8.77042 0 0 0 -54.2279 11.0311 0.0645681 684.405 -236.977 -62.4523 0 0 0 0.5 
736 2 2 3.23679 1.8785 9.11426 -16 0 0 -268.202 19.4012 21.0644 3298.62 -436.945 2502.52 0 0 0 0.5 
870 2 2 2.79834 4.83477 8.3398 0 0 0 5.37525 13.9733 -6.51876 -164.785 1281.93 -266.998 0 0 0 0.5 
354 1 1 1.12078 3.743 8.41097 -1 0 0 -45.877 4.90631 9.77014 17.7312 -635.184 628.282 0 0 0 0.5 
310 1 1 3.14182 4.11564 8.64707 -1 0 0 -49.3652 6.34756 12.1035 -419.275 -282.681 -122.848 0 0 0 0.5 
18 1 1 0.432764 2.88603 9.78712 -2 0 -1 -78.5528 -22.3072 -12.4966 -1046.07 381.451 672.152 0 0 0 0.5 
308 1 1 3.4522 4.81532 9.07868 1 0 0 2.12616 5.62759 4.15407 -2075.34 826.766 116.104 0 0 0 0.5 
267 1 1 3.50586 0.740582 9.40195 -23 0 0 -404.88 11.1299 -2.07517 1650.12 464.9 1511.59 0 0 0 0.5 
235 1 1 3.77671 2.75829 8.26903 -3 0 0 -102.916 -33.1733 -5.8897 -598.864 -1119.7 -326.382 0 0 0 0.5 
840 2 2 3.71986 3.23712 9.15304 -1 0 0 -102.417 -5.54995 -7.31907 -165.426 -671.92 108.349 0 0 0 0.5 
108 1 1 4.54028 3.05413 9.13947 -4 0 0 -94.0004 -6.82545 -10.1682 1052.81 -618.789 269.812 0 0 0 0.5 
269 1 1 4.50853 1.29518 8.49887 -15 0 0 -363.806 17.4636 -12.3903 0 0 0 0 0 0 0.5 
265 1 1 4.59584 2.89927 8.14577 -2 0 0 -104.281 7.45604 -19.5612 -818.404 800.667 -141.863 0 0 0 0.5 
694 2 2 4.59947 0.204342 8.20395 -27 0 0 -535.701 25.059 -10.4569 4420.16 255.975 -2184.8 0 0 0 0.5 
61 1 1 4.70296 0.894674 9.39662 -21 0 0 -373.264 -10.041 -18.1976 -729.418 -225.275 -88.2273 0 0 0 0.5 
738 2 2 2.3754 0.00136488 8.43042 25 1 0 -494.248 5.17095 26.515 1957.25 -868.611 -752.694 0 0 0 0.5 
30 1 1 4.93562 4.70172 9.57004 0 0 0 -2.05427 9.3352 6.34987 1388.63 -368.707 -830.88 0 0 0 0.5 
133 1 1 2.78982 9.60686 0.251994 8 0 1 458.364 -20.042 -8.94224 1993.06 194.594 -1722.6 0 0 0 0.5 
660 2 2 3.85033 8.56348 0.288906 6 0 1 249.647 14.8651 -19.8488 -48.2448 -35.689 78.8405 0 0 0 0.5 
426 1 1 3.59696 8.76254 1.8394 8 0 0 318.68 6.34189 -10.4313 -693.369 123.796 -74.9801 0 0 0 0.5 
319 1 1 2.40738 6.06425 1.98133 3 0 0 72.5539 -26.2062 7.89373 -1273.62 -836.015 -1369.98 0 0 0 0.5 
592 2 2 3.23463 5.76409 0.520594 2 0 0 42.2828 7.93599 4.18188 41.4101 -278.778 -31.2172 0 0 0 0.5 
923 2 2 2.98311 6.97129 1.81952 5 0 0 129.717 -18.0908 -25.4779 -288.425 124.889 -139.646 0 0 0 0.5 
102 1 1 4.33035 5.76808 1.40844 1 0 0 57.6931 -4.79112 5.14151 224.437 -1592.68 44.4173 0 0 0 0.5 
994 2 2 3.28217 7.23907 0.0335345 6 0 0 147.146 6.30664 -4.16027 -19.6184 611.484 -68.8157 0 0 0 0.5 
98 1 1 1.46434 5.56301 1.96683 0 0 0 34.8653 19.0687 -8.61291 599.159 549.116 1335.76 0 0 0 0.5 
105 1 1 3.78131 7.37469 1.18932 3 0 0 156.264 -0.558229 7.23402 749.477 -2174.11 -2468.51 0 0 0 0.5 
167 1 1 2.36593 9.10554 1.45104 10 0 0 374.506 -22.9531 24.3351 -1529.21 2302.32 -1049.63 0 0 0 0.5 
292 1 1 3.3796 8.21526 1.05817 -27 -1 0 255.169 -4.87047 -15.0904 -63.7156 1823.51 461.309 0 0 0 0.5 
473 1 1 3.36649 5.83048 1.54268 3 0 0 54.062 8.18358 -1.11684 283.491 386.527 -136.028 0 0 0 0.5 
617 2 2 2.78479 8.81562 0.826237 11 0 1 299.026 9.3641 -24.8496 1400.52 -928.747 -682.781 0 0 0 0.5 
794 2 2 1.00121 8.98525 0.471083 24 0 0 355.735 -14.04 32.0757 0 0 0 0 0 0 0.5 
420 1 1 2.70356 7.38755 0.87856 4 0 0 180.857 -4.20082 14.9221 424.82 -57.2178 354.02 0 0 0 0.5 
729 2 2 1.28872 9.9802 1.28246 22 0 1 505.994 1.80115 23.9506 260.5 -717.735 924.853 0 0 0 0.5 
949 2 2 3.61211 7.84412 1.83745 18 0 1 244.663 -3.28047 3.16127 281.128 2034.29 775.228 0 0 0 0.5 
302 1 1 0.0530782 9.43083 0.352052 9 0 1 401.631 2.27906 -11.6802 -121.136 431.778 1129.13 0 0 0 0.5 
125 1 1 0.311037 9.795 1.17469 -15 -1 1 505.652 -18.7523 13.2946 1782.97 -1056.27 -1508.68 0 0 0 0.5 
441 1 1 0.395258 7.17855 1.30578 5 0 1 133.864 0.803535 10.561 -1067.46 1955.03 -31.8693 0 0 0 0.5 
132 1 1 4.3008 8.33586 1.27941 15 0 1 249.128 9.12485 0.121962 2598.27 -1229.45 -1581.54 0 0 0 0.5 
386 1 1 4.15827 6.64578 1.34212 3 0 0 92.3911 -12.3715 25.5486 1461.82 -460.065 -925.971 0 0 0 0.5 
815 2 2 1.19585 7.26611 0.765131 4 0 0 128.898 10.3864 -11.9797 217.229 -367.819 481.922 0 0 0 0.5 