ITEM: TIMESTEP
18000
ITEM: NUMBER OF ATOMS
1000
ITEM: BOX BOUNDS xy xz yz pp pp pp
0 10 0
0 10 0
-0 10 0
ITEM: ATOMS id type type x y z ix iy iz vx vy vz fx fy fz omegax omegay omegaz radius 
937 2 2 1.89228 4.05152 1.37377 -12 0 0 -100.507 -3.4066 11.9519 6.31886 -45.2956 29.744 0 0 0 0.5 
16 1 1 1.20151 0.848434 1.07712 -57 0 0 -373.398 -3.73764 5.65088 709.568 28.7944 -645.29 0 0 0 0.5 
510 2 2 1.25912 3.37602 1.78645 -25 0 0 -167.795 -0.229051 -7.93711 133.137 -1068.97 727.022 0 0 0 0.5 
96 1 1 0.130113 1.09579 0.00972836 -25 0 1 -288.007 -32.3099 -17.197 -692.93 -314.036 -672.297 0 0 0 0.5 
159 1 1 2.72599 1.46288 1.4559 82 1 0 -335.117 -3.07149 -5.19231 -176.75 2315.61 1201.06 0 0 0 0.5 
901 2 2 1.83237 1.70864 1.63728 -39 0 0 -328.758 15.8026 4.84882 1413.98 -4239.99 477.334 0 0 0 0.5 
304 1 1 1.41694 0.20615 1.56425 -36 0 0 -447.593 -8.97411 -5.66797 300.649 -3918.63 868.273 0 0 0 0.5 
842 2 2 0.493091 0.34823 0.595131 -40 0 1 -369.182 -22.8792 18.3026 -245.047 -690.96 -224.45 0 0 0 0.5 
538 2 2 2.5901 3.19311 0.865617 106 1 0 -150.243 -22.9516 -2.50919 829.704 988.464 -101.533 0 0 0 0.5 
127 1 1 4.37081 0.848069 0.0745481 -37 0 1 -381.087 22.0873 18.6576 982.811 1246.53 544.523 0 0 0 0.5 
531 2 2 4.70677 2.58691 0.843156 -25 0 0 -216.386 -18.0994 22.029 -318.895 -108.003 70.5891 0 0 0 0.5 
943 2 2 0.961861 1.64629 1.49015 -23 0 0 -334.825 6.37805 1.29549 267.426 -574.919 -972.571 0 0 0 0.5 
966 2 2 0.891692 2.33361 0.885669 -9 0 1 -246.024 6.88155 11.8755 -429.06 531.946 -1004.4 0 0 0 0.5 
507 2 2 1.52322 1.97048 0.286768 -42 0 0 -258.709 -13.5212 3.35948 -1552.51 1408.06 -2181.68 0 0 0 0.5 
52 1 1 1.75252 0.16065 0.628337 109 1 1 -398.788 -9.87359 -14.2041 -905.8 2392.99 1398.24 0 0 0 0.5 
318 1 1 1.60268 2.62867 1.56395 -26 0 1 -195.569 -32.1972 10.1007 -837.431 3177.8 -375.906 0 0 0 0.5 
329 1 1 0.762248 1.38228 0.623041 -39 0 1 -315.447 7.76416 -15.1413 560.357 1741.33 2159.2 0 0 0 0.5 
27 1 1 2.11409 1.62421 0.74132 -38 0 1 -291.746 -17.6434 9.132 287.492 -759.104 -440.611 0 0 0 0.5 
618 2 2 1.62355 3.2071 0.882543 -13 0 1 -143.933 -15.2389 19.9585 816.103 -957.755 -168.706 0 0 0 0.5 
62 1 1 4.08182 3.25202 0.907306 -24 0 0 -193.552 4.76597 -1.46608 193.698 1260.85 756.784 0 0 0 0.5 
765 2 2 1.27834 0.828976 0.0769153 78 1 0 -366.631 3.08842 -0.316909 953.586 -881.146 -1938.59 0 0 0 0.5 
335 1 1 0.359967 2.09936 0.0561202 -36 0 1 -224.886 -11.303 -1.88629 -1317.91 2383.35 -1125.37 0 0 0 0.5 
980 2 2 0.00474678 0.190632 1.85774 57 1 1 -432.764 -31.5169 13.6156 168.973 -438.38 1431.03 0 0 0 0.5 
840 2 2 4.30613 4.19927 0.89342 -10 0 1 -68.5851 -5.43343 10.4569 681.811 -2948.97 -1878.51 0 0 0 0.5 
905 2 2 4.43081 4.28188 1.81694 -15 0 0 -70.7643 -2.72997 -9.39217 215.943 -172.467 308.739 0 0 0 0.5 
456 1 1 2.94908 4.64197 1.92531 -3 0 0 -64.1793 -7.15988 14.1682 -997.599 -1889.43 506.454 0 0 0 0.5 
110 1 1 4.53749 2.95179 0.0263703 -16 0 1 -189.147 2.01352 -1.40268 392.773 -484.679 31.3445 0 0 0 0.5 
898 2 2 0.358086 3.2191 1.47754 -26 0 0 -174.119 3.69093 -22.8024 175.951 29.5027 38.4233 0 0 0 0.5 
40 1 1 0.476312 3.59806 0.0669532 -7 0 1 -109.862 -3.94443 -7.06136 -1060.25 394.979 93.2615 0 0 0 0.5 
908 2 2 4.32223 2.00912 0.0370075 -37 0 1 -277.562 -3.68066 35.0138 2911.77 -2085.79 -62.434 0 0 0 0.5 
275 1 1 4.4268 0.0315355 1.58262 -25 0 0 -463.541 9.20124 27.8112 847.205 -385.193 -161.249 0 0 0 0.5 
229 1 1 3.37162 0.656601 0.615407 -29 0 1 -442.79 13.3322 -10.4426 -96.299 1224.16 228.449 0 0 0 0.5 
852 2 2 4.70293 0.155933 0.386892 -59 0 1 -441.384 0.67022 20.4545 760.758 -647.282 1473.58 0 0 0 0.5 
524 2 2 1.86697 4.08321 0.014185 -13 0 1 -103.143 31.7278 7.0944 -18.9702 -283.736 3.45012 0 0 0 0.5 
77 1 1 3.38555 0.90078 1.68948 65 1 1 -387.177 3.77601 -19.7154 1997.24 -1877.44 1053.32 0 0 0 0.5 
697 2 2 0.799197 4.11078 1.36702 -24 0 0 -97.5458 13.5721 -13.0802 -1393.22 1933.68 907.782 0 0 0 0.5 
267 1 1 4.25791 0.912031 1.28672 -69 0 1 -377.156 5.44458 -16.3211 2134.78 -708.196 1042.49 0 0 0 0.5 
264 1 1 3.57221 4.2558 1.63262 -6 0 0 -74.1548 -4.90493 -1.35604 715.525 -1147.14 -1070.85 0 0 0 0.5 
592 2 2 1.80876 3.21265 0.0247707 -7 0 0 -153.196 5.39741 8.45319 -2390.15 1388.6 480.783 0 0 0 0.5 
656 2 2 4.5496 2.08134 1.74187 -36 0 1 -236.321 -11.0351 13.9185 -2495.2 4888.96 -621.757 0 0 0 0.5 
190 1 1 1.10605 3.75051 0.67771 -18 0 1 -117.064 6.67956 -12.9153 464.741 778.438 -1037.79 0 0 0 0.5 
161 1 1 3.54579 4.27523 0.280238 -5 0 1 -75.1838 10.0456 3.39101 962.779 -104.831 471.479 0 0 0 0.5 
631 2 2 1.78689 4.807 0.877668 10 0 0 -27.9842 6.22122 -18.4543 -162.466 23.9913 -54.9879 0 0 0 0.5 
770 2 2 4.72763 3.15125 1.62963 -32 0 0 -185.715 4.24188 22.4591 -89.9987 118.552 -639.44 0 0 0 0.5 
882 2 2 3.07839 3.33461 1.71532 -15 0 0 -162.366 -4.38863 -3.19049 999.513 -1525.2 -1314.69 0 0 0 0.5 
576 2 2 2.72042 4.93437 1.02859 46 0 0 -28.5752 22.8248 7.34281 -11.4332 -326.578 496.506 0 0 0 0.5 
121 1 1 3.00957 2.36963 1.51133 79 1 0 -219.87 -10.0409 -39.3028 -465.065 -38.4815 -472.284 0 0 0 0.5 
779 2 2 2.88354 4.09013 1.00699 -11 0 0 -82.939 -13.0751 -4.88369 -324.451 -1163.17 -108.905 0 0 0 0.5 
317 1 1 2.72301 4.57799 0.17143 -13 0 1 -81.3487 12.339 7.36482 234.07 -1022.05 2102.24 0 0 0 0.5 
760 2 2 2.99278 1.9744 0.494503 -30 0 1 -301.481 10.9657 2.64475 1611.86 -285.065 1722.11 0 0 0 0.5 
461 1 1 3.58659 1.53021 0.943688 92 1 0 -323.627 5.72782 9.73732 -747.328 177.719 -703.335 0 0 0 0.5 
566 2 2 3.691 2.72665 0.144025 92 1 1 -203.558 -25.019 8.50921 -3117.47 3471.46 2173.94 0 0 0 0.5 
293 1 1 3.95674 0.0531997 0.815983 -56 0 0 -454.612 -17.1409 6.04269 -407.04 -302.611 651.864 0 0 0 0.5 
696 2 2 3.80832 4.91859 0.872669 9 0 0 -13.9609 1.60324 7.14843 -1747.9 2551.84 -144.881 0 0 0 0.5 
416 1 1 2.95722 0.0346017 1.31217 -33 0 0 -474.993 13.6221 -3.84973 -418.963 -1630.18 797.015 0 0 0 0.5 
15 1 1 4.97335 1.25106 1.84747 -41 0 1 -366.842 24.0622 -10.633 2502.42 -3110.01 261.202 0 0 0 0.5 
269 1 1 2.39405 0.041091 2.10392 -62 0 1 -496.726 9.35495 -10.9534 179.916 212.472 440.164 0 0 0 0.5 
12 1 1 1.1941 2.10299 3.85385 -48 0 0 -239.134 -24.215 -20.9944 -36.4238 -841.103 1392.67 0 0 0 0.5 
137 1 1 3.30396 1.3602 3.38491 -90 0 0 -360.528 -10.8608 10.5965 5575.82 -4370.36 -950.354 0 0 0 0.5 
755 2 2 0.791047 2.90356 2.40006 -37 0 0 -184.043 -22.1813 -22.378 708.293 363.808 -275.708 0 0 0 0.5 
784 2 2 0.51132 1.31127 3.72904 -48 0 1 -364.677 2.77806 -2.15714 -2600.93 2248.66 3281.1 0 0 0 0.5 
792 2 2 4.26088 0.112457 3.11695 40 1 0 -490.805 3.64218 17.9293 -506.267 201.992 254.072 0 0 0 0.5 
827 2 2 1.02063 1.79231 2.73252 -21 0 0 -296.445 -0.955612 0.309164 -2708.73 -608.705 608.45 0 0 0 0.5 
346 1 1 2.62122 0.949787 2.28825 75 1 0 -386.698 1.1892 -0.11654 535.504 -831.195 -2080.02 0 0 0 0.5 
759 2 2 1.65915 2.83905 2.50079 -21 0 0 -188.028 -12.1833 4.2629 712.824 105.984 -672.297 0 0 0 0.5 
250 1 1 0.129439 1.63875 3.18397 -17 0 0 -312.217 -15.3397 -2.6276 -1611.9 612.088 -1903.24 0 0 0 0.5 
373 1 1 0.885504 1.00597 2.14607 -35 0 0 -368.909 -3.41079 -28.7851 1438.22 2014.12 -292.759 0 0 0 0.5 
596 2 2 1.93214 2.85117 3.32366 -35 0 1 -199.828 -14.8287 10.8343 -101.009 -1746.43 50.4021 0 0 0 0.5 
231 1 1 4.33632 3.48022 3.20057 -31 0 1 -136.076 6.34621 4.29401 328.457 1642.07 1748.27 0 0 0 0.5 
95 1 1 0.560906 4.04152 2.45948 -6 0 0 -75.8422 -13.7805 -16.2468 -1192.06 -1361.47 -1009.1 0 0 0 0.5 
469 1 1 1.33222 0.020838 3.19353 54 1 0 -520.571 -11.8965 13.4799 1013.38 -2080.93 708.355 0 0 0 0.5 
890 2 2 2.69749 2.43597 3.21128 -11 0 0 -205.423 1.0687 -1.95004 1277.24 273.648 -458.76 0 0 0 0.5 
262 1 1 1.01919 0.633308 2.76942 -64 0 0 -456.681 -0.776439 -20.0237 -294.441 -514.506 504.216 0 0 0 0.5 
619 2 2 0.926845 2.57541 3.23879 -15 0 1 -208.464 -5.21022 -6.35226 -1.37344 300.143 316.454 0 0 0 0.5 
319 1 1 1.54735 3.54666 3.4503 -4 0 0 -133.07 0.802352 7.1062 242.252 -254.606 -1533.99 0 0 0 0.5 
100 1 1 2.37504 3.72433 3.75349 -8 0 0 -122.868 -2.27888 0.897532 604.618 -1044.93 -143.346 0 0 0 0.5 
807 2 2 2.58613 2.66718 2.32938 -19 0 0 -186.816 -6.5861 -20.0413 82.495 51.3491 -6.15893 0 0 0 0.5 
873 2 2 3.635 0.220246 2.16064 -33 0 0 -451.829 -10.9832 14.8188 -667.235 -364.187 1037.39 0 0 0 0.5 
597 2 2 4.04041 1.79469 2.6515 -31 0 1 -277.617 -5.78416 28.6865 747.946 462.706 1608.35 0 0 0 0.5 
692 2 2 1.11404 0.863403 3.55387 57 1 0 -446.305 8.0279 -12.9387 4362.64 -2016.03 295.59 0 0 0 0.5 
112 1 1 2.5465 4.437 3.25201 -5 0 0 -52.993 7.21605 19.6494 1239.01 -1843.96 -58.7927 0 0 0 0.5 
480 1 1 1.79321 1.27463 2.42837 -30 0 1 -376.361 13.2618 18.1356 1884.71 -2046.87 -1121.39 0 0 0 0.5 
828 2 2 2.62446 3.73614 2.41899 -22 0 1 -101.989 -10.1208 10.685 -576.94 667.87 1589.37 0 0 0 0.5 
895 2 2 0.728934 3.34989 2.93663 -55 0 0 -140.785 3.6875 15.9915 -67.4977 1652.61 1255.37 0 0 0 0.5 
582 2 2 1.3726 4.8576 2.00645 12 0 0 -22.0215 16.7681 -8.7517 -801.91 301.68 -943.005 0 0 0 0.5 
682 2 2 1.90412 4.57057 2.66665 -7 0 0 -43.175 -1.67683 -6.65265 351.459 328.293 1129.62 0 0 0 0.5 
530 2 2 0.0852271 2.51454 3.57643 -14 0 1 -208.959 -8.89444 22.872 -214.238 611.878 125.008 0 0 0 0.5 
574 2 2 1.28843 3.99871 2.26707 -6 0 1 -84.4699 6.16627 9.62216 3346.25 919.703 -132.689 0 0 0 0.5 
391 1 1 0.167921 3.39591 3.94123 -9 0 0 -156.547 22.0938 7.49072 -480.922 -967.906 -24.0615 0 0 0 0.5 
503 2 2 3.47799 4.34705 3.22792 -20 0 0 -52.5991 1.2799 4.81841 713.774 448.52 6.63486 0 0 0 0.5 
357 1 1 1.57511 4.74508 3.99725 -87 -1 1 13.2673 -1.67572 20.7654 2406.46 -494.076 -1337.74 0 0 0 0.5 
342 1 1 4.84436 3.80422 2.43707 -13 0 1 -104.195 -9.25119 7.90274 -3198.79 1215.85 2628.88 0 0 0 0.5 
804 2 2 4.23465 1.08952 2.34603 -76 0 0 -364.607 -27.4444 -0.982758 158.043 -1468.69 -457.258 0 0 0 0.5 
627 2 2 3.43841 3.40359 2.86656 -8 0 0 -92.4159 -21.5123 6.77707 -2641.65 -61.9836 -1041.54 0 0 0 0.5 
421 1 1 2.97024 0.519308 2.90481 62 1 0 -421.504 -17.0231 22.2969 471.16 -581.127 832.326 0 0 0 0.5 
773 2 2 0.538034 2.13501 2.06752 -20 0 0 -295.75 8.08465 8.49509 -0.173253 -695.077 -659.271 0 0 0 0.5 
900 2 2 2.90253 1.86475 3.97091 -26 0 0 -251.979 -19.327 -12.1399 -4692.75 4619.17 1850.68 0 0 0 0.5 
919 2 2 4.8517 1.88373 3.04796 -16 0 0 -257.159 -12.7773 30.6049 775.539 -2610.41 -518.516 0 0 0 0.5 
354 1 1 0.983207 4.08522 3.43915 -13 0 1 -92.3937 26.0642 12.0546 -2273.3 1341.15 -466.615 0 0 0 0.5 
917 2 2 0.124738 4.60378 2.60646 14 0 0 -18.9575 0.803899 -19.0157 -1640.43 2009.67 843.221 0 0 0 0.5 
255 1 1 3.53207 2.239 2.20036 -21 0 1 -251.841 3.90204 4.43518 -764.792 876.316 -535.069 0 0 0 0.5 
659 2 2 2.8093 1.60728 2.98138 -21 0 0 -302.235 -14.4979 -21.7704 -2965.55 1256.06 -2332.17 0 0 0 0.5 
331 1 1 4.32381 4.8252 2.41353 6 0 0 -21.2906 -3.58815 0.189515 -1800.85 967.784 538.399 0 0 0 0.5 
832 2 2 4.39308 2.56138 3.29254 -24 0 0 -208.707 -17.5143 8.81603 -2049.08 2816.98 1960 0 0 0 0.5 
217 1 1 1.57757 3.84813 5.1697 -12 0 0 -100.266 -10.811 8.82052 -31.1426 -984.567 187.13 0 0 0 0.5 
86 1 1 2.47815 4.37344 4.32263 -16 0 1 -52.1834 8.49036 -4.31093 -2014.47 281.735 -1606.81 0 0 0 0.5 
675 2 2 3.10588 3.91663 4.42834 -8 0 0 -99.4412 -3.10038 -9.67909 1221.26 -1686.84 141.161 0 0 0 0.5 
823 2 2 0.710334 0.885487 4.33503 94 1 -1 -435.007 -24.1864 19.8597 -91.5154 153.544 330.767 0 0 0 0.5 
540 2 2 1.75269 0.118401 5.54901 -86 0 0 -516.513 10.9919 -7.58599 -729.436 472.004 147.924 0 0 0 0.5 
80 1 1 3.72819 4.32819 5.1653 -10 0 0 -43.2263 -14.2279 -12.8616 -79.6292 21.3148 676.823 0 0 0 0.5 
543 2 2 0.660704 1.44027 4.95183 -54 0 0 -387.902 13.0552 31.4172 1217.33 140.064 -464.765 0 0 0 0.5 
716 2 2 1.2759 2.6679 4.57004 -39 0 0 -211.32 24.1395 -21.639 -666.927 1504.48 -1873.1 0 0 0 0.5 
549 2 2 3.26962 3.30136 5.43051 -82 0 0 -174.255 21.1594 3.26039 1458.49 -1193.9 -11.3571 0 0 0 0.5 
411 1 1 1.53594 3.0068 5.44285 -26 0 0 -186.199 -12.5549 -19.4516 395.863 -1174.41 938.274 0 0 0 0.5 
277 1 1 1.55381 0.672299 4.38769 -80 0 1 -470.136 3.66242 7.38313 3356.77 -846.77 192.955 0 0 0 0.5 
18 1 1 3.90089 3.67844 4.58972 -12 0 0 -108.587 -0.602793 -4.81274 1232.77 -1079.76 -337.979 0 0 0 0.5 
734 2 2 0.444196 2.23171 5.79006 -22 0 0 -256.819 -10.9021 -7.4737 3029.94 -932.917 1575.16 0 0 0 0.5 
399 1 1 1.5927 1.24013 5.78855 -53 0 -1 -443.604 13.2995 10.8525 2408.54 -3431.6 421.348 0 0 0 0.5 
327 1 1 2.03145 3.41726 4.59906 -6 0 0 -115.582 -0.804835 -1.35344 643.284 -501.734 -49.8086 0 0 0 0.5 
259 1 1 2.13992 1.5914 4.91119 -50 0 -1 -402.525 7.46237 16.9539 2311.22 -1571.39 2948.41 0 0 0 0.5 
35 1 1 2.30787 0.786535 5.06393 -63 0 1 -471.637 2.13782 5.71982 -653.711 -673.366 -175.745 0 0 0 0.5 
691 2 2 0.885857 0.346006 5.16888 38 1 0 -512.426 11.0083 -0.893728 -526.81 138.325 -231.025 0 0 0 0.5 
737 2 2 0.546719 2.74297 4.90854 -10 0 0 -208.104 7.97409 -13.5037 -444.179 657.773 1259.92 0 0 0 0.5 
653 2 2 2.28438 2.13939 5.6837 97 1 0 -274.135 -1.08895 24.92 1354.41 -731.749 -1419.46 0 0 0 0.5 
863 2 2 3.01999 4.74803 5.26765 -22 0 0 -32.8717 -7.53631 -7.20218 1342.14 -2216.64 -2960.37 0 0 0 0.5 
626 2 2 4.40587 3.05793 4.15251 2 0 -1 -140.747 -4.58801 10.6831 1056.66 -1026.28 -1337.77 0 0 0 0.5 
298 1 1 4.52684 2.17995 4.12407 -53 0 0 -220.034 -26.5081 33.3065 7.56585 -380.16 -478.029 0 0 0 0.5 
750 2 2 0.172118 1.01793 5.70806 -46 0 0 -404.159 -2.83665 -4.03232 812.831 -4259.62 -301.267 0 0 0 0.5 
449 1 1 2.2262 4.10886 5.35691 -5 0 0 -94.9879 27.92 -39.6812 2277.26 501.866 -1832.75 0 0 0 0.5 
254 1 1 0.47865 4.40762 5.85629 3 0 0 -20.9352 -20.0363 23.9155 220.033 -588.743 -344.396 0 0 0 0.5 
689 2 2 1.80253 2.11097 4.55538 -27 0 0 -258.59 4.03938 -20.1878 526.596 2147.7 -1635.47 0 0 0 0.5 
321 1 1 3.70921 4.72309 5.96031 13 0 -1 -35.8861 12.228 -15.9522 944.721 707.862 1401.25 0 0 0 0.5 
514 2 2 2.96358 2.4552 5.09132 -30 0 0 -282.76 14.6278 18.0128 3030.91 -2369.25 -287.478 0 0 0 0.5 
902 2 2 2.4496 3.26394 5.22735 68 1 0 -166.713 -4.63398 12.1185 -2806.83 2077.73 2679.72 0 0 0 0.5 
358 1 1 2.29203 2.9141 4.24618 -11 0 0 -176.158 -29.3066 -14.7422 118.352 -2099.96 -575.162 0 0 0 0.5 
932 2 2 1.33547 2.09179 5.39967 -12 0 0 -263.525 -16.3775 -6.1177 -566.472 3583.33 -2766.39 0 0 0 0.5 
936 2 2 4.30233 4.88123 4.454 5 0 0 19.5157 -6.47835 -4.0565 -2328.48 1078.86 -725.585 0 0 0 0.5 
105 1 1 2.8105 0.00884616 4.49712 33 1 0 -521.595 -3.74987 -17.6413 -2369.57 2274.14 -300.064 0 0 0 0.5 
522 2 2 1.48134 3.87198 4.28396 -8 0 0 -73.3098 -7.76423 -4.41674 -3016.85 2648.98 -157.908 0 0 0 0.5 
641 2 2 1.806 4.58515 5.892 -6 0 0 -42.7337 17.9717 -7.85116 -1562.06 -755.259 456.532 0 0 0 0.5 
157 1 1 3.53042 1.6556 4.46715 -14 0 0 -335 2.01331 47.4138 1946.28 -2695.96 1481.57 0 0 0 0.5 
483 1 1 4.59144 0.0613554 4.58224 42 1 0 -527.941 6.03692 -16.7783 -777.187 3318.13 2176.17 0 0 0 0.5 
746 2 2 4.46717 4.70417 5.28305 2 0 0 -57.6167 22.2603 -7.83186 967.112 241.86 1642.2 0 0 0 0.5 
389 1 1 3.01552 2.82594 4.06185 -21 0 0 -150.021 -2.67306 -22.1949 1108.02 -1245.23 -266.596 0 0 0 0.5 
332 1 1 2.62394 0.00990574 5.4315 -59 0 0 -526.256 4.53381 -5.47225 1014.47 -248.645 1909.08 0 0 0 0.5 
188 1 1 0.977057 4.35424 5.04009 11 0 0 -39.008 4.9679 7.89595 1101.41 1272.72 109.603 0 0 0 0.5 
679 2 2 0.237405 4.58246 4.85513 -13 0 0 1.29347 -20.6832 -7.00554 -2253.59 1749.41 -82.0193 0 0 0 0.5 
511 2 2 2.69739 4.0439 5.95011 -16 0 -1 -111.062 22.9015 -3.14926 1035.19 79.5096 997.714 0 0 0 0.5 
761 2 2 3.19883 0.781872 4.17786 -60 0 0 -435.779 5.07181 8.9998 232.065 808.577 1165.75 0 0 0 0.5 
476 1 1 4.88764 1.43001 5.71568 -3 0 0 -316.281 -10.4851 -27.893 -2422.83 1405.42 1174.03 0 0 0 0.5 
348 1 1 4.86707 3.99932 5.52949 -2 0 0 -96.4752 -0.422567 10.766 -411.203 40.1454 194.117 0 0 0 0.5 
56 1 1 2.16007 3.5478 6.39632 -19 0 0 -129.936 9.92037 3.65049 202.107 53.8745 2412.69 0 0 0 0.5 
495 1 1 1.15122 2.45236 7.5274 -33 0 0 -270.567 12.3876 12.269 -271.709 1382.89 160.296 0 0 0 0.5 
970 2 2 1.96189 0.841842 6.9508 89 1 -1 -454.42 24.7008 -10.0517 0 0 0 0 0 0 0.5 
278 1 1 0.848601 1.27548 6.38472 84 1 -1 -414.445 1.23848 7.26 2146.21 -2897.65 -1667.96 0 0 0 0.5 
968 2 2 0.390223 2.80532 7.72572 85 1 0 -253.365 8.25541 -2.49629 69.7009 227.041 -229.125 0 0 0 0.5 
646 2 2 0.408954 1.69307 6.72952 -24 0 0 -333.935 5.98922 18.7141 -3310.3 3148.45 2650.36 0 0 0 0.5 
83 1 1 1.16145 0.71646 7.57572 58 1 0 -444.656 3.94313 0.680257 960.819 -5166.94 -481.143 0 0 0 0.5 
580 2 2 0.187572 0.265625 7.84387 78 1 0 -452.267 -3.93137 17.7521 -965.35 -1003.23 -1722.61 0 0 0 0.5 
973 2 2 1.51145 3.67078 6.14829 -26 0 0 -134.867 1.07526 -15.1219 -1057.63 2086.89 -1130.68 0 0 0 0.5 
51 1 1 2.47914 4.51161 6.98338 8 0 0 -22.1417 1.05803 12.2703 -1672.05 924.556 176.128 0 0 0 0.5 
586 2 2 1.52314 1.9498 6.98134 75 1 0 -306.655 -20.3911 18.4675 1181.15 -2488.67 -2015.71 0 0 0 0.5 
206 1 1 2.17585 2.77815 6.94275 -38 0 0 -173.749 -35.2115 10.9263 2296.99 -690.395 -1861.37 0 0 0 0.5 
129 1 1 3.93723 0.741965 6.05475 -57 0 0 -423.788 13.4844 -18.5267 745.582 -238.693 -1022.03 0 0 0 0.5 
948 2 2 1.53722 2.26165 6.20243 85 1 0 -261.091 0.191126 7.51031 887.402 -855.662 -505.819 0 0 0 0.5 
311 1 1 3.42398 3.64767 7.04019 -2 0 0 -115.627 -23.0396 -10.9003 -189.081 -1502.24 746.711 0 0 0 0.5 
261 1 1 1.9245 3.96969 7.93829 -5 0 0 -118.623 22.7141 12.2886 289.675 326.829 614.751 0 0 0 0.5 
805 2 2 0.259281 0.714536 6.87551 -50 0 -1 -424.883 8.79746 9.32912 -1664.87 3317.29 267.905 0 0 0 0.5 
134 1 1 0.981063 2.62637 6.60451 -26 0 0 -235.553 1.14279 8.53993 -1592.06 634.093 558.514 0 0 0 0.5 
613 2 2 2.51835 3.65713 7.43801 -19 0 0 -130.741 6.63523 -16.329 130.205 -200.721 -1084.02 0 0 0 0.5 
611 2 2 3.29376 4.32683 6.79835 -10 0 0 -32.1131 12.5299 -16.9209 557.954 -561.32 -123.636 0 0 0 0.5 
830 2 2 0.799796 1.40808 7.54401 66 1 -1 -330.36 -1.56224 26.6832 -1662.11 3371.05 -2208.69 0 0 0 0.5 
2 1 1 1.65817 3.30271 7.0953 3 0 0 -135.535 -11.1283 9.72576 283.055 622.149 1351.44 0 0 0 0.5 
829 2 2 4.38825 1.90048 6.00989 -3 0 0 -292.378 15.7696 1.28025 -1269.85 1196.33 748.136 0 0 0 0.5 
38 1 1 1.31292 3.968 7.46971 -39 0 0 -118.899 28.2491 -9.9503 809.371 -2039.09 359.756 0 0 0 0.5 
257 1 1 0.593464 3.0982 6.02374 -13 0 0 -179.153 29.3174 -13.6097 -738.402 -660.208 -944.966 0 0 0 0.5 
648 2 2 3.53461 1.22834 6.67303 77 1 0 -369.132 0.952408 12.6668 -772.834 935.84 1189.57 0 0 0 0.5 
49 1 1 4.12568 4.33942 6.57327 7 0 0 -40.9497 -1.53524 17.8237 2318.87 -37.4617 -492.374 0 0 0 0.5 
478 1 1 4.01402 4.8598 7.44208 14 0 0 -30.5585 8.20189 16.3302 -2119.07 197.216 1215.17 0 0 0 0.5 
236 1 1 3.97395 0.558725 7.36631 -48 0 0 -423.958 -4.65935 5.16692 -259.858 1603.26 -7.81621 0 0 0 0.5 
123 1 1 3.75352 2.64352 7.95306 -37 0 0 -212.14 0.0649197 -8.25454 -1332.93 2854.35 1063.81 0 0 0 0.5 
548 2 2 2.94116 0.540126 6.16624 -45 0 0 -436.237 9.70331 -12.3156 -1182.72 706.906 -2056.44 0 0 0 0.5 
658 2 2 2.73766 3.05737 6.18381 -10 0 0 -169.1 -14.8499 6.96578 1875.66 -1923.9 -449.572 0 0 0 0.5 
594 2 2 1.76457 1.94794 7.90952 -36 0 0 -304.972 -6.94584 -16.6624 2620.87 -125.632 3479.35 0 0 0 0.5 
546 2 2 2.83372 4.8659 6.25329 0 0 0 -22.4959 22.0206 26.3627 -117.951 435.281 471.534 0 0 0 0.5 
896 2 2 1.67679 4.66835 6.76545 -2 0 -1 -9.64259 4.70138 -10.8691 -447.885 144.453 214.165 0 0 0 0.5 
383 1 1 0.0295054 2.64351 6.87039 -18 0 0 -219.755 -11.0106 -4.55123 70.2426 -1433.59 1002.37 0 0 0 0.5 
94 1 1 0.139135 4.97459 6.39733 -17 0 0 -1.59552 6.15467 25.3739 151.29 554.902 532.209 0 0 0 0.5 
65 1 1 0.923992 3.552 6.81696 -1 0 0 -116.247 -8.73309 0.164938 -3513.49 1389.59 -826.482 0 0 0 0.5 
11 1 1 1.0048 4.82107 7.16882 -20 0 -1 -6.01478 5.89206 3.78077 -1310.03 4153.85 -753.211 0 0 0 0.5 
89 1 1 2.9406 3.05897 7.87157 -33 0 0 -197.139 -12.134 0.676427 -611.572 -620.346 893.262 0 0 0 0.5 
843 2 2 0.222363 4.66802 7.40886 9 0 0 -2.18335 -23.5264 14.8378 -588.036 -729.742 153.739 0 0 0 0.5 
468 1 1 3.17485 4.46171 7.63309 12 0 0 -31.2761 -16.1879 -8.9278 519.89 490.237 2394.22 0 0 0 0.5 
201 1 1 3.66825 1.18464 7.71073 -41 0 0 -370.457 12.1012 25.7433 -1005.06 1542.91 422.015 0 0 0 0.5 
956 2 2 4.26129 2.01839 7.80594 -36 0 0 -303.776 1.50459 -10.1428 -171.356 -766.397 65.1963 0 0 0 0.5 
213 1 1 4.3815 1.44113 6.90582 68 1 0 -354.278 21.9043 10.571 -1917.93 2659.34 -564.026 0 0 0 0.5 
442 1 1 4.69102 4.68435 7.35556 4 0 -1 -26.9182 11.8999 3.06264 1532.15 -1115.8 1487.64 0 0 0 0.5 
237 1 1 1.98738 0.854207 7.9977 -23 0 0 -467.752 22.5425 -4.03722 1147.75 405.499 473.319 0 0 0 0.5 
21 1 1 4.80345 1.64315 7.77722 -65 0 0 -318.236 5.65343 -2.3157 1765.39 321.7 -1054.22 0 0 0 0.5 
944 2 2 4.88826 0.814056 7.37347 -43 0 0 -421.404 13.404 3.23815 784.776 -1419.41 631.985 0 0 0 0.5 
120 1 1 4.75357 0.00454956 6.06665 -60 0 -1 -529.484 18.3068 -7.77202 1852.78 1147.66 -1156.28 0 0 0 0.5 
283 1 1 4.89536 0.841542 6.38724 -69 0 0 -414.862 -2.56779 8.61522 886.125 -226.228 -1024.28 0 0 0 0.5 
9 1 1 2.45297 1.00156 9.79819 95 1 -1 -364.359 11.3238 -6.65613 -1428.45 1278.09 343.92 0 0 0 0.5 
1000 2 2 0.430374 0.174274 9.64994 -45 0 -1 -491.173 35.6609 7.92817 -1439.88 1790.07 1435.18 0 0 0 0.5 
42 1 1 2.21244 2.32133 8.85015 -44 0 0 -232.263 -23.5478 -10.7945 -284.518 292.373 -2031.15 0 0 0 0.5 
786 2 2 3.77106 0.0963941 9.37391 -54 0 1 -465.511 5.58844 3.83439 -135.237 186.298 -256.044 0 0 0 0.5 
69 1 1 0.514854 1.87811 8.22506 -30 0 0 -291.789 2.6621 8.82191 2444.77 565.519 365.045 0 0 0 0.5 
771 2 2 1.79672 1.00544 9.04845 -45 0 -1 -323.366 8.35823 -20.3634 -2130 -650.239 -3241.9 0 0 0 0.5 
492 1 1 3.0786 1.61827 8.77367 -81 0 0 -349.32 -8.13932 1.3068 -297.09 -53.951 39.3945 0 0 0 0.5 
935 2 2 2.0605 3.20853 9.10269 -16 0 0 -174.149 4.44473 -8.73528 -904.858 -214.32 -507.002 0 0 0 0.5 
569 2 2 3.95409 0.763582 8.78334 109 1 -1 -421.621 0.673159 -14.4242 -3972.2 132.867 -625.489 0 0 0 0.5 
688 2 2 3.18208 4.70316 9.20752 8 0 0 -17.1128 21.5938 2.15196 -363.893 643.381 1429.91 0 0 0 0.5 
339 1 1 1.86887 2.50183 9.65376 -19 0 0 -214.802 -11.1342 -15.0345 -3391.74 1220.43 -670.357 0 0 0 0.5 
865 2 2 1.9739 2.8774 8.08515 -30 0 -1 -188.978 3.12109 -30.5521 391.765 -2046.16 81.6106 0 0 0 0.5 
227 1 1 1.28801 0.321803 8.65338 -38 0 0 -463.868 18.9147 2.15928 1700 3225.25 1201.64 0 0 0 0.5 
446 1 1 1.31997 3.20366 8.50066 -17 0 0 -184.367 16.1728 3.53315 1663.72 -2267.1 1047.44 0 0 0 0.5 
800 2 2 4.67237 1.67911 9.33695 99 1 -1 -319.425 6.87477 -22.0552 62.4088 -58.8211 -124.779 0 0 0 0.5 
551 2 2 2.23877 3.97293 8.73988 1 0 0 -85.5639 16.0617 8.74434 567.927 1085.48 144.558 0 0 0 0.5 
402 1 1 3.3869 0.219817 8.19928 -76 0 0 -495.415 7.10854 14.5789 1017.58 499.777 222.757 0 0 0 0.5 
819 2 2 3.92261 2.46451 9.34512 -24 0 0 -237.008 0.279147 2.43832 348.251 -447.945 -425.311 0 0 0 0.5 
406 1 1 0.583575 2.93727 8.77931 -34 0 0 -196.395 -11.0531 23.0551 -1081.23 2.15053 -1118.96 0 0 0 0.5 
281 1 1 2.45352 4.89138 9.4826 24 0 -1 -17.9597 16.2886 9.66434 -2763.69 1664.02 -2037.72 0 0 0 0.5 
776 2 2 3.72589 1.00504 9.60485 -43 0 0 -371.95 6.96458 13.3875 -1916.21 1175.65 -801.26 0 0 0 0.5 
4 1 1 2.47725 2.20102 9.99983 -74 0 -1 -264.156 -5.51122 -0.0574038 673.215 -187.577 -855.964 0 0 0 0.5 
431 1 1 0.491537 1.81484 9.16901 -36 0 -1 -283.089 -7.68408 -10.6058 581.029 -861.159 684.845 0 0 0 0.5 
467 1 1 0.94592 2.9093 9.66621 113 1 0 -147.704 -17.2721 -9.0139 1240.91 -836.811 515.434 0 0 0 0.5 
719 2 2 2.02737 0.356828 9.23064 69 1 0 -455.187 -21.5365 18.4785 -48.7902 -1397.89 1921.81 0 0 0 0.5 
61 1 1 1.4349 1.721 9.32834 -73 0 0 -287.93 6.4862 -0.195599 -157.473 1866.99 870.189 0 0 0 0.5 
343 1 1 4.44741 4.02634 8.04075 -10 0 0 -112.255 0.307717 -12.4022 100.843 707.39 -697.001 0 0 0 0.5 
312 1 1 3.72191 4.07882 9.09465 -3 0 0 -71.972 -1.22245 8.73629 1086.1 -823.004 -1899.99 0 0 0 0.5 
571 2 2 4.42841 4.96662 9.95848 8 0 0 15.4696 -15.3194 6.233 -571.132 -350.7 73.3576 0 0 0 0.5 
766 2 2 3.09513 2.50849 8.99389 -28 0 0 -234.733 6.14166 -7.11096 61.1719 -99.1365 -659.495 0 0 0 0.5 
263 1 1 4.7787 3.32985 8.62111 -15 0 0 -135.582 -2.80226 -0.375471 -2871.71 2058.74 358.405 0 0 0 0.5 
775 2 2 2.63719 0.524761 8.56097 -59 0 -1 -471.423 32.2274 16.3372 -538.087 130.819 543.812 0 0 0 0.5 
3 1 1 2.63249 4.79567 8.39157 43 0 0 -14.6244 5.71557 0.00437414 131.968 -1678.83 1808.71 0 0 0 0.5 
310 1 1 0.27352 4.87183 9.23684 -10 0 0 -13.7285 16.298 -13.1475 550.192 2998.69 582.955 0 0 0 0.5 
430 1 1 0.412807 4.22435 8.78861 -17 0 0 -73.9905 -4.56065 7.22601 -946.046 -191.782 -930.747 0 0 0 0.5 
415 1 1 0.734291 3.84097 8.07013 0 0 -1 -108.19 -1.96419 4.09554 -2214.87 1275.35 -2176.93 0 0 0 0.5 
839 2 2 2.86245 3.87905 9.49635 -29 0 0 -93.6609 5.69791 9.0797 -75.9085 2048.47 -1087.48 0 0 0 0.5 
291 1 1 2.78109 0.215603 9.54124 -35 0 0 -445.597 9.05876 22.28 1946.87 -2422.77 -817.391 0 0 0 0.5 
92 1 1 4.73959 4.94797 8.78776 6 0 0 36.5799 -23.3749 -16.3562 -2685.72 4102.98 1421.63 0 0 0 0.5 
826 2 2 2.70476 3.04821 9.6239 89 1 -1 -199.498 3.26543 22.6861 2261.12 -1358.51 553.501 0 0 0 0.5 
384 1 1 1.10074 3.85137 9.21485 -32 0 0 -89.9808 6.2251 30.0405 967.72 -228.15 1076.2 0 0 0 0.5 
216 1 1 3.93308 1.49685 8.59103 -46 0 0 -326.683 33.338 -1.1278 385.57 1127.77 287.84 0 0 0 0.5 
284 1 1 4.4496 2.47394 8.57664 -68 0 0 -231.009 -15.6428 24.2773 -317.97 843.035 -1780.36 0 0 0 0.5 
877 2 2 4.56534 0.452923 8.78099 93 1 0 -434.269 9.39429 -10.4298 3405.53 -1095.18 -396.319 0 0 0 0.5 
739 2 2 3.54233 4.74107 8.40872 4 0 0 -22.7562 23.0737 -7.50857 1908.2 -496.403 -226.405 0 0 0 0.5 
822 2 2 3.7063 3.61648 9.80356 -10 0 0 -116.721 -24.2009 -7.28032 1482.44 -1566.48 1584.75 0 0 0 0.5 
733 2 2 4.82949 7.81148 0.846326 81 0 0 307.402 -13.005 -6.32522 2107.46 -2319.75 1751.11 0 0 0 0.5 
874 2 2 0.0222886 8.0228 1.35027 34 0 0 262.911 2.1162 27.6161 -956.283 3666.9 -2295.62 0 0 0 0.5 
398 1 1 1.17412 7.12748 1.86495 23 0 0 187.557 7.31436 -9.49457 931.627 -946.2 2417.69 0 0 0 0.5 
799 2 2 0.881673 9.33195 1.76771 76 0 0 402.378 25.3706 2.46676 2549.55 -785.524 -2338.1 0 0 0 0.5 
811 2 2 3.87019 5.85634 0.978947 0 0 1 63.06 17.9923 -1.09564 469.859 447.471 -933.621 0 0 0 0.5 
194 1 1 3.2588 8.45481 1.46845 -105 -1 0 325.91 -5.27698 -18.9825 2330.36 -3627.28 -1160.35 0 0 0 0.5 
400 1 1 0.0548882 8.82837 0.937833 -43 -1 0 319.976 14.1574 -20.7544 -2299.56 -2209.63 -46.5823 0 0 0 0.5 
604 2 2 -0.010425 8.87954 1.74179 28 0 1 400.594 4.66683 20.6184 1942.88 -166.763 84.5306 0 0 0 0.5 
6 1 1 2.75113 5.37206 1.99221 -8 0 0 46.8353 8.99895 8.49339 701.987 1507.08 1114.51 0 0 0 0.5 
906 2 2 2.91714 8.04244 0.081568 22 0 0 243.705 8.73729 8.25409 1692.58 -931.114 467.889 0 0 0 0.5 
578 2 2 3.74773 7.49635 1.10042 34 0 0 280.96 -13.8782 18.1764 -1183.04 2660.25 1298.4 0 0 0 0.5 
899 2 2 1.02336 9.38067 0.427416 -49 -1 0 450.916 25.2058 13.2063 -300.684 -1166.59 -727.573 0 0 0 0.5 
904 2 2 0.777197 8.58807 1.12568 21 0 0 291.353 21.9277 13.6723 1811.92 -1792.76 980.342 0 0 0 0.5 
995 2 2 4.41298 9.17817 1.41153 -44 -1 1 465.761 -2.50117 6.28561 -436.843 2716.49 -739.412 0 0 0 0.5 
390 1 1 2.87349 8.73082 0.515947 23 0 0 406.545 8.59274 36.6706 251.708 1233.84 1205.59 0 0 0 0.5 
856 2 2 0.118196 9.45641 0.376154 -67 -1 1 437.172 22.7903 -17.1225 1216.34 1522.74 -201.743 0 0 0 0.5 
252 1 1 4.34881 8.93133 0.439656 76 0 1 415.353 8.87282 -17.7679 1349.57 1214.87 -1122.66 0 0 0 0.5 
382 1 1 0.954852 8.48984 0.159031 -47 -1 0 399.069 -11.2681 27.5687 18.8957 -305.795 561.741 0 0 0 0.5 
940 2 2 2.11006 5.6256 1.59492 22 0 0 54.1527 -1.77273 -8.95984 155.447 -267.417 704.894 0 0 0 0.5 
976 2 2 4.71331 7.1715 1.51301 35 0 0 213.327 -1.81231 -9.8181 -2628.56 -1639.25 -316.093 0 0 0 0.5 
97 1 1 3.97731 6.17412 0.0444139 0 0 1 73.5325 21.1366 -1.71486 -264.153 -1134.76 -1017.32 0 0 0 0.5 
622 2 2 2.8738 6.71364 1.35309 8 0 0 135.167 25.1598 0.707704 2005.64 -158.245 1263.03 0 0 0 0.5 
685 2 2 2.96595 5.82213 1.12204 18 0 1 63.2373 -0.119083 6.22712 -610.98 653.975 214.866 0 0 0 0.5 
457 1 1 1.15816 6.16054 1.88538 3 0 0 119.309 -4.1184 3.75242 1026.84 730.053 -3053.52 0 0 0 0.5 
885 2 2 1.5716 5.90363 1.07295 9 0 0 77.5056 -7.69384 -16.5982 -1147.46 -562.98 -2216.72 0 0 0 0.5 
575 2 2 0.487586 6.829 0.65964 63 0 0 171.039 -2.41518 -2.18481 -345.628 247.169 -405.32 0 0 0 0.5 
452 1 1 4.41588 6.32068 1.64246 12 0 0 104.899 0.0103135 1.39129 -307.839 -468.968 -727.517 0 0 0 0.5 
593 2 2 3.21112 6.90391 0.383468 15 0 1 168.795 5.32198 11.8268 -143.057 -6.17431 308.164 0 0 0 0.5 
633 2 2 3.20487 9.7585 0.13628 -58 -1 1 545.853 -12.0104 12.3034 179.476 -600.34 312.817 0 0 0 0.5 
292 1 1 4.07341 6.76401 0.742982 -122 -1 0 179.978 -5.23534 -0.641441 627.697 -1738.44 -364.22 0 0 0 0.5 
63 1 1 1.96535 7.45963 1.42036 34 0 0 181.523 19.4744 -12.5781 -303.988 485.333 785.621 0 0 0 0.5 
66 1 1 0.549049 5.13678 0.420445 -13 0 1 10.2863 -8.81128 -4.48972 -179.424 -409.21 530.444 0 0 0 0.5 
649 2 2 0.287639 7.63768 0.56173 -3 0 1 255.399 12.3537 -16.0764 -894.746 2218.45 -72.656 0 0 0 0.5 
984 2 2 4.33399 8.21208 0.692958 59 0 1 349.574 -24.6771 -22.446 -3990.47 2634.49 -761.738 0 0 0 0.5 
470 1 1 1.33835 6.78161 1.04209 35 0 0 172.176 8.32322 1.93036 109.417 933.906 -1007.93 0 0 0 0.5 
632 2 2 2.25512 5.95317 0.410902 17 0 0 118.361 -0.922894 10.3855 133.64 -139.275 181.203 0 0 0 0.5 
747 2 2 1.95936 9.21662 0.689063 -80 -1 1 448.259 3.75278 0.761816 1185.32 -3005.51 401.658 0 0 0 0.5 
994 2 2 0.52085 7.42927 1.44135 25 0 0 208.076 -5.45538 -4.94094 436.166 -1926.59 -288.484 0 0 0 0.5 
136 1 1 0.214901 5.36244 1.89661 -15 0 0 32.2471 -1.10321 -8.40729 754.149 -1667.67 -138.132 0 0 0 0.5 
117 1 1 2.65265 9.147 1.71298 -42 -1 0 464.099 -3.57484 15.4079 -4322.93 1898.5 675.515 0 0 0 0.5 
817 2 2 2.297 6.85387 0.780325 5 0 0 160.914 4.27808 0.404493 -649.923 -152.444 -1882.48 0 0 0 0.5 
407 1 1 0.527394 5.97218 0.624816 21 0 0 77.7689 7.43011 -0.889459 85.2133 -1572.69 56.7406 0 0 0 0.5 
202 1 1 2.15856 8.2866 1.77714 46 0 0 302.091 8.60679 -4.77427 1130.83 3304.55 -605.15 0 0 0 0.5 
175 1 1 4.17945 5.37362 1.63836 14 0 0 14.8528 -4.43561 -2.42458 -665.988 895.954 600.261 0 0 0 0.5 
114 1 1 4.52564 8.41512 1.53988 -108 -1 0 326.974 2.98602 3.04536 453.462 -3709.91 243.701 0 0 0 0.5 