ITEM: TIMESTEP
46500
ITEM: NUMBER OF ATOMS
1000
ITEM: BOX BOUNDS xy xz yz pp pp pp
0 10 0
0 10 0
-0 10 0
ITEM: ATOMS id type type x y z ix iy iz vx vy vz fx fy fz omegax omegay omegaz radius 
868 2 2 2.42863 1.37611 0.141574 -112 0 2 -374.758 4.84123 -9.01917 -84.1925 -109.679 298.967 0 0 0 0.5 
952 2 2 0.959598 1.42812 1.60531 -22 0 0 -345.745 17.0327 23.9457 1401.75 -470.466 521.499 0 0 0 0.5 
909 2 2 2.25375 1.05904 1.64198 -126 0 1 -404.519 15.5623 -12.4585 513.992 -1127.88 2368.88 0 0 0 0.5 
383 1 1 1.82426 3.73609 0.390075 -93 0 1 -133.701 19.4039 -1.15042 2376.58 -1900.53 1187.72 0 0 0 0.5 
833 2 2 3.04897 3.3074 1.88943 -37 0 0 -173.868 -7.68164 26.4233 2834.93 -532.641 -1120.57 0 0 0 0.5 
761 2 2 0.597033 0.625769 0.234708 -173 0 1 -455.394 13.7007 7.12146 395.177 -1632.4 2677.44 0 0 0 0.5 
309 1 1 4.13909 1.40891 1.98649 122 1 0 -304.05 -8.7441 -44.3779 -405.731 1664.8 1804.35 0 0 0 0.5 
894 2 2 1.72373 3.11506 1.51332 10 0 0 -145.672 -21.4034 -17.5628 210.531 180.132 -58.6453 0 0 0 0.5 
189 1 1 1.8893 1.69295 0.977966 241 1 0 -328.481 -4.47196 15.0917 -599.231 1983.19 -2067.18 0 0 0 0.5 
307 1 1 0.620119 2.75847 0.860314 270 1 -1 -249.559 -8.22647 3.21673 3911.39 2208.83 -1063.91 0 0 0 0.5 
56 1 1 1.75853 2.94252 0.308035 -64 0 0 -272.562 1.71284 15.1801 -117.22 -736.96 -187.228 0 0 0 0.5 
913 2 2 1.20725 0.883534 0.952211 -42 0 0 -390.159 3.22497 -15.7904 -1548.57 -1945.33 1831.32 0 0 0 0.5 
372 1 1 1.47237 1.26358 0.0959382 -170 0 1 -371.817 -8.99231 5.11214 1007.99 113.472 320.417 0 0 0 0.5 
197 1 1 0.901258 0.20567 1.585 153 1 0 -455.754 -3.24702 9.03662 3592.57 161.17 -1116.99 0 0 0 0.5 
263 1 1 3.06638 0.484391 0.970525 -119 0 1 -422.497 -12.8185 -13.7805 22.3097 -943.643 -806.513 0 0 0 0.5 
735 2 2 2.01753 4.22549 1.24024 50 0 0 -108.223 24.9492 -11.7305 4831.16 381.062 92.3774 0 0 0 0.5 
877 2 2 4.36118 1.44449 0.506325 250 1 1 -376.798 0.065555 -17.2664 613.756 1139.77 -548.173 0 0 0 0.5 
958 2 2 2.20333 0.739488 0.793488 233 1 2 -400.772 -16.9631 -19.4505 -3417.41 1768.99 1941.27 0 0 0 0.5 
980 2 2 2.44529 3.73243 1.31232 213 1 2 -132.037 -8.82809 17.0889 517.232 -1659.13 -1958.12 0 0 0 0.5 
198 1 1 2.28854 4.58101 0.447778 -12 0 1 -54.6786 3.39451 -17.5702 -910.23 -156.927 1467.61 0 0 0 0.5 
483 1 1 0.0885047 1.86772 0.790066 210 1 0 -311.129 -14.6738 19.9226 -636.865 -766.194 764.655 0 0 0 0.5 
468 1 1 3.19863 4.45602 0.554209 5 0 1 -64.6817 11.2538 14.9979 -1900 4858.64 1169.1 0 0 0 0.5 
526 2 2 1.85429 1.80259 1.9791 -150 0 1 -333.675 28.8361 -14.6819 -770.39 1404.27 1191.12 0 0 0 0.5 
794 2 2 0.120669 0.39845 1.35793 -19 0 0 -420.41 6.80985 -0.857537 -1247.44 1155.91 140.175 0 0 0 0.5 
140 1 1 0.932459 1.86752 0.778954 151 1 1 -316.297 -4.406 11.1156 2098.73 -1341.31 -421.235 0 0 0 0.5 
395 1 1 0.119302 1.41204 1.58469 158 1 0 -349.092 -31.7198 13.2805 -763.116 -1335.98 727.682 0 0 0 0.5 
410 1 1 3.3007 2.74663 0.00423841 -73 0 0 -246.695 -5.13078 8.00706 818.474 -1401.2 -1333.84 0 0 0 0.5 
80 1 1 1.0706 3.57891 0.866343 -65 0 1 -142.024 -11.8821 3.08753 -1095.31 -1797 176.811 0 0 0 0.5 
842 2 2 3.86503 2.55697 1.34912 -149 0 1 -225.435 -18.5914 -7.94156 -2546.54 1507.45 -519.819 0 0 0 0.5 
895 2 2 4.45438 0.507492 1.75553 -110 0 0 -424.402 -11.8934 7.17001 -38.9352 -2328.41 -260.956 0 0 0 0.5 
108 1 1 3.324 1.32131 0.0294463 -197 0 1 -362.439 0.930054 11.546 440.52 -26.9612 -55.1663 0 0 0 0.5 
665 2 2 4.6376 2.08253 1.59745 181 1 1 -292.31 13.2829 -15.7291 2879.95 -1486.19 788.002 0 0 0 0.5 
13 1 1 0.176753 4.89468 0.329008 25 0 0 20.3242 -4.18522 16.2099 -812.269 1923.3 1274.99 0 0 0 0.5 
216 1 1 0.678355 4.83271 1.46173 -132 0 1 3.69214 -13.1223 16.4399 808.142 -619.233 1731.31 0 0 0 0.5 
922 2 2 1.13369 4.48652 0.899259 22 0 1 -33.1709 -2.82002 -10.1802 -3078.78 138.046 -1476.74 0 0 0 0.5 
426 1 1 2.73893 2.28604 0.650556 166 1 -1 -316.604 5.2245 -2.02106 679.287 605.284 -639.549 0 0 0 0.5 
376 1 1 2.82057 0.460675 1.83697 -222 0 0 -445.789 11.9287 -15.3472 562.158 -672.34 938.745 0 0 0 0.5 
480 1 1 3.10986 1.76999 1.62355 -134 0 2 -329.452 -6.40561 10.7082 475.089 -723.093 1070.01 0 0 0 0.5 
921 2 2 3.59841 3.7886 0.415612 -82 0 1 -190.505 24.3435 1.86188 912.54 -3356.1 -182.68 0 0 0 0.5 
787 2 2 2.81205 3.30926 0.648753 -85 0 1 -204.828 -11.2305 -34.333 -1422.2 1713.61 466.973 0 0 0 0.5 
440 1 1 3.47589 1.40451 1.0568 -36 0 0 -344.632 5.02235 -30.6225 -1201.21 3014.9 -156.943 0 0 0 0.5 
520 2 2 3.20457 4.85178 1.65217 67 0 1 -27.7897 -9.7957 12.584 254.174 -174.448 191.982 0 0 0 0.5 
78 1 1 1.41741 4.10988 1.67936 -38 0 1 -90.4354 -14.8266 23.7795 96.0679 1544.39 784.25 0 0 0 0.5 
547 2 2 4.18011 3.5015 0.787115 51 0 0 -198.687 22.268 -5.32777 1414.23 -148.068 -324.931 0 0 0 0.5 
97 1 1 3.85826 0.649823 0.879023 60 1 0 -425.649 18.3515 0.841594 2753.23 -1568.2 -991.112 0 0 0 0.5 
644 2 2 3.4782 3.18996 1.19845 381 1 1 -210.248 15.9286 -15.28 -37.3977 165.836 242.114 0 0 0 0.5 
554 2 2 1.44191 4.50762 0.11901 -276 -1 0 -51.1836 -6.54552 -14.2741 -1133.53 -754.476 -1027.33 0 0 0 0.5 
266 1 1 0.147826 3.58375 0.161054 -305 -1 0 -157.43 -10.2714 12.9085 571.662 -1315.31 -592.267 0 0 0 0.5 
389 1 1 2.69952 0.388249 0.0749482 -111 0 0 -469.223 8.36731 -16.8054 1033.58 -209.203 -1658.59 0 0 0 0.5 
91 1 1 0.096805 3.08217 1.54498 -24 0 0 -170.832 5.18188 16.241 2309.8 -1850.29 861.358 0 0 0 0.5 
888 2 2 1.84484 4.96348 1.78194 447 1 1 -11.5828 -9.30767 6.49749 -1105.68 2008.98 895.372 0 0 0 0.5 
347 1 1 4.2925 3.6741 1.84641 -27 0 -1 -129.768 10.3165 -19.4588 -580.999 2478.46 1234.89 0 0 0 0.5 
593 2 2 2.56523 2.39116 1.57759 0 0 1 -291.001 26.2759 14.0564 -1144.17 1323.13 -280.407 0 0 0 0.5 
163 1 1 4.77284 2.20896 0.138654 228 1 1 -257.44 -17.5985 -16.7112 -1434.84 -511.102 -1386.91 0 0 0 0.5 
568 2 2 4.7784 3.23173 1.19456 -89 0 0 -219.149 5.52406 15.7554 1809.07 -2261.07 -1334.63 0 0 0 0.5 
651 2 2 4.79545 4.93468 0.986441 30 0 0 7.72479 -24.574 -1.32055 -1987.97 -417.043 -1327.71 0 0 0 0.5 
63 1 1 0.812455 0.139205 2.89195 124 1 0 -424.869 -19.2263 -0.930878 -292.181 75.4628 287.454 0 0 0 0.5 
598 2 2 4.33215 2.3146 3.72933 -98 0 1 -255.75 -9.77146 10.3173 6.35643 45.4714 -37.7066 0 0 0 0.5 
927 2 2 4.03905 3.57638 3.69213 4 0 0 -130.539 -6.68743 19.3463 -1206.46 1546.07 906.695 0 0 0 0.5 
896 2 2 2.50947 3.28021 2.63635 -22 0 -1 -85.8505 -37.8565 16.6803 -3369.6 -227.751 1684.17 0 0 0 0.5 
243 1 1 2.07448 3.89455 3.46053 -58 0 0 -85.0931 4.17141 10.7616 122.145 19.3761 64.1538 0 0 0 0.5 
502 2 2 2.2487 4.01954 2.17677 -154 0 1 -71.5926 -8.29957 4.51975 -1109.75 1185.94 576.709 0 0 0 0.5 
327 1 1 0.722907 2.89055 3.24952 -67 0 0 -203.506 -5.93393 -5.23466 160.813 184.998 -186.722 0 0 0 0.5 
428 1 1 2.24039 2.78375 3.74098 -102 0 1 -209.455 -5.46015 -9.6899 -896.911 -232.33 167.205 0 0 0 0.5 
293 1 1 3.38603 2.07492 3.34009 -156 0 1 -248.998 -22.8365 19.1682 337.434 -1397.71 934.151 0 0 0 0.5 
24 1 1 2.08475 1.70879 3.45505 228 1 -1 -297.971 2.57486 -9.86357 1075.59 -546.067 -551.383 0 0 0 0.5 
247 1 1 0.285602 1.64481 2.49123 -188 0 0 -279.066 -12.68 13.3106 -1468.4 -2640.68 -1241.62 0 0 0 0.5 
930 2 2 0.745884 2.58901 2.36246 -66 0 0 -186.037 -11.7204 -4.9213 -115.67 -176.608 -482.177 0 0 0 0.5 
413 1 1 1.62631 2.58723 2.93553 -64 0 0 -188.088 -13.2123 1.43027 80.9214 -161.729 -340.41 0 0 0 0.5 
566 2 2 4.37058 3.11179 3.18604 312 1 1 -187.76 -11.0458 -0.0660009 2108.01 -2976.99 -660.208 0 0 0 0.5 
708 2 2 1.9187 0.164285 2.02958 -176 0 1 -458.801 -14.3017 -6.92155 876.737 134.937 276.401 0 0 0 0.5 
548 2 2 1.19247 1.74322 3.51165 -160 0 1 -288.725 -7.84948 41.0067 143.775 -151.178 -1561.01 0 0 0 0.5 
161 1 1 1.42865 2.98228 3.76702 -8 0 1 -200.29 -2.11629 -2.11007 -876.786 1537.69 2034.85 0 0 0 0.5 
656 2 2 0.285897 1.85838 3.42193 -122 0 1 -284.052 -6.1393 8.80321 1130.33 -1925.33 -272.9 0 0 0 0.5 
490 1 1 0.404463 0.307607 3.82349 -248 0 0 -442.051 -10.1774 -5.59227 459.163 -606.812 1000.79 0 0 0 0.5 
406 1 1 3.66198 3.59397 2.80535 -70 0 1 -134.422 14.2912 3.12662 2139.48 -730.761 -318.418 0 0 0 0.5 
844 2 2 2.25281 0.821118 3.22089 217 1 0 -367.628 -33.2105 -0.480993 -2128.67 1426.48 -312.723 0 0 0 0.5 
947 2 2 1.26395 1.57281 2.60848 -23 0 1 -328.047 -6.53407 12.924 2802.23 -43.1001 637.34 0 0 0 0.5 
416 1 1 2.44799 1.39716 2.5475 -118 0 0 -334.005 11.9628 12.5711 -720.458 -690.749 -1538.1 0 0 0 0.5 
185 1 1 0.0601728 0.762609 3.07307 -18 0 0 -412.514 7.96925 8.02183 351.908 154.294 -1144.1 0 0 0 0.5 
823 2 2 4.14537 0.567084 3.40333 263 1 -1 -458.343 7.95666 17.1529 -2581.87 1182.15 922.782 0 0 0 0.5 
588 2 2 0.705921 0.769621 2.21138 104 1 1 -409.059 9.21477 13.0512 -299.857 1155.23 675.67 0 0 0 0.5 
88 1 1 3.11159 4.47617 3.67054 61 0 0 -45.1695 -3.21712 -2.84674 -29.0261 -217.596 -17.3713 0 0 0 0.5 
810 2 2 2.32781 4.92017 2.45888 31 0 1 -8.7164 6.57277 26.2533 -1812.42 -101.775 -1242.22 0 0 0 0.5 
222 1 1 3.80634 4.81114 3.0758 311 1 0 -54.8137 -2.80648 -4.02624 1083.65 -2372.72 -1756.81 0 0 0 0.5 
712 2 2 3.18303 0.2355 3.48227 144 1 0 -461.248 -9.11767 -0.123688 -1341.95 460.197 -496.342 0 0 0 0.5 
228 1 1 1.25681 3.76485 3.03106 -132 0 1 -87.8149 -22.7027 1.86214 -155.595 183.027 47.1124 0 0 0 0.5 
777 2 2 3.19222 0.184775 2.583 -211 0 -1 -475.378 14.6569 -1.24902 -122.608 -106.43 50.338 0 0 0 0.5 
828 2 2 3.97826 1.76094 2.85258 -76 0 1 -252.304 -16.6349 10.9982 365.485 -521.175 -2065.17 0 0 0 0.5 
138 1 1 4.45025 2.86723 2.0705 -58 0 1 -242.356 13.9636 16.5182 1684.94 -2138.17 -1028.56 0 0 0 0.5 
196 1 1 4.62877 4.66661 3.18595 294 1 0 -62.2276 21.8043 16.6102 2575.99 2645.78 -113.896 0 0 0 0.5 
79 1 1 3.58966 2.20682 2.20746 -132 0 1 -251.695 -16.563 -11.704 -1111.66 366.047 -417.11 0 0 0 0.5 
153 1 1 1.12195 4.58084 3.47964 16 0 0 -18.7243 9.00652 -2.22069 1381.3 -808.993 198.616 0 0 0 0.5 
472 1 1 0.282645 4.51608 3.81761 13 0 1 -27.6561 -29.2491 -10.664 -1799.89 1064.61 -904.032 0 0 0 0.5 
993 2 2 4.03026 4.93824 2.12413 34 0 1 -9.19929 3.35752 -13.0899 269.626 -816.577 220.921 0 0 0 0.5 
905 2 2 2.96009 2.63309 3.36025 -81 0 0 -217.459 11.4709 5.99313 566.179 470.798 -1156.52 0 0 0 0.5 
333 1 1 4.12811 0.886719 2.66192 -51 0 0 -363.353 -22.5761 -20.6405 186.813 -853.585 -1048.73 0 0 0 0.5 
631 2 2 3.05823 4.27417 2.63844 37 0 0 -78.159 -4.18916 2.64902 -1513.05 1293.61 1349.35 0 0 0 0.5 
699 2 2 3.72217 4.14627 2.18266 23 0 -1 -98.6045 9.58504 -21.3979 -401.654 1830 -463.259 0 0 0 0.5 
850 2 2 0.741376 3.7516 2.11048 88 0 1 -87.9664 -35.0226 17.8896 -987.18 71.312 637.533 0 0 0 0.5 
447 1 1 0.418313 4.62796 2.3306 55 0 1 -58.9345 -1.94876 7.28834 54.8185 -720.272 -61.7905 0 0 0 0.5 
364 1 1 3.0959 3.56896 3.37759 -70 0 0 -132.349 -11.718 4.95288 40.3091 1442.04 2685.76 0 0 0 0.5 
919 2 2 3.65243 2.8599 2.62363 -218 -1 0 -204.724 -11.5133 9.01579 -1787.54 -134.059 1521.06 0 0 0 0.5 
994 2 2 4.02431 4.45807 3.93059 83 0 0 -33.1296 12.775 -2.65226 -1109.38 -196.9 1724.49 0 0 0 0.5 
551 2 2 2.9749 1.01128 3.36741 59 1 0 -385.986 34.1287 -3.92181 2170.31 1290.83 377.486 0 0 0 0.5 
619 2 2 4.88937 2.01212 3.01311 -101 0 1 -266.504 -4.02559 -11.5303 -982.34 704.859 1107.22 0 0 0 0.5 
399 1 1 4.93575 3.86569 3.90104 -134 0 -1 -114.136 4.08107 17.0834 -2324.75 1605.79 -1529.49 0 0 0 0.5 
495 1 1 1.38252 1.31775 5.0786 -97 0 1 -284.581 -10.7763 18.2114 -2434.94 4061.99 -1155.21 0 0 0 0.5 
10 1 1 1.52573 0.90431 4.21666 -185 0 1 -341.469 -18.5829 -18.132 -162.505 469.151 978.078 0 0 0 0.5 
445 1 1 1.61033 3.68904 4.36338 -50 0 0 -101.487 9.8724 0.0767271 804.171 356.187 -1220.84 0 0 0 0.5 
763 2 2 1.86466 0.476678 5.11148 132 1 1 -442.75 5.5141 3.87402 3128.67 -3025.55 -214.272 0 0 0 0.5 
300 1 1 3.94096 0.270448 5.71533 153 1 -1 -461.874 -3.14067 19.2161 -328.796 544.17 981.663 0 0 0 0.5 
961 2 2 2.37142 1.15367 4.70299 -30 0 0 -336.631 -12.7234 -3.09948 -880.421 -2370.22 656.091 0 0 0 0.5 
484 1 1 1.64937 2.9876 5.55208 25 0 0 -196.356 -11.9037 -9.00852 -419.201 39.9106 525.348 0 0 0 0.5 
608 2 2 0.958856 2.71428 4.98442 -55 0 0 -198.137 -15.9511 -4.04351 -2476.14 895.664 -720.87 0 0 0 0.5 
272 1 1 4.12177 0.530802 4.62501 -222 0 -1 -434.029 24.3917 -9.15264 417.65 1288.47 -124.114 0 0 0 0.5 
875 2 2 1.89598 3.08812 4.62482 -66 0 1 -185.435 -22.9841 7.28682 -1411.14 -2625.53 436.947 0 0 0 0.5 
923 2 2 0.564811 1.48889 5.94314 187 1 0 -324.907 -17.9058 9.03273 1381.61 -1354.7 -1040.01 0 0 0 0.5 
575 2 2 0.505517 2.61167 4.17627 206 1 -1 -202.859 -8.28202 -1.15629 -405.889 1241.05 -759.216 0 0 0 0.5 
208 1 1 3.24238 0.565881 4.50373 -52 0 1 -435.08 -13.2244 11.3748 -2059.61 976.773 -1788.16 0 0 0 0.5 
614 2 2 3.34356 1.43622 4.29342 181 1 0 -343.348 6.27286 22.6396 -2405.33 -914.225 1670.97 0 0 0 0.5 
190 1 1 1.56221 3.66425 5.9084 -53 0 1 -137.466 -1.61636 -5.27655 -1405.42 651.382 -1050.66 0 0 0 0.5 
532 2 2 2.12866 3.92071 5.14218 55 0 0 -113.895 10.2781 14.7493 -113.587 2636.89 331.918 0 0 0 0.5 
200 1 1 1.72425 2.26969 5.15872 -149 0 0 -250.767 -21.4067 15.4684 -615.891 -924.223 1256.9 0 0 0 0.5 
142 1 1 0.75735 1.74529 4.37574 -107 0 -1 -280.529 -12.0081 22.5392 -238.062 -1339.86 1557.09 0 0 0 0.5 
570 2 2 3.67502 4.84685 5.36417 -309 -1 1 -22.5625 -17.5594 -5.90081 1442.79 -2720.59 207.866 0 0 0 0.5 
667 2 2 2.26875 1.96768 4.82844 -57 0 0 -278.74 5.96174 6.71233 2410 -948.28 -498.098 0 0 0 0.5 
211 1 1 2.53645 0.571412 5.57631 213 1 0 -424.887 7.97009 24.2995 -246.66 660.606 495.705 0 0 0 0.5 
616 2 2 0.24885 2.1099 5.40003 -57 0 0 -280.299 2.45133 -64.2443 401.145 -781.197 671.358 0 0 0 0.5 
785 2 2 3.61439 2.32318 4.669 336 1 1 -289.961 20.5371 -7.76326 -194.647 432.479 -730.865 0 0 0 0.5 
470 1 1 4.2775 1.73975 4.94667 142 1 -1 -305.14 11.4534 -2.69593 48.8428 357.596 -231.645 0 0 0 0.5 
821 2 2 2.68389 2.96022 4.50117 243 1 0 -200.424 0.863735 -20.0015 2981.95 228.105 779.384 0 0 0 0.5 
624 2 2 0.968925 3.91008 4.09913 8 0 -1 -102.581 -2.72563 -14.5499 1270.39 -1846.74 -17.8518 0 0 0 0.5 
673 2 2 2.73453 1.98891 4.10586 187 1 -1 -315.235 28.5058 -8.65507 227.882 1188.09 -1410.02 0 0 0 0.5 
835 2 2 3.15823 3.98993 4.76359 -61 0 1 -106.443 -0.960223 8.17829 1209.8 -1758.06 551.116 0 0 0 0.5 
988 2 2 0.154909 4.4116 5.48452 4 0 0 -34.5367 -17.727 -8.54415 -1048.43 1122.58 966.298 0 0 0 0.5 
5 1 1 1.00111 4.7488 5.30397 21 0 -1 -55.9094 7.1124 5.15862 -657.231 817.28 197.493 0 0 0 0.5 
658 2 2 4.12539 1.33012 4.01159 -85 0 0 -390.717 17.9774 2.43778 3435.32 -177.678 -1010.23 0 0 0 0.5 
492 1 1 3.0911 4.0002 5.74229 -157 0 0 -119.516 -0.462587 3.58805 -63.5564 -833.69 102.411 0 0 0 0.5 
989 2 2 4.68797 1.11325 5.28555 47 0 0 -345.671 -20.4879 12.4055 -340.025 -657.878 -297.554 0 0 0 0.5 
352 1 1 1.63654 4.49821 4.80263 -105 0 0 -64.7298 21.0346 -20.7625 2629.07 594.652 -167.506 0 0 0 0.5 
95 1 1 2.94128 2.54432 5.30963 -42 0 0 -277.447 0.633709 5.67593 1482.42 -2894.65 165.266 0 0 0 0.5 
791 2 2 2.61603 4.67862 5.50202 47 0 -1 -64.5795 24.0263 -10.1612 -518.248 -2353.95 839.699 0 0 0 0.5 
312 1 1 0.168778 3.87221 4.56495 0 0 1 -90.4372 -9.86864 9.95207 -491.413 270.098 -26.8382 0 0 0 0.5 
101 1 1 4.11598 3.84669 4.59309 -113 0 0 -112.037 0.404037 16.3488 -1653.87 3568.43 564.981 0 0 0 0.5 
803 2 2 4.53381 3.0635 4.46747 279 1 0 -217.003 12.1664 21.9344 -164.118 -1555.9 -272.757 0 0 0 0.5 
156 1 1 3.36658 0.689662 5.37883 85 1 0 -420.048 14.8768 -17.6459 -824.079 2034.3 1565.49 0 0 0 0.5 
332 1 1 1.33553 4.26731 5.88989 -138 0 0 -71.2966 12.6812 6.7206 977.146 1256.1 491.616 0 0 0 0.5 
206 1 1 0.810576 4.86838 4.41788 -48 0 1 -12.2913 -4.13796 -17.7873 -552.618 -419.358 -2070 0 0 0 0.5 
76 1 1 0.630935 3.40011 5.51536 111 0 1 -152.232 12.8684 -9.37513 -247.269 1092.66 -580.48 0 0 0 0.5 
951 2 2 2.54931 4.64942 4.46061 -54 0 0 -46.7514 -11.6163 -11.005 -1559.13 2481.65 -932.399 0 0 0 0.5 
510 2 2 2.55378 3.23921 5.34196 -69 0 -1 -191.334 10.1104 12.6749 222.114 -38.3985 382.143 0 0 0 0.5 
487 1 1 4.49822 3.93394 5.41852 -140 0 -1 -133.787 9.59664 30.4874 -521.662 254.189 947.066 0 0 0 0.5 
987 2 2 0.652207 2.92649 6.21226 238 1 0 -218.696 -1.71411 -6.91652 538.13 -2171.48 -1176.33 0 0 0 0.5 
607 2 2 1.71139 3.16133 7.38858 75 0 0 -171.011 -10.8793 -6.97709 -1308.41 -937.062 333.291 0 0 0 0.5 
938 2 2 2.08072 3.0803 6.2969 -3 0 -1 -219.368 9.40056 4.51952 1099.64 -1827.61 1179.69 0 0 0 0.5 
464 1 1 3.35645 3.22119 6.9501 13 0 0 -178.244 -4.9958 -7.86083 -366.752 1800.35 -354.786 0 0 0 0.5 
586 2 2 2.18318 4.48864 6.35173 312 1 0 -60.4748 14.1365 -10.1246 -197.121 1114.01 -1986.63 0 0 0 0.5 
929 2 2 1.30629 2.82532 6.60616 -28 0 1 -227.624 4.6718 9.82378 1179.58 -871.642 1256.57 0 0 0 0.5 
166 1 1 1.67244 0.381165 6.76877 93 1 -1 -524.263 10.3514 15.5978 -481.991 -945.98 -1444.56 0 0 0 0.5 
662 2 2 0.381303 0.538203 6.90297 -140 0 1 -493.168 10.9815 -9.39524 -57.7855 -302.219 -169.508 0 0 0 0.5 
992 2 2 2.58468 3.09345 7.45295 -143 0 0 -175.189 18.1912 -2.71461 346.538 1136.6 5.89156 0 0 0 0.5 
373 1 1 1.775 1.20606 7.20034 -175 0 -1 -324.498 -24.0944 25.336 800.865 -106.671 717.768 0 0 0 0.5 
199 1 1 4.28907 4.59667 7.17142 -237 0 -1 -39.3202 -0.88571 -10.0102 2120.24 -2024.59 -598.46 0 0 0 0.5 
740 2 2 1.31377 1.93894 6.89022 -97 0 0 -284.036 -18.3269 -1.31609 2071.64 -190.458 -1783.47 0 0 0 0.5 
897 2 2 1.77633 1.93211 7.95918 97 1 0 -320.469 5.01812 0.584042 1245.38 -2937.3 -636.498 0 0 0 0.5 
954 2 2 0.69294 0.197589 7.88048 232 1 -1 -532.482 -12.7183 -11.975 -416.574 -973.292 -552.818 0 0 0 0.5 
159 1 1 0.0805135 1.33377 7.4895 286 1 -1 -375.162 -10.2682 -13.8942 -2000.9 3065.31 -351.439 0 0 0 0.5 
237 1 1 0.763654 0.860139 7.6634 -147 0 0 -422.381 9.1269 -24.7948 3472.09 -1668.02 -18.1224 0 0 0 0.5 
241 1 1 0.898744 1.75458 7.79075 363 1 1 -346.584 6.01723 6.1632 12.0327 -2363.67 1402.14 0 0 0 0.5 
646 2 2 0.679385 2.26385 7.20467 -65 0 0 -252.509 -0.762615 -5.07746 602.823 -373.911 -937.832 0 0 0 0.5 
280 1 1 2.26128 0.163116 7.7114 -161 0 0 -530.496 7.21552 17.8 117.359 58.7138 131.74 0 0 0 0.5 
102 1 1 2.56947 1.59339 6.80799 -33 0 -1 -334.131 -7.11791 -0.261394 -182.319 846.772 233.952 0 0 0 0.5 
50 1 1 3.71664 3.66479 6.22019 37 0 0 -113.703 -16.5422 -12.5375 914.559 202.675 1263.89 0 0 0 0.5 
910 2 2 2.44587 4.29675 7.32691 -64 0 1 -75.4675 -10.7102 2.56444 -5558.4 2690.98 447.815 0 0 0 0.5 
415 1 1 -0.0293163 4.29384 6.62878 -7 0 -1 -48.6724 -9.87587 8.79107 -262.943 815.352 414.622 0 0 0 0.5 
460 1 1 3.83269 3.50682 7.91768 -29 0 0 -178.608 7.83246 -3.64739 910.736 -1705.73 653.375 0 0 0 0.5 
977 2 2 0.263598 2.56626 7.11972 180 1 -1 -244.009 14.3303 -22.6091 1186.28 -1312.37 744.528 0 0 0 0.5 
225 1 1 1.58125 0.995232 6.02639 -149 0 0 -403.731 7.41113 -14.725 19.4919 -131.263 158.692 0 0 0 0.5 
86 1 1 1.92037 3.7029 6.717 -41 0 1 -139.241 21.9659 9.30233 259.677 2662.86 1421.42 0 0 0 0.5 
2 1 1 3.85783 0.958106 7.66613 -72 0 0 -414.754 -4.90008 -4.65004 3491.4 -1029.94 1486.14 0 0 0 0.5 
796 2 2 1.86718 4.92236 7.97279 27 0 -1 17.2827 2.69061 -14.436 -388.494 -319.383 341.428 0 0 0 0.5 
650 2 2 4.90562 3.45486 6.72908 -54 0 0 -164.04 8.14458 -17.5464 0 0 0 0 0 0 0.5 
264 1 1 1.47944 4.01981 7.59575 -23 0 -1 -87.1735 11.9047 -12.6824 -625.42 886.786 176.121 0 0 0 0.5 
311 1 1 4.85288 3.66728 7.75265 -38 0 0 -180.196 12.9925 -16.1479 0 0 0 0 0 0 0.5 
661 2 2 3.44605 1.20816 6.11383 -92 0 -1 -327.31 -11.6144 27.9231 595.268 -1341.03 -386.877 0 0 0 0.5 
573 2 2 3.14159 0.955854 7.07187 -140 0 0 -347.172 -30.5525 7.67554 -2671.67 -343.64 -2327.16 0 0 0 0.5 
184 1 1 0.491656 3.90627 7.66476 56 0 0 -93.7201 1.09989 -19.4919 1247.52 -1536.8 -864.693 0 0 0 0.5 
298 1 1 3.66178 2.55564 7.79962 -161 0 -1 -244.034 -4.58296 10.0897 -443.711 968.163 273.366 0 0 0 0.5 
970 2 2 3.81509 4.56027 6.32254 212 0 -1 -72.1409 15.3165 -5.87473 1350.44 818.161 391.288 0 0 0 0.5 
606 2 2 2.88618 2.33193 7.20369 -155 0 -2 -237.232 -7.85798 -1.65029 502.38 -2116.82 309.015 0 0 0 0.5 
180 1 1 2.65991 2.59341 6.29792 -16 0 0 -256.001 12.4803 25.0411 1872.67 -292.045 -226.74 0 0 0 0.5 
338 1 1 2.97707 1.91911 6.0289 160 1 0 -311.007 1.81907 1.26366 312.717 -1485.35 -354.831 0 0 0 0.5 
485 1 1 0.334906 3.01811 7.7458 -127 0 1 -154.004 -6.59703 20.973 2737.09 -843.302 -92.9354 0 0 0 0.5 
613 2 2 3.9085 2.52356 6.93121 -63 0 0 -251.655 -0.303784 -7.77839 2298.28 -2787.86 -182.85 0 0 0 0.5 
67 1 1 0.741469 4.77613 6.24188 314 1 1 -42.6744 5.15183 28.0493 1649.96 -2448.52 2799.25 0 0 0 0.5 
592 2 2 2.82679 3.92626 6.70979 -42 0 0 -114.742 10.0761 -35.8892 477.118 -1693.65 -2144.51 0 0 0 0.5 
320 1 1 0.561547 4.73826 7.30197 42 0 0 -36.5592 10.4591 5.72301 836.391 -388.146 918.425 0 0 0 0.5 
746 2 2 4.22686 1.77347 6.45199 -65 0 -1 -275.618 -20.1175 -6.8491 52.5773 -123.877 -79.1418 0 0 0 0.5 
748 2 2 0.829718 3.93741 6.72187 271 1 -1 -62.2407 -16.0103 5.45538 1111.75 -462.455 121.161 0 0 0 0.5 
580 2 2 3.34039 4.04273 7.43547 244 1 -1 -142.485 20.3802 -36.7072 5754.57 -1320.69 309.002 0 0 0 0.5 
863 2 2 4.63532 2.4044 7.83281 -76 0 0 -251.495 0.59147 21.0796 549.036 -85.2941 18.7219 0 0 0 0.5 
204 1 1 3.0182 4.47208 7.99992 -144 0 1 -74.4437 41.9762 -1.49688 2160.15 -693.716 1070.52 0 0 0 0.5 
687 2 2 3.42908 2.72696 8.96113 207 1 0 -284.019 0.892854 -14.8984 -6.1264 193.505 -34.6815 0 0 0 0.5 
738 2 2 0.903632 1.4212 9.37865 252 1 0 -343.579 -11.3246 9.71851 -1532.29 1080.12 -2363.83 0 0 0 0.5 
193 1 1 1.05418 0.474221 9.43218 225 1 -1 -460.548 3.58309 4.22897 1207.05 -1949.42 716.139 0 0 0 0.5 
173 1 1 0.61653 2.63238 9.85397 222 1 0 -233.172 24.2774 9.91802 -1971.07 252.758 895.439 0 0 0 0.5 
321 1 1 2.60789 4.50849 9.64972 -22 0 -1 -47.3792 13.9237 -15.9145 1466.17 2393.73 701.498 0 0 0 0.5 
283 1 1 0.656325 0.290943 8.70412 -176 0 0 -452.105 -26.3283 1.53887 -1651.35 -1612.2 -418.082 0 0 0 0.5 
148 1 1 1.87409 3.52062 8.27248 -44 0 0 -117.144 -22.7915 -4.85805 -4815.45 2581 -1249.3 0 0 0 0.5 
147 1 1 0.463964 1.76104 9.96664 -139 0 -1 -331.909 -6.01031 19.03 -417.484 1919.96 -548.204 0 0 0 0.5 
881 2 2 2.78699 3.8045 9.59144 -15 0 -1 -173.851 -1.56194 27.6023 -761.169 -2652.62 1199.9 0 0 0 0.5 
537 2 2 1.81473 1.53821 9.1738 170 1 0 -364.323 1.55894 -6.6004 -41.3023 2214.45 1307.37 0 0 0 0.5 
645 2 2 2.26076 0.88464 8.66515 167 1 -1 -425.506 6.48769 8.90168 945.282 -797.714 168.962 0 0 0 0.5 
861 2 2 0.801399 1.15726 8.51426 -77 0 0 -397.628 -17.8618 -8.41353 -1136.49 -1704 1154.41 0 0 0 0.5 
577 2 2 0.57326 2.67707 8.69359 237 1 -1 -244.654 -6.35534 1.65774 216.059 -561.44 -1522.21 0 0 0 0.5 
98 1 1 0.976358 3.36757 9.12378 -63 0 -1 -147.271 -10.9505 3.14767 1166.49 -851.806 -401.23 0 0 0 0.5 
978 2 2 3.40132 3.60352 8.80402 22 0 -1 -200.204 31.215 1.29861 3168.47 -1752.76 1489.8 0 0 0 0.5 
39 1 1 3.40622 3.62954 9.7228 -115 0 -1 -164.199 12.948 -2.33893 2498.12 -2306.78 -533.489 0 0 0 0.5 
378 1 1 1.52468 1.00038 8.31947 -196 0 0 -407.234 -7.48293 -33.9617 843.017 -279.411 -1422.94 0 0 0 0.5 
132 1 1 1.3221 2.66516 8.08893 32 0 0 -238.869 10.0948 -10.9454 -1932.23 3038.55 249.757 0 0 0 0.5 
660 2 2 2.2876 2.47588 9.04329 -30 0 0 -312.44 14.5754 11.8376 298.844 2164.29 -1610.18 0 0 0 0.5 
926 2 2 1.35305 2.43465 8.9312 215 1 0 -291.345 6.06113 8.70883 1793.64 -1028.47 342.529 0 0 0 0.5 
388 1 1 4.66202 0.00710349 9.26499 -227 0 0 -513.974 14.1341 -16.8182 1136.81 174.202 -1156.89 0 0 0 0.5 
726 2 2 2.77813 1.94432 9.42892 181 1 -1 -344.529 -0.627968 0.659083 1623.14 -1560.69 1069.31 0 0 0 0.5 
125 1 1 0.467769 1.82423 8.65446 -344 -1 0 -331.462 1.3914 12.4417 -1938.48 1618.93 250.515 0 0 0 0.5 
157 1 1 1.46904 2.21426 9.7798 -80 0 0 -336.493 4.29461 20.0794 4673.18 -2341.86 464.421 0 0 0 0.5 
430 1 1 2.34622 3.79033 8.98631 -38 0 0 -149.103 -6.80256 14.658 1776.84 -159.997 -40.3889 0 0 0 0.5 
221 1 1 0.312306 4.25092 9.78634 101 0 0 -87.352 16.0842 14.8529 -1113.66 -587.074 -2933.56 0 0 0 0.5 
904 2 2 1.06016 3.66989 9.88344 207 1 -1 -148.7 -2.22843 3.4181 2193.75 339.347 1556.01 0 0 0 0.5 
84 1 1 2.57305 2.97859 8.33166 103 0 0 -214.331 -8.36113 -3.52545 4839.13 -2763.74 1972.87 0 0 0 0.5 
694 2 2 2.67548 1.95667 8.27335 -248 0 0 -313.84 6.9074 -2.95915 -1503.08 780.58 160.618 0 0 0 0.5 
249 1 1 0.832428 3.59868 8.33938 -95 0 1 -113.762 3.42574 -7.95203 -511.417 -692.779 896.065 0 0 0 0.5 
940 2 2 3.56279 1.54808 8.22211 -32 0 -2 -347.792 5.13223 16.0851 1164.65 263.652 882.123 0 0 0 0.5 
891 2 2 0.0423615 3.39182 8.86258 12 0 -1 -125.054 -15.5736 21.3103 -5009.46 2313.4 1001.79 0 0 0 0.5 
879 2 2 4.52362 4.92425 8.19561 171 0 1 48.955 -21.8963 6.27288 87.1894 325.193 258.691 0 0 0 0.5 
423 1 1 0.26019 4.26784 8.92593 -298 -1 0 -75.9128 -6.8067 -18.9741 -1273.76 1987.55 -317.694 0 0 0 0.5 
971 2 2 0.977754 4.29714 9.15179 46 0 0 -75.7279 21.9488 -2.74388 3589.17 -5191.25 3142.62 0 0 0 0.5 
281 1 1 1.8761 4.86974 9.38287 -12 0 -1 -48.3743 -7.88445 3.27898 -338.397 1455.14 677.253 0 0 0 0.5 
425 1 1 3.07079 0.710827 9.25828 -188 0 0 -458.118 22.8845 -12.9357 -525.508 298.951 -36.3367 0 0 0 0.5 
924 2 2 2.57363 4.70429 8.73474 -54 0 0 -48.5208 10.9855 -8.96626 -1987.71 -3266.5 1403.32 0 0 0 0.5 
736 2 2 3.87699 0.274226 8.88444 -284 0 1 -481.927 2.0455 -10.9642 -1732.24 479.797 -1356.3 0 0 0 0.5 
369 1 1 0.975734 4.63124 8.2518 -25 0 0 12.0684 -11.9176 -5.50411 -2893.54 1472.83 -3004.82 0 0 0 0.5 
747 2 2 2.86662 0.465965 8.39092 -216 0 0 -459.4 -6.60026 -23.3497 1896.4 -1377.96 -863.316 0 0 0 0.5 
582 2 2 4.36995 3.07028 9.95576 -19 0 -1 -232.776 4.70261 -18.7969 40.0441 -79.3939 242.749 0 0 0 0.5 
374 1 1 1.77716 4.31511 8.5864 -32 0 0 -65.0337 -5.79522 9.15108 975.657 1531.78 -821.383 0 0 0 0.5 
82 1 1 2.99336 3.81281 8.35441 24 0 -1 -164.058 10.169 -17.9564 -4154.36 -598.723 -2311.08 0 0 0 0.5 
539 2 2 4.48616 4.86614 9.86115 -105 0 0 28.2972 -27.1553 7.60893 59.4181 131.535 -229.93 0 0 0 0.5 
752 2 2 3.52523 6.97448 0.407112 39 0 -1 247.64 -27.175 8.94422 205.117 677.36 -626.112 0 0 0 0.5 
801 2 2 2.77011 8.09739 1.71985 -305 -1 -1 277.168 -5.04597 8.27015 -1075.44 -1790.8 -1008.51 0 0 0 0.5 
83 1 1 4.69586 6.49883 1.69457 179 0 0 123.4 33.8554 -1.55121 513.31 -810.002 -1110.65 0 0 0 0.5 
46 1 1 0.893895 7.24825 1.13426 98 0 1 178.801 7.06556 -8.50539 2746.72 -2339.97 950.527 0 0 0 0.5 
135 1 1 0.0349888 8.04904 1.76836 16 0 0 261.426 8.1906 -0.581642 1126.87 -2149.09 -461.529 0 0 0 0.5 
713 2 2 3.15877 9.74008 0.103995 -232 -1 1 503.15 -20.413 -13.3049 -934.965 -1906.15 1194.18 0 0 0 0.5 
323 1 1 0.338716 8.84572 0.959683 -306 -1 0 365.914 24.4821 23.2023 482.072 517.578 630.627 0 0 0 0.5 
429 1 1 4.48385 6.45527 0.817517 18 0 1 140.34 -0.155969 -15.1032 180.289 1494.22 21.3971 0 0 0 0.5 
597 2 2 2.60035 9.59864 1.51602 -154 -1 1 446.903 28.1976 14.1185 -4225.21 651.957 -1660.63 0 0 0 0.5 
618 2 2 4.29722 8.69813 0.52359 -140 -1 2 383.533 7.64312 32.5255 -627.453 1076.45 146.092 0 0 0 0.5 
405 1 1 4.00079 7.55164 1.44231 14 0 0 255.126 -2.10962 15.0189 478.901 -153.214 350.026 0 0 0 0.5 
925 2 2 4.08642 9.97367 0.849849 160 0 0 525.797 -17.4265 23.5254 -302.643 -741.485 1115.17 0 0 0 0.5 
427 1 1 0.0196614 5.20853 1.18052 -32 0 0 27.2832 3.00461 8.38886 -705.295 225.618 -1601.29 0 0 0 0.5 
515 2 2 1.73712 6.28942 1.32532 -270 -1 -1 93.8401 17.3598 0.521914 1270.28 1196.52 -769.788 0 0 0 0.5 
152 1 1 2.78502 9.23718 0.768177 75 0 1 420.265 -9.73793 -4.14267 2578.58 -770.187 593.356 0 0 0 0.5 
849 2 2 0.428993 6.09171 0.370552 43 0 1 67.581 16.3185 -10.4927 617.081 -1995.65 -970.167 0 0 0 0.5 
424 1 1 2.73888 8.89329 1.80179 -6 0 1 416.344 1.71955 -8.64638 543.327 1261.49 -1152.04 0 0 0 0.5 
750 2 2 3.16077 7.63547 1.03258 -173 -1 1 271.448 -12.2215 -0.933745 1373.14 -559.418 -143.568 0 0 0 0.5 
991 2 2 2.9729 5.84621 1.5404 76 0 0 55.8115 26.5365 -18.1426 1115.72 -966.056 -673.26 0 0 0 0.5 
634 2 2 3.5562 7.85067 0.110441 106 0 -1 310.541 6.64195 9.35708 1230.86 -551.538 -0.229875 0 0 0 0.5 
129 1 1 0.576105 5.57344 1.96541 -265 -1 0 47.1829 7.45785 3.98799 1193.88 455.444 -991.991 0 0 0 0.5 
19 1 1 0.0745915 9.86534 0.622997 -156 -1 0 469.148 -6.24654 0.388693 2816.13 -1923.01 -1253.37 0 0 0 0.5 
701 2 2 1.20535 9.53887 1.16046 132 0 0 504.638 -17.9281 -28.451 292.605 -744.505 1037.93 0 0 0 0.5 
627 2 2 2.22801 5.7985 1.82572 7 0 0 79.4091 -2.10972 26.9579 -3290.63 -2006.73 -1054.2 0 0 0 0.5 
269 1 1 3.4539 9.53981 1.66768 -193 -1 0 405.07 30.604 -16.0664 3460.58 -491.174 709.711 0 0 0 0.5 
762 2 2 2.08197 9.67175 0.662589 -161 -1 1 498.369 4.77413 -29.7476 -3871.31 2392.94 -581.411 0 0 0 0.5 
739 2 2 0.45409 7.99415 0.816922 41 0 0 265.878 3.8521 -6.94808 -1413.22 1898.89 -1191.26 0 0 0 0.5 
317 1 1 2.10245 7.04995 1.79659 -5 0 1 158.588 8.35969 -23.3018 -545.421 356.377 -173.424 0 0 0 0.5 
742 2 2 0.99989 5.48776 0.740504 2 0 -1 39.9466 -7.67009 20.3974 -88.5132 -286.681 144.716 0 0 0 0.5 
368 1 1 1.77432 8.49456 1.04933 73 0 0 308.272 16.1858 -20.0632 -475.849 486.719 109.807 0 0 0 0.5 
574 2 2 4.70204 8.38274 1.44752 39 0 1 373.932 -24.1186 11.8153 495.489 612.582 -706.398 0 0 0 0.5 
151 1 1 0.188777 6.95398 0.623526 2 0 0 175.497 3.9301 17.8976 722.079 1238.6 385.426 0 0 0 0.5 
789 2 2 3.602 5.38067 0.367751 -74 0 0 48.2345 -6.96616 -4.55527 0 0 0 0 0 0 0.5 
275 1 1 3.3937 8.83128 0.480683 -195 -1 0 403.938 -11.5588 -31.9004 -696.798 -626.033 169.583 0 0 0 0.5 
567 2 2 2.36001 7.89548 0.914173 53 0 1 293.492 -17.5804 -32.4156 -1834.38 752.035 1932.4 0 0 0 0.5 
20 1 1 2.57708 7.73366 0.0249822 -240 -1 0 334.94 -9.00302 -4.40246 -3255.07 1527.8 1532.78 0 0 0 0.5 
679 2 2 1.00622 6.52467 1.87457 5 0 0 139.007 -0.312057 -1.00136 -2079.92 669.44 1563 0 0 0 0.5 
218 1 1 1.92203 5.74082 0.68528 7 0 0 35.3225 15.0226 5.79638 -432.66 160.058 -2501.58 0 0 0 0.5 
3 1 1 2.41636 5.13264 1.11724 55 0 0 0.302107 13.2802 0.658709 1230.05 -1998.07 989.014 0 0 0 0.5 
632 2 2 4.72474 7.36981 0.995979 40 0 0 253.554 2.24986 9.51823 692.221 -1675.31 -930.268 0 0 0 0.5 
60 1 1 1.63031 6.70106 0.441372 53 0 1 132.777 7.82638 -24.5496 511.995 -401.687 1487.13 0 0 0 0.5 
335 1 1 4.54751 8.05763 0.196193 -144 -1 1 331.314 -27.4762 10.5522 2.89765 -1162.16 -98.2408 0 0 0 0.5 
655 2 2 4.58636 9.53773 0.331725 -268 -1 1 499.726 -10.2559 2.86389 871.316 -1726.85 -618.851 0 0 0 0.5 
194 1 1 4.81922 9.35483 1.18613 -306 -1 0 430.864 10.2055 40.938 -163.475 342.517 544.72 0 0 0 0.5 