ITEM: TIMESTEP
34500
ITEM: NUMBER OF ATOMS
1000
ITEM: BOX BOUNDS xy xz yz pp pp pp
-4.54747e-13 10 -4.54747e-13
0 10 0
-0 10 0
ITEM: ATOMS id type type x y z ix iy iz vx vy vz fx fy fz omegax omegay omegaz radius 
137 1 1 2.12098 0.674361 1.93 -159 0 0 -391.631 -2.24449 -2.59671 1342.41 -600.928 -177.481 0 0 0 0.5 
856 2 2 0.998858 0.0989936 0.638573 -143 0 1 -464.985 -9.75842 -2.51998 -867.349 1179.78 2065.53 0 0 0 0.5 
762 2 2 2.69734 1.86727 1.03063 -101 0 1 -323.161 -7.82409 -8.93731 2649.58 -3287.62 2435.17 0 0 0 0.5 
670 2 2 2.69543 0.129124 0.447584 -61 0 1 -425.258 -37.187 -0.166856 -168.172 352.519 189.416 0 0 0 0.5 
530 2 2 0.123421 1.60182 1.03257 -63 0 2 -334.352 14.0074 -5.77889 -341.636 205.615 412.922 0 0 0 0.5 
853 2 2 2.14715 1.79677 1.77045 145 1 0 -322.092 -4.22898 40.5047 -478.171 466.352 -2180.74 0 0 0 0.5 
745 2 2 4.26673 0.247339 1.62639 -26 0 1 -460.063 -0.87133 9.90661 -68.4513 407.83 -199.93 0 0 0 0.5 
358 1 1 0.112034 1.34486 1.88924 -43 0 0 -372.757 5.56374 9.3867 764.709 -1134.61 38.7061 0 0 0 0.5 
392 1 1 4.40684 3.47357 0.330748 -14 0 0 -160.147 29.6838 28.8594 -667.775 924.789 -570.328 0 0 0 0.5 
541 2 2 3.59318 3.99993 1.42734 148 1 0 -91.8055 -6.7956 -15.8309 -1056.6 50.1553 429.494 0 0 0 0.5 
510 2 2 0.87891 3.49241 1.65909 -44 0 0 -195.166 11.7311 -8.24369 -1764.89 -602.557 -863.862 0 0 0 0.5 
450 1 1 1.23968 1.20746 1.0039 118 1 0 -374.464 9.27522 2.07012 -824.175 909.515 1632.96 0 0 0 0.5 
181 1 1 4.80447 0.791154 0.187019 94 1 0 -441.91 10.8996 -9.21411 68.9561 -304.808 363.506 0 0 0 0.5 
38 1 1 2.26382 3.08349 1.91026 -76 0 1 -221.692 4.09053 9.60538 1493.55 -471.055 204.269 0 0 0 0.5 
298 1 1 1.66257 0.939093 0.28987 -112 0 0 -407.293 -14.1508 21.9773 -151.994 508.289 -883.436 0 0 0 0.5 
675 2 2 0.700564 2.14189 1.63716 -55 0 0 -282.355 -17.1659 -20.7185 1218.17 -122.494 -959.505 0 0 0 0.5 
549 2 2 0.666362 0.774323 1.82219 -132 0 0 -399.497 -19.9111 4.75349 -947.536 -1531.56 -298.765 0 0 0 0.5 
186 1 1 0.574401 2.73496 0.905442 133 1 0 -192.971 4.78067 -9.80534 -471.456 1908.3 -154.435 0 0 0 0.5 
443 1 1 2.31847 0.919305 0.872166 100 1 0 -386.168 -4.6443 4.59064 933.846 -375.618 490.334 0 0 0 0.5 
2 1 1 1.32243 2.42778 0.910276 -34 0 1 -210.584 -11.0847 -8.17624 -3911.67 835.622 1372.8 0 0 0 0.5 
804 2 2 0.67483 0.591428 0.107419 -143 0 0 -425.137 3.41112 -28.657 -259.866 1209.1 -857.147 0 0 0 0.5 
890 2 2 1.92964 2.88563 0.0613558 -31 0 0 -149.711 -23.0899 -12.7848 -5429.52 3507.44 -1854.92 0 0 0 0.5 
159 1 1 1.53568 3.21073 1.76051 195 1 0 -206.854 2.00061 5.05801 -360.462 -550.175 16.3983 0 0 0 0.5 
633 2 2 0.460853 0.106652 1.20016 -139 0 1 -445.345 -15.4885 8.57672 5.60064 -317.781 1404.21 0 0 0 0.5 
208 1 1 0.439616 2.38972 0.225738 -21 0 1 -240.677 6.9779 3.39526 916.852 1962.39 -1182.34 0 0 0 0.5 
106 1 1 2.08048 3.00692 0.981112 -51 0 0 -208.593 7.55327 -1.24415 -2313.32 -722.932 -708.006 0 0 0 0.5 
322 1 1 3.35876 2.42058 0.298174 99 1 0 -264.424 20.6768 19.5191 3319.95 -502.047 1504.67 0 0 0 0.5 
237 1 1 3.22286 1.04653 0.347584 -94 0 1 -394.477 -17.8538 7.07042 -584.427 2108.59 170.041 0 0 0 0.5 
265 1 1 1.76693 4.39144 1.60519 -62 0 1 -89.4768 11.6575 2.25706 -366.748 742.771 925.364 0 0 0 0.5 
573 2 2 0.73895 1.48834 0.330061 -98 0 1 -346.918 11.3566 -13.885 594.532 -2193.93 -1243.1 0 0 0 0.5 
889 2 2 4.55736 4.57194 0.767585 2 0 0 -5.89299 1.73189 2.3442 130.669 942.031 -999.511 0 0 0 0.5 
750 2 2 1.69476 1.74524 0.239558 -112 0 1 -348.527 20.9435 -7.39599 161.195 -156.717 526.785 0 0 0 0.5 
270 1 1 2.00335 2.14216 0.922034 -81 0 1 -271.069 -8.35063 14.2509 -599.88 -826.395 32.9058 0 0 0 0.5 
941 2 2 2.04982 3.8185 0.891404 -18 0 0 -129.446 21.6726 -0.832949 988.832 529.527 -1309.33 0 0 0 0.5 
480 1 1 1.39294 0.937888 1.77138 -92 0 2 -400.099 10.5793 10.2074 1007.87 505.808 1007.03 0 0 0 0.5 
9 1 1 2.77123 4.43575 1.61861 228 1 0 -83.251 -2.26584 8.55351 -461.384 84.2139 76.5607 0 0 0 0.5 
891 2 2 0.864965 3.72559 0.65451 24 0 0 -131.053 6.97831 -14.5015 0 0 0 0 0 0 0.5 
792 2 2 4.46867 3.93254 1.446 182 1 0 -101.661 16.3071 -15.8677 -391.675 1119.55 1114.24 0 0 0 0.5 
413 1 1 2.50747 4.80582 0.782682 -39 0 0 -51.7934 18.6585 -2.91385 3.40003 -4.77047 10.7756 0 0 0 0.5 
446 1 1 0.105831 2.94423 1.44069 -39 0 1 -180.983 -9.51089 13.661 -1827.49 288.296 1510.07 0 0 0 0.5 
162 1 1 3.77154 2.66612 1.40658 126 1 0 -255.978 6.91005 8.10058 187.393 -296.569 -768.824 0 0 0 0.5 
751 2 2 3.40058 0.897495 1.39596 135 1 1 -409.255 -1.63079 -1.46546 -92.4475 458.405 117.309 0 0 0 0.5 
935 2 2 3.6027 1.84361 0.355046 -54 0 1 -298.468 -13.9271 12.1852 316.676 -2876.11 1181.54 0 0 0 0.5 
947 2 2 2.96674 3.84907 0.554665 5 0 1 -116.562 10.3101 -18.3292 -669.301 -22.3141 245.8 0 0 0 0.5 
614 2 2 4.5634 2.45609 0.636893 106 1 1 -246.574 -5.61515 -5.30747 -24.794 40.6553 569.289 0 0 0 0.5 
547 2 2 0.729555 4.38214 1.76766 59 0 0 -72.7262 7.80571 -12.0382 1489.14 1178.69 3500.78 0 0 0 0.5 
18 1 1 2.90033 2.84501 1.32334 -39 0 1 -234.641 11.5677 -13.1762 899.72 -265.567 223.081 0 0 0 0.5 
227 1 1 3.70169 0.374933 0.480696 -108 0 1 -405.816 -29.0137 22.2422 851.561 -1137.17 -129.055 0 0 0 0.5 
833 2 2 4.57238 2.62861 1.61216 -3 0 0 -259.846 25.7646 2.08413 1135.07 935.837 945.989 0 0 0 0.5 
51 1 1 3.77695 3.03744 0.0451702 2 0 1 -144.669 -17.0511 21.6749 -363.029 -1332.72 405.427 0 0 0 0.5 
80 1 1 2.69297 2.31058 0.338909 -39 0 1 -286.366 -13.1146 7.01306 2926.11 -749.924 -380.977 0 0 0 0.5 
864 2 2 0.333547 4.59094 1.07487 -27 0 1 -23.2921 -28.3992 -4.03144 -706.932 -2256.7 -3167.93 0 0 0 0.5 
957 2 2 1.78117 4.74847 0.0506978 48 0 0 4.58651 -0.111568 14.7334 998.158 -265.596 75.3365 0 0 0 0.5 
67 1 1 3.21523 1.81656 1.63116 211 1 1 -343.754 24.8195 10.4332 1914.21 -330.997 542.181 0 0 0 0.5 
603 2 2 4.92569 1.85732 1.6279 169 1 0 -333.415 -1.38503 17.8983 -1065.49 1643.04 -1029.53 0 0 0 0.5 
901 2 2 4.94697 0.16127 0.938203 -107 0 0 -473.19 1.87435 3.4413 179.589 596.988 -423.159 0 0 0 0.5 
333 1 1 4.92709 3.38427 0.929435 -18 0 0 -147.139 -2.07135 12.7113 1392.76 -1659.29 -925.483 0 0 0 0.5 
207 1 1 2.36841 0.79991 2.8628 156 1 1 -369.914 -11.9919 -12.0619 346.938 -105.256 123.517 0 0 0 0.5 
361 1 1 0.409391 2.69396 3.63005 -44 0 0 -236.635 -1.92344 8.77081 -398.911 -1696.08 -59.0684 0 0 0 0.5 
17 1 1 4.19311 0.513575 2.6871 -95 0 0 -395.507 -1.28459 -9.36603 -2061.67 813.78 -2151.97 0 0 0 0.5 
826 2 2 2.12054 3.56081 3.44241 234 1 0 -136.548 -7.42686 -1.05134 33.224 -66.642 -43.3536 0 0 0 0.5 
110 1 1 0.914218 0.602358 2.74293 -68 0 1 -419.101 10.7323 8.74136 628.594 -65.3658 784.793 0 0 0 0.5 
511 2 2 1.74651 4.31106 3.93048 -23 0 -1 -105.893 9.21185 4.92117 1044.97 972.673 -1345.24 0 0 0 0.5 
905 2 2 1.63742 1.33567 3.24464 -51 0 0 -355.77 -1.99924 -4.0321 501.171 -125.988 -318.096 0 0 0 0.5 
278 1 1 0.589121 0.465151 3.84352 172 1 -1 -473.21 30.1404 0.499787 1127.41 -1181.94 -1067.07 0 0 0 0.5 
835 2 2 0.838039 2.66122 2.28427 -37 0 1 -211.835 -11.4972 -3.49363 536.617 -1235.56 -1228.56 0 0 0 0.5 
783 2 2 0.905392 1.61945 3.68599 -56 0 1 -341.824 10.174 16.5545 259.762 -190.843 198.271 0 0 0 0.5 
416 1 1 3.51649 2.15173 3.04904 -86 0 0 -268.676 1.90912 1.2861 -2195.98 1130.35 209.215 0 0 0 0.5 
213 1 1 4.06293 3.50691 3.62847 205 1 1 -145.83 8.41751 5.9335 151.511 -898.145 105.731 0 0 0 0.5 
844 2 2 1.87599 2.47453 2.59428 134 1 0 -237.887 -2.63345 -11.6166 -1244.38 -242.057 -755.06 0 0 0 0.5 
557 2 2 2.30717 0.899707 3.85328 135 1 0 -362.236 -19.2574 -15.4831 -3257.53 2183.84 1063.62 0 0 0 0.5 
501 2 2 0.00667742 1.81278 3.45205 137 1 0 -333.263 -10.6288 15.4528 1280.67 417.491 -1424.91 0 0 0 0.5 
674 2 2 4.34403 2.72755 3.02766 -43 0 0 -272.476 32.4085 -10.0889 968.041 928.152 -2539.91 0 0 0 0.5 
691 2 2 1.11798 2.83837 3.02837 144 1 0 -224.219 2.67697 9.40394 -337.572 543.116 596.596 0 0 0 0.5 
75 1 1 1.60404 2.63466 3.7729 175 1 1 -224.285 -8.8133 7.01232 779.16 -518.174 470.183 0 0 0 0.5 
781 2 2 4.3203 1.87235 3.36004 146 1 0 -335.886 13.1955 6.71028 3665.47 -3218.81 -223.613 0 0 0 0.5 
894 2 2 2.23919 4.56245 2.4778 11 0 0 -47.0807 -25.3581 -8.38361 221.583 -771.645 -81.5148 0 0 0 0.5 
763 2 2 0.0121351 0.688206 2.50888 62 1 1 -420.883 -8.90403 1.26481 484.184 -410.579 673.757 0 0 0 0.5 
25 1 1 0.415063 1.64239 2.72286 -111 0 0 -325.161 0.271306 0.601943 2121.43 -2673.46 -315.575 0 0 0 0.5 
966 2 2 1.60598 3.72437 2.5975 -58 0 1 -120.137 0.622777 5.34823 1688.5 -835.485 -479.48 0 0 0 0.5 
21 1 1 3.68755 4.86118 3.11895 -88 0 1 -8.09299 4.03489 -18.9773 -784.48 877.234 -239.567 0 0 0 0.5 
741 2 2 1.10977 3.63048 3.47342 -102 0 0 -128.471 17.6808 13.8502 469.093 538.267 -572.435 0 0 0 0.5 
354 1 1 2.8347 1.60112 2.39062 -40 0 1 -328.292 -6.09206 13.4948 538.522 -537.006 1939.81 0 0 0 0.5 
243 1 1 0.802095 4.08339 2.76524 -58 0 0 -108.181 -4.9619 -11.2282 -1631.74 -436.49 -577.474 0 0 0 0.5 
190 1 1 3.10847 3.38443 3.47934 -36 0 1 -137.598 -16.5293 13.9633 -418.766 -28.7641 -237.391 0 0 0 0.5 
769 2 2 3.49489 1.4733 3.66415 -24 0 1 -342.428 -15.7139 3.8622 -334.793 1168.37 -141.771 0 0 0 0.5 
952 2 2 3.66517 1.33654 2.71461 20 0 0 -325.195 -17.1135 19.8738 -822.173 1246.99 -1235.78 0 0 0 0.5 
902 2 2 4.05742 4.2199 2.27403 206 1 1 -73.8696 0.862727 -10.4949 -461.214 750.763 203.146 0 0 0 0.5 
513 2 2 4.01083 2.69253 3.76121 -72 0 0 -208.02 -15.792 0.344357 -1717.46 817.712 3379.64 0 0 0 0.5 
659 2 2 4.50739 0.0048585 3.7372 -93 0 0 -476.289 1.58011 -10.5414 -462.193 -1467.31 1983.85 0 0 0 0.5 
350 1 1 2.73657 2.40858 2.99383 146 1 0 -265.227 -2.07761 -7.41738 -628.842 416.755 821.889 0 0 0 0.5 
896 2 2 0.164325 4.6321 3.58446 -9 0 -1 -64.8419 -8.62257 -23.9232 2948.22 358.133 1742.97 0 0 0 0.5 
647 2 2 3.3404 2.64414 2.28588 -84 0 0 -262.242 -0.928806 -1.37858 -253.84 156.21 -781.529 0 0 0 0.5 
440 1 1 2.55587 2.10451 3.90014 11 0 0 -310.654 21.1538 -6.4856 -29.9191 -50.3453 150.059 0 0 0 0.5 
522 2 2 0.616914 4.86021 2.83885 -15 0 1 -26.8652 18.4051 -6.17018 748.256 -1885.6 -1780.38 0 0 0 0.5 
472 1 1 3.80513 3.58468 2.82491 8 0 1 -147.58 -11.3097 -8.11703 -192.59 342.365 -991.428 0 0 0 0.5 
98 1 1 0.245031 3.28231 2.35361 -44 0 0 -181.149 16.5856 5.33902 -1213.29 963.569 487.677 0 0 0 0.5 
555 2 2 4.34756 4.31158 3.38987 -26 0 0 -41.2087 -2.74958 4.14821 -2595.68 2341.84 -1200.04 0 0 0 0.5 
809 2 2 4.30048 1.21898 2.15455 151 1 0 -329.382 8.66601 -38.7117 -238.975 -497.573 537.784 0 0 0 0.5 
566 2 2 4.79963 1.22022 3.3544 228 1 1 -369.576 -20.9577 7.46609 71.1891 -1076.31 1433 0 0 0 0.5 
527 2 2 2.89714 3.2671 2.40085 14 0 0 -235.569 40.0804 24.2218 472.383 1248.24 1043.71 0 0 0 0.5 
345 1 1 3.04491 0.325207 3.59299 167 1 0 -464.474 6.43902 -13.1121 476.338 -1199.52 137.892 0 0 0 0.5 
877 2 2 3.94149 0.402492 3.55601 177 1 1 -469.372 13.6515 -17.0624 -1007.27 1130.41 -1007.8 0 0 0 0.5 
995 2 2 4.03585 2.21054 2.30779 -119 0 1 -258.286 -22.5464 -1.84558 492.47 -106.276 -773.317 0 0 0 0.5 
939 2 2 4.72763 3.53583 2.70328 -44 0 0 -131.681 4.77456 -9.54852 -1464.57 -1037.25 2957.34 0 0 0 0.5 
216 1 1 4.94032 2.27574 2.44814 -117 0 1 -271.213 8.87265 19.6447 1482.72 107.328 -550.255 0 0 0 0.5 
699 2 2 4.62188 4.33181 5.17935 33 0 -1 -19.9604 -19.2152 -6.79509 -2282.29 -1221.31 -274.397 0 0 0 0.5 
606 2 2 2.44367 2.74496 5.88535 -121 0 -1 -210.076 -11.5953 -20.8842 -2391.84 -648.485 804.009 0 0 0 0.5 
967 2 2 0.764451 1.20101 4.98362 155 1 -1 -383.826 11.9207 -27.2061 409.378 -579.648 -1615.04 0 0 0 0.5 
390 1 1 2.31072 2.57172 4.92312 95 1 -1 -215.727 -18.3081 -26.948 1001.36 -608.974 408.001 0 0 0 0.5 
284 1 1 1.71975 4.3171 5.96816 -96 0 0 -117.583 36.5334 11.2789 2343.05 -2898.18 -2564.22 0 0 0 0.5 
780 2 2 1.94975 1.55409 5.7756 -140 0 0 -351.684 -0.455601 -3.57791 2580.58 -2821.23 62.464 0 0 0 0.5 
544 2 2 0.732099 2.95767 5.02003 6 0 0 -212.826 16.4696 -6.67838 1088.21 -1872.71 1474.6 0 0 0 0.5 
105 1 1 3.90964 0.936996 4.22828 123 1 0 -371.556 -11.7042 24.7956 -3264.64 515.534 1335.92 0 0 0 0.5 
795 2 2 1.62084 3.04262 4.82554 -78 0 0 -206.776 15.2716 2.07159 544.471 1599.32 222.303 0 0 0 0.5 
798 2 2 1.67164 0.624863 5.98489 -152 0 0 -450.82 11.9884 6.10457 -109.992 834.967 -1560.77 0 0 0 0.5 
575 2 2 0.630561 1.17337 5.85854 120 1 -1 -352.707 7.24552 -25.9476 578.916 -3747.12 228.505 0 0 0 0.5 
24 1 1 2.12781 1.0865 4.97905 151 1 -1 -388.355 7.32727 8.5974 -149.489 -2035.52 -849.636 0 0 0 0.5 
653 2 2 1.04455 3.19859 4.15947 222 1 0 -221.206 13.9394 6.87483 -898.523 -394.455 -494.725 0 0 0 0.5 
253 1 1 1.74829 0.167915 5.18125 -180 0 0 -480.597 -12.1885 -11.5724 855.835 -1464.55 2530.35 0 0 0 0.5 
961 2 2 1.99308 3.56919 5.62163 -7 0 0 -164.363 -9.25352 8.8838 -417.643 2175.08 -921.236 0 0 0 0.5 
22 1 1 1.3506 0.643 4.57325 119 1 0 -394.259 -11.0201 -22.3248 -18.0371 1769.75 -1899.58 0 0 0 0.5 
189 1 1 4.80604 1.5951 4.31382 162 1 0 -340.517 9.56245 -3.5822 2083.15 -1094.53 -367.234 0 0 0 0.5 
95 1 1 1.95945 3.97246 4.75476 -17 0 0 -115.968 5.56999 2.18623 -124.624 -1455.81 1133.31 0 0 0 0.5 
402 1 1 4.71848 0.753719 5.19177 -151 0 0 -392.287 15.449 -0.562259 2548.28 -512.376 -605.419 0 0 0 0.5 
626 2 2 1.8198 1.52594 4.26151 -47 0 -1 -319.885 5.84239 -14.6445 -308.724 987.502 -822.448 0 0 0 0.5 
488 1 1 1.11866 2.00758 4.54426 -109 0 1 -306.782 11.9043 2.18476 -247.818 162.749 76.0073 0 0 0 0.5 
193 1 1 0.13694 0.430655 5.42627 161 1 0 -446.945 13.6529 4.80255 1434.84 -83.3491 2046.01 0 0 0 0.5 
709 2 2 4.83173 0.727692 4.24489 113 1 0 -434.885 -0.868904 -11.2489 1343.92 -1630.47 -560.134 0 0 0 0.5 
247 1 1 1.27565 1.99696 5.497 -153 0 0 -307.431 17.718 4.06275 -1531 1386.46 -404.739 0 0 0 0.5 
772 2 2 3.76302 4.52076 4.3426 -59 0 1 -38.6994 -3.63113 4.64808 -1899.69 1663.96 163.103 0 0 0 0.5 
394 1 1 0.511358 2.14423 5.18474 130 1 -1 -322.514 -6.68205 -10.1115 -1583.14 2999.76 100.451 0 0 0 0.5 
346 1 1 3.96555 2.58618 5.21031 189 1 0 -221.756 4.96824 26.2546 1415.37 90.2161 -1388.07 0 0 0 0.5 
845 2 2 4.75751 3.18466 5.61767 -27 0 0 -183.071 6.64646 27.9712 722.892 1914.72 905.47 0 0 0 0.5 
930 2 2 3.61111 2.1743 4.36932 -28 0 0 -309.801 -3.37465 13.9502 -2137.61 -163.681 -1633.03 0 0 0 0.5 
7 1 1 3.54454 3.13515 4.38198 -59 0 0 -130.164 -24.7507 22.6374 -712.434 3282.22 1210.61 0 0 0 0.5 
816 2 2 0.870134 4.46933 4.05271 -6 0 0 -102.804 16.9083 8.62585 1055.41 -10.7926 549.372 0 0 0 0.5 
743 2 2 2.77648 3.56942 5.28139 -56 0 0 -145.411 2.1006 -1.31391 311.682 2.09455 -142.593 0 0 0 0.5 
64 1 1 0.438084 4.58818 5.78273 50 0 -1 -42.7224 0.92953 6.1671 2345.5 -1037.39 -1999.28 0 0 0 0.5 
364 1 1 3.30396 2.54402 5.85913 -43 0 0 -252.597 7.38115 -39.3552 2341.22 -1092.8 502.743 0 0 0 0.5 
241 1 1 0.499948 2.9387 5.93419 264 1 1 -166.251 -11.1031 -12.0092 499.591 -1248.19 -384.096 0 0 0 0.5 
971 2 2 2.9638 3.77816 4.44815 54 0 0 -120.638 6.42276 -19.1553 -396.436 434.952 52.972 0 0 0 0.5 
932 2 2 4.27704 1.91491 4.51141 -64 0 0 -312.592 14.4969 12.2135 -504.615 1322.74 1540.36 0 0 0 0.5 
102 1 1 0.670753 4.23628 4.88992 -5 0 -1 -65.1766 -5.78991 14.8159 793.083 -799.823 443.43 0 0 0 0.5 
652 2 2 4.59165 2.24103 5.91925 -24 0 0 -271.324 6.53241 17.4477 0 0 0 0 0 0 0.5 
308 1 1 4.08974 1.33825 5.23554 -63 0 1 -343.422 1.32935 -5.77868 -3018.28 2539.2 286.566 0 0 0 0.5 
404 1 1 4.13863 4.97549 5.97172 9 0 0 1.21593 3.53724 7.47883 -288.254 1546.24 333.517 0 0 0 0.5 
188 1 1 4.24694 4.0383 4.33404 13 0 0 -62.5652 -39.1312 2.12153 1966.95 -950.344 1280.56 0 0 0 0.5 
229 1 1 4.34538 0.760999 5.92557 -110 0 0 -385.286 -3.00563 11.832 -2770.56 792.578 -1051.27 0 0 0 0.5 
531 2 2 4.8774 2.84754 4.873 -62 0 0 -255.213 22.1326 -18.174 6.26905 -70.9804 -444.962 0 0 0 0.5 
724 2 2 4.9968 0.0703813 4.97343 -178 0 0 -463.734 -10.4244 -6.2224 -752.945 732.03 -552.856 0 0 0 0.5 
956 2 2 1.62219 2.6111 6.9478 -80 0 0 -202.854 -14.5841 12.8562 -1601.2 -791.251 -1715.91 0 0 0 0.5 
487 1 1 4.90409 1.02512 7.52089 -111 0 -1 -448.182 18.5215 -19.3009 1237.96 -464.371 1267.88 0 0 0 0.5 
201 1 1 2.23035 3.31362 7.89212 -69 0 0 -157.67 -9.42371 -17.1027 -557.361 -578.493 -1668.48 0 0 0 0.5 
820 2 2 2.0243 0.373897 6.73477 -113 0 0 -441.512 -7.86939 2.77642 94.2914 -881.3 -385.773 0 0 0 0.5 
251 1 1 0.473059 0.573457 6.52484 -52 0 0 -436.469 6.84863 3.13707 25.7509 -522.753 -1286.95 0 0 0 0.5 
485 1 1 2.97094 2.75999 6.72046 -95 0 1 -185.832 4.47036 -19.7726 -1488.87 -559.457 1455.81 0 0 0 0.5 
506 2 2 3.26407 1.61027 6.33556 -89 0 0 -295.03 -21.5354 -32.2156 1505.47 -870.989 -1587.47 0 0 0 0.5 
810 2 2 4.41857 3.96262 7.81846 46 0 0 -140.161 6.67683 -13.2309 -749.192 -581.662 -1813.43 0 0 0 0.5 
257 1 1 1.29771 3.32739 6.98572 -39 0 0 -132.006 1.12559 6.44664 -1233.17 1690 -960.548 0 0 0 0.5 
305 1 1 4.41192 4.76542 7.53576 64 0 -1 6.58153 8.99393 -11.938 -1657.66 2001.59 783.284 0 0 0 0.5 
33 1 1 0.806554 2.57578 7.53795 213 1 0 -222.296 23.3428 12.8941 -1149.78 1883.69 -2138.53 0 0 0 0.5 
813 2 2 1.67629 1.40641 7.84253 180 1 0 -365.051 -3.39955 32.0306 817.377 153.222 -1336.17 0 0 0 0.5 
415 1 1 3.90012 4.27907 6.68504 -1 0 -1 -41.0939 2.90614 24.2845 -1080.16 880.579 482.316 0 0 0 0.5 
521 2 2 1.904 1.01966 7.18602 -67 0 0 -396.451 10.9917 0.629497 1579.42 1105.13 -1736.56 0 0 0 0.5 
191 1 1 3.6833 1.03688 7.36385 126 1 0 -418.157 2.01806 -7.11364 1913.68 -1794.43 -684.701 0 0 0 0.5 
169 1 1 0.417109 2.09754 6.10757 198 1 0 -260.962 -12.7149 -0.139701 3012.55 -3196.08 -2530.4 0 0 0 0.5 
987 2 2 1.7448 1.88122 6.41459 152 1 0 -275.703 -14.5471 18.9763 -600.925 41.2915 1614.28 0 0 0 0.5 
625 2 2 1.37552 2.986 6.06896 -28 0 0 -170.607 2.19636 -11.8421 807.303 -755.043 2048.58 0 0 0 0.5 
119 1 1 4.85209 4.45811 6.88756 0 0 0 -30.3832 5.75271 -11.4466 549.876 -836.036 -1846.82 0 0 0 0.5 
431 1 1 4.79096 1.51754 6.80815 -91 0 -1 -358.703 24.5842 -3.17386 -275.838 957.611 -2119.41 0 0 0 0.5 
650 2 2 2.42958 2.52113 7.50962 -38 0 0 -240.744 -10.3107 -24.335 546.035 -1869.66 1178.26 0 0 0 0.5 
790 2 2 0.889687 0.133259 6.98286 -149 0 0 -453.536 -2.41552 8.63203 1432.05 -877.208 328.071 0 0 0 0.5 
180 1 1 0.503455 1.62146 6.97375 16 0 0 -332.833 -8.08864 -33.8275 1097.92 -4391.84 1018.63 0 0 0 0.5 
811 2 2 2.50992 0.410943 7.52807 39 1 0 -445.031 3.67978 12.7808 1356.05 -915.723 356.245 0 0 0 0.5 
970 2 2 1.06003 1.26404 7.4051 186 1 -1 -368.18 -21.5197 -4.03995 -1848.91 -404.951 1374 0 0 0 0.5 
706 2 2 2.23734 4.99448 6.57888 64 0 0 1.39558 6.54703 0.374458 -588.042 -2064.09 -190.835 0 0 0 0.5 
661 2 2 0.100128 2.29136 7.0249 -57 0 -1 -220.091 -12.0138 3.12849 -2051.86 1680.19 3512.68 0 0 0 0.5 
146 1 1 1.02498 4.13166 6.41079 -9 0 0 -117.903 3.46958 32.9831 3096.82 758.835 208.844 0 0 0 0.5 
348 1 1 3.88199 3.09167 7.8046 -20 0 0 -180.419 7.43613 -9.90798 2907.78 -1012.49 1711.97 0 0 0 0.5 
635 2 2 3.33324 3.50455 6.1576 -260 -1 0 -114.703 1.9223 -17.2671 0 0 0 0 0 0 0.5 
646 2 2 4.32746 3.40203 6.71052 -52 0 0 -88.9557 -8.97095 -21.6161 1467.68 -897.347 -714.176 0 0 0 0.5 
992 2 2 3.13011 2.28958 7.73415 -130 0 0 -252.219 -7.27445 5.66095 2206.5 -729.31 707.213 0 0 0 0.5 
328 1 1 3.58048 3.49005 7.21377 39 0 -1 -76.4826 -10.4681 -15.572 -1084.67 695.964 -3506.4 0 0 0 0.5 
484 1 1 2.08256 4.99086 7.77285 32 0 0 -3.46536 5.3477 22.5937 1002.24 -734.795 -620.203 0 0 0 0.5 
438 1 1 0.294106 3.67284 6.07729 17 0 -1 -106.326 -5.86855 18.4339 880.634 -278.179 194.098 0 0 0 0.5 
823 2 2 3.55609 0.121115 7.67674 196 1 -1 -506.832 0.972629 -5.10333 -1849.01 1328.79 -964.08 0 0 0 0.5 
509 2 2 2.95433 0.648514 6.665 -94 0 0 -445.041 -0.4939 14.2211 473.204 -363.008 -608.212 0 0 0 0.5 
86 1 1 0.343345 3.8833 7.05151 -31 0 1 -57.1338 -11.9879 32.745 -2382.02 -2530.25 1657.73 0 0 0 0.5 
177 1 1 1.22022 4.93106 7.3283 54 0 0 -4.93537 0.513767 10.3424 790.138 575.824 -186.558 0 0 0 0.5 
951 2 2 3.04704 4.48244 6.32417 -37 0 0 -40.4 2.49172 -16.1926 1501.83 -855.993 -296.969 0 0 0 0.5 
11 1 1 3.04662 4.02656 7.41106 -17 0 -1 -56.0455 -12.1875 6.88213 -1378.08 611.969 311.996 0 0 0 0.5 
903 2 2 2.78896 4.78971 7.2615 -38 0 -1 -3.8499 21.7112 12.0071 944.832 576.45 -65.4418 0 0 0 0.5 
938 2 2 -0.00356156 4.38148 6.46503 22 0 -1 -23.1578 -7.74002 -9.54686 228.376 -579.209 1771.1 0 0 0 0.5 
742 2 2 4.49035 4.2336 6.04114 4 0 -1 -49.9325 -14.1945 5.73416 -2339.68 -1154.96 252.214 0 0 0 0.5 
829 2 2 2.89475 1.34252 7.31487 -47 0 0 -391.593 -0.496622 13.0481 -1251.67 -580.7 -425.6 0 0 0 0.5 
796 2 2 1.35627 4.02814 7.51578 19 0 -1 -75.0655 4.36303 1.8675 182.157 -988.15 -436.382 0 0 0 0.5 
688 2 2 2.8168 1.86904 6.80719 -18 0 1 -284.337 -3.20423 -13.1098 -1692.03 2990.7 -112.872 0 0 0 0.5 
338 1 1 4.86404 0.689212 6.46722 88 1 0 -413.712 -15.8945 11.1672 123.046 108.057 3416.74 0 0 0 0.5 
828 2 2 2.82602 3.03405 9.98263 -43 0 0 -157.481 18.3594 -0.790646 -1511.96 2290.73 1648.02 0 0 0 0.5 
671 2 2 0.554906 2.57004 8.47849 -19 0 0 -283.144 27.6843 -6.62333 3122.28 -1590.96 889.061 0 0 0 0.5 
754 2 2 0.821962 1.02167 8.39117 -90 0 0 -376.706 -22.1086 -14.0446 41.8279 -64.815 -457.345 0 0 0 0.5 
621 2 2 1.95361 4.01611 8.25977 6 0 0 -68.697 -0.520393 -16.1729 263.128 1726.72 720.141 0 0 0 0.5 
393 1 1 2.49993 1.47334 8.0508 69 1 -1 -362.528 -8.56201 3.94135 -2024.51 532.949 186.892 0 0 0 0.5 
768 2 2 0.293881 1.96933 9.56436 -121 0 -2 -319.074 -11.8721 15.3729 2502.9 -2975.54 -980.913 0 0 0 0.5 
870 2 2 1.98761 3.23755 8.81031 6 0 0 -134.203 -14.0802 -20.659 -982.954 -65.1538 711.378 0 0 0 0.5 
41 1 1 4.55463 1.91855 8.6097 -156 0 -1 -278.34 -24.859 -0.0205782 7.49803 -2739.41 -496.465 0 0 0 0.5 
584 2 2 1.36867 0.0108712 9.09442 -76 0 0 -513.929 15.5512 -20.2001 1016.05 2538.32 989.895 0 0 0 0.5 
372 1 1 1.86616 0.581035 9.6866 -115 0 0 -428.199 -18.8565 9.56884 -2526.6 -1093.42 -314.387 0 0 0 0.5 
91 1 1 3.34063 4.17738 8.99728 -10 0 -1 -86.4941 16.0186 -4.38642 -281.755 1196.58 419.135 0 0 0 0.5 
246 1 1 2.52739 0.552744 9.21246 173 1 0 -458.166 -7.56461 -0.0981541 3373.02 -1202.27 -404.003 0 0 0 0.5 
115 1 1 1.53605 1.97781 9.3268 106 1 -1 -332.645 22.7482 -10.3917 -23.3841 -397.07 -475.014 0 0 0 0.5 
341 1 1 1.71506 3.82697 9.89476 17 0 -1 -105.269 0.833427 -10.1506 104.321 -532.781 74.5037 0 0 0 0.5 
139 1 1 4.16764 4.57014 8.70244 -33 0 0 -73.0165 21.6082 -7.85445 2256.95 -2895.55 -2554.99 0 0 0 0.5 
585 2 2 1.66743 0.119041 8.14593 -98 0 0 -495.112 -24.7285 -24.2051 -93.0968 202.538 43.1349 0 0 0 0.5 
711 2 2 0.696342 1.72655 8.89132 100 1 -1 -332.741 3.06279 -2.582 -1466.18 1838.58 -1995.63 0 0 0 0.5 
93 1 1 3.31726 1.06409 8.30543 108 1 -1 -431.547 0.166774 -11.9098 106.87 479.268 186.975 0 0 0 0.5 
65 1 1 1.82677 0.822558 8.57836 -50 0 0 -404.243 -4.21563 -18.5502 586.39 -1973.73 -45.3976 0 0 0 0.5 
42 1 1 2.12753 2.07544 8.32983 -78 0 0 -320.701 10.5328 19.6624 -427.06 2375.7 -1941.08 0 0 0 0.5 
759 2 2 1.42085 1.07029 9.09752 -65 0 -1 -407.619 5.22837 8.79192 1213.02 -182.598 1904.07 0 0 0 0.5 
290 1 1 3.76721 1.24125 9.63959 157 1 0 -382.285 -11.6636 9.06401 459.999 152.967 -739.57 0 0 0 0.5 
908 2 2 4.7785 2.93228 9.79051 -74 0 0 -188.801 -6.05096 10.0026 -1028.19 -1764.1 2680.22 0 0 0 0.5 
233 1 1 3.05936 2.11131 9.49256 -97 0 0 -290.098 -9.07506 25.1285 393.693 -318.499 929.454 0 0 0 0.5 
401 1 1 1.60132 4.42423 8.97809 56 0 -1 -38.9245 -20.2642 -0.81038 -570.675 705.717 1178.88 0 0 0 0.5 
999 2 2 2.81075 4.41321 9.65499 -38 0 -1 -74.576 8.29549 32.6591 -156.571 69.6839 194.345 0 0 0 0.5 
285 1 1 2.7058 2.25772 8.9087 75 0 -1 -266.163 -4.0557 -8.36356 -369.749 1774.34 -1120.44 0 0 0 0.5 
293 1 1 2.58962 1.3508 8.87078 -127 0 0 -419.81 15.0196 32.8473 260.692 -802.903 -264.771 0 0 0 0.5 
717 2 2 3.71459 1.84044 9.14755 -80 0 0 -301.791 1.1381 -33.0833 1369.75 33.7506 -844.751 0 0 0 0.5 
977 2 2 3.82674 0.355892 9.51571 100 1 -1 -468.203 -11.3673 1.99562 -2423.77 1348.34 1479.33 0 0 0 0.5 
696 2 2 0.247313 4.67074 8.85664 36 0 -1 -8.635 -1.16898 10.2521 -384.357 596.207 1919.48 0 0 0 0.5 
608 2 2 3.52413 3.60096 9.57812 -42 0 0 -131.594 2.36567 13.3273 -2042.56 352.516 131.534 0 0 0 0.5 
620 2 2 0.0295086 3.40757 8.62337 -14 0 0 -192.942 21.8162 12.0012 -765.059 329.899 1197.32 0 0 0 0.5 
929 2 2 0.807036 4.38629 8.12399 -17 0 1 -69.0607 -1.50498 16.6436 1781.83 -3018.46 -538.303 0 0 0 0.5 
904 2 2 4.17854 2.54909 8.31026 112 1 -1 -231.435 -4.54151 -15.1152 2787.62 -2025.33 -455.139 0 0 0 0.5 
222 1 1 3.47552 3.01289 8.66858 209 1 0 -149.45 -13.5876 24.7376 -530.813 1621.01 155.379 0 0 0 0.5 
722 2 2 4.347 2.1228 9.79263 -105 0 -1 -302.613 -16.1708 -2.05153 1008.2 2122.7 -149.232 0 0 0 0.5 
260 1 1 1.17636 2.03973 8.03535 -116 0 0 -301.37 0.603856 14.5661 -1151.61 386.203 1849.37 0 0 0 0.5 
868 2 2 4.36282 3.60319 9.41471 -81 0 1 -136.336 7.33241 17.8334 317.361 2193.6 -639.186 0 0 0 0.5 
249 1 1 4.0268 3.76542 8.69136 -74 0 1 -115.769 -18.0815 -24.3187 531.65 -257.026 -146.2 0 0 0 0.5 
539 2 2 2.86608 4.39366 8.26632 -95 0 0 -73.3501 15.5174 -10.8258 -690.677 516.638 -354.074 0 0 0 0.5 
887 2 2 4.22184 1.24343 8.06521 124 1 -1 -428.496 22.7271 -14.428 -233.892 740.219 2825.77 0 0 0 0.5 
618 2 2 4.042 0.53246 8.6721 -73 0 1 -506.532 14.1644 -12.9832 1219.68 -1041.11 954.004 0 0 0 0.5 
734 2 2 2.99705 3.24937 8.05664 -58 0 0 -143.453 4.86716 -6.97525 -1363.15 466.566 557.764 0 0 0 0.5 
613 2 2 2.80577 3.09598 9.13364 -38 0 0 -143.929 2.09202 25.5075 -907.398 64.4279 -1602.59 0 0 0 0.5 
581 2 2 4.53733 4.46463 9.75847 -16 0 0 -52.784 11.3877 8.41422 -2022.7 725.828 -453.417 0 0 0 0.5 
126 1 1 4.77436 0.304986 8.46038 163 1 -1 -498.05 23.7264 -2.30493 655.566 454.241 -225.422 0 0 0 0.5 
426 1 1 3.31989 9.12267 1.82722 101 0 -1 401.729 15.3773 -28.7325 5600.84 -2266.49 1878.9 0 0 0 0.5 
867 2 2 0.774879 8.76924 1.49003 33 0 0 386.082 -7.54904 4.9958 -1146.97 -570.064 238.152 0 0 0 0.5 
407 1 1 4.21326 6.94544 0.538559 28 0 0 204.862 -15.4011 3.76781 -340.069 -712.467 -288.952 0 0 0 0.5 
14 1 1 3.53501 7.35136 1.11606 19 0 1 218.512 4.83165 7.65985 45.9875 380.338 -517.287 0 0 0 0.5 
958 2 2 1.3084 9.77755 0.140343 162 0 2 483.171 19.2008 -13.9888 1191.48 595.913 -3060.2 0 0 0 0.5 
942 2 2 2.70743 8.1466 1.46299 32 0 0 323.392 20.9853 -0.473964 566.232 -89.8895 -1115.44 0 0 0 0.5 
100 1 1 2.53608 5.86608 0.926139 -15 0 0 67.7072 8.16191 -11.5914 44.3037 15.5949 77.6166 0 0 0 0.5 
481 1 1 2.06462 5.79199 0.0530438 73 0 0 72.9053 -6.81535 -11.9317 7.47161 -615.097 614.77 0 0 0 0.5 
497 1 1 2.72367 7.14617 1.51678 163 0 1 222.003 -16.879 14.1304 -426.307 -107.811 210.545 0 0 0 0.5 
685 2 2 0.623993 6.18695 0.298339 25 0 1 85.8517 6.76969 -14.2636 -455.974 -738.37 247.007 0 0 0 0.5 
960 2 2 0.282604 8.86175 0.692887 169 0 1 406.848 -12.725 -0.220083 -944.109 102.044 271.605 0 0 0 0.5 
994 2 2 3.73492 6.57629 1.64538 70 0 0 178.095 -11.4003 -0.0865262 -746.72 571.709 -431.724 0 0 0 0.5 
344 1 1 2.8533 7.05809 0.485005 70 0 0 213.053 -13.0124 6.0059 190.786 252.177 1301.12 0 0 0 0.5 
713 2 2 1.64541 9.95036 1.08828 -178 -1 1 541.388 -10.8342 2.16286 154.026 499.228 -1516.45 0 0 0 0.5 
212 1 1 0.288716 9.43914 1.61627 178 0 0 425.341 -4.95826 22.0656 -1680.75 676.673 1240.67 0 0 0 0.5 
144 1 1 4.03336 5.40507 0.309194 19 0 0 44.5768 0.006191 -1.72499 -1438.46 -1.17126 173.893 0 0 0 0.5 
644 2 2 2.81339 5.36232 1.72053 268 1 1 63.3852 2.80663 -9.29973 46.3741 117.131 23.9614 0 0 0 0.5 
242 1 1 1.58015 6.2869 0.340574 -260 -1 1 80.6228 12.4625 14.8353 213.074 2207.75 1562.15 0 0 0 0.5 
503 2 2 3.52477 8.25725 0.988102 -12 0 0 312.625 22.2991 9.40478 492.268 -451.419 -1946.32 0 0 0 0.5 
273 1 1 3.56274 8.91851 0.328513 -162 -1 2 390.473 14.0322 -0.940248 16.5553 288.323 -287.595 0 0 0 0.5 
387 1 1 2.77997 7.97873 0.394831 -166 -1 0 310.047 9.68173 3.68444 1060.46 130.937 21.1673 0 0 0 0.5 
323 1 1 3.82832 5.43792 1.44587 -213 -1 0 78.2299 -4.16279 -5.67269 -1241.74 1815.08 -1154.04 0 0 0 0.5 
385 1 1 0.841112 6.34935 1.27215 -195 -1 0 155 -11.1526 -5.36176 316.563 38.1651 -1548.35 0 0 0 0.5 
841 2 2 1.15608 7.05928 0.937618 58 0 0 218.167 -3.78932 4.05986 -904.158 -746.307 545.111 0 0 0 0.5 
301 1 1 2.11607 6.05412 1.84331 70 0 0 74.9939 14.7007 -2.44543 -159.971 -81.6965 -46.4475 0 0 0 0.5 
545 2 2 4.19404 7.81608 0.319374 109 0 -1 301.143 -7.94047 1.88805 479.662 1767.54 -159.509 0 0 0 0.5 
264 1 1 0.00323395 5.33844 1.13795 -21 0 0 69.5577 -24.1065 7.81915 -1638.13 1156.16 923.667 0 0 0 0.5 
382 1 1 0.711521 5.78177 1.79034 -168 -1 -1 101.867 -32.3472 -8.76086 1403.02 -1303.29 399.647 0 0 0 0.5 
442 1 1 1.58015 6.99441 1.93439 12 0 0 200.006 19.3046 -12.8278 -643.039 -1078.56 675.935 0 0 0 0.5 
758 2 2 1.43246 5.42 1.55637 -2 0 0 103.004 -25.6711 -7.22412 1413.99 -612.02 -671.974 0 0 0 0.5 
111 1 1 2.61689 9.61378 1.42673 115 0 0 517.156 -5.43307 -36.303 -3106.82 2766.03 -2946.89 0 0 0 0.5 
767 2 2 1.85336 9.67433 1.92606 -87 -1 1 534.204 -12.4129 -19.6375 -2384.62 3892.03 -1271.34 0 0 0 0.5 
727 2 2 1.22661 7.89405 0.818917 -23 0 1 273.52 1.52054 -9.62877 -363.707 759.428 -160.177 0 0 0 0.5 
494 1 1 1.28777 8.7135 0.818477 26 0 0 348.636 26.6915 -10.9205 1341.73 29.9525 -1740.55 0 0 0 0.5 
723 2 2 2.02378 7.01775 0.696892 98 0 0 217.089 -14.0665 7.85596 -1235.62 -1323.11 -460.027 0 0 0 0.5 
802 2 2 1.23055 8.40635 1.96996 27 0 1 365.017 0.854722 14.6247 -498.863 744.608 642.508 0 0 0 0.5 
462 1 1 0.834339 5.46436 0.788905 127 0 0 67.1309 -17.5495 7.3463 1019.4 288.184 -722.031 0 0 0 0.5 
574 2 2 1.91161 7.97804 1.71731 7 0 1 337.426 -18.7513 -4.02086 -1512.48 138.263 -269.718 0 0 0 0.5 
934 2 2 1.684 9.19465 0.178456 47 0 0 433.194 -11.8073 -15.6783 1669.71 -2659.12 227.541 0 0 0 0.5 
701 2 2 4.59477 8.66796 0.335815 75 0 0 392.165 -14.0063 5.64611 333.279 941.147 1124.04 0 0 0 0.5 
945 2 2 3.68761 8.39512 1.92898 76 0 0 373.248 -23.5535 -15.0263 -1113.58 -2086.37 1846.96 0 0 0 0.5 
605 2 2 0.616068 7.15022 0.157461 24 0 1 217.899 8.26971 0.492681 95.0371 806.227 1363.63 0 0 0 0.5 
832 2 2 2.0213 7.86897 0.874049 -10 0 0 304.331 13.7732 -5.55983 198.443 -228.63 -741.166 0 0 0 0.5 
976 2 2 4.88563 5.40577 0.206165 50 0 0 46.2118 14.638 16.1347 -76.5946 760.606 -341.138 0 0 0 0.5 
117 1 1 4.88985 8.96259 1.13775 -140 -1 0 446.576 -11.4227 17.0032 -1909.84 -130.867 962.292 0 0 0 0.5 
700 2 2 1.73731 9.53991 3.55107 90 0 0 424.3 5.82385 -9.66709 2765.38 -1944.7 -522.323 0 0 0 0.5 