# vtk DataFile Version 4.2
Generated by LIGGGHTS
ASCII
DATASET POLYDATA
POINTS 1000 float
1.51011 3.15707 0.759153 3.74766 0.122482 0.751245 2.98629 0.235046 1.07525 
1.02204 3.04963 1.55331 2.05263 3.97278 0.38585 3.31141 2.09403 1.42946 
2.45057 2.00589 0.818878 0.720445 1.28088 1.59596 0.596128 0.919898 0.319345 
1.69257 0.907135 0.480251 2.24378 2.77747 0.581621 3.46741 3.77521 0.412286 
4.84766 0.181469 1.23184 1.95482 3.18367 1.78852 0.728258 2.7698 0.392048 
4.45682 1.8789 1.47826 1.54721 1.70798 0.568664 2.81922 3.50194 1.60222 
2.40686 0.9276 0.890481 0.031286 1.71443 1.82772 0.258262 1.47696 0.879956 
0.621694 0.582408 1.1691 2.89002 4.34003 1.55091 4.35919 2.28912 0.202882 
4.47636 1.06792 1.88858 0.921339 3.94097 1.55704 1.39566 4.43839 0.699322 
3.57687 1.36385 1.43675 1.43415 4.83767 1.49901 4.54169 1.07612 0.899639 
4.02379 2.80646 0.0202534 3.58171 0.977934 0.406856 3.88503 1.80778 0.71066 
0.687711 3.60946 0.682148 3.04069 2.82599 1.12762 3.84885 0.837944 1.41242 
4.63925 3.7188 0.868321 0.772587 4.58776 0.162034 2.96126 4.64648 0.580382 
0.157654 4.87436 0.706794 0.533493 4.73598 1.50503 4.15775 2.63887 1.18768 
4.95195 4.6608 1.10129 0.865905 1.4208 2.51196 0.381031 2.21076 2.86848 
2.38221 2.38723 2.04388 2.30139 0.0482905 3.56006 1.2641 3.37106 2.44868 
1.85449 3.2429 3.27102 4.54947 1.50707 2.61944 1.94115 1.7142 3.76642 
3.15438 2.26759 2.35046 1.8071 0.479129 2.92694 3.23019 1.46254 3.64848 
2.011 1.36559 2.62829 1.78402 2.30223 3.03358 3.58993 3.1328 3.60941 
0.475298 0.644633 2.98232 4.42811 2.89514 3.65232 0.11506 3.30348 2.04145 
1.16836 0.55005 3.60092 4.05967 3.87885 3.08487 0.592297 0.241006 2.05709 
2.63028 4.06753 3.53524 4.13099 1.95227 3.85904 3.53025 4.274 3.95715 
4.27751 3.21782 2.72523 3.0532 4.90817 3.02206 -0.00843146 3.53098 3.25354 
3.74686 0.721656 3.82387 3.96632 4.92958 2.99005 3.85254 0.318381 2.24348 
3.30583 3.15832 2.40619 4.69125 1.20548 3.4243 4.01513 2.39971 2.12233 
4.74568 3.82614 2.06528 3.76637 1.04256 3.06119 0.542702 4.02864 3.9298 
1.51037 4.44669 2.3944 2.71689 2.08977 3.20052 4.19681 4.43676 2.18988 
0.248406 4.44506 3.20552 3.14416 0.227804 3.06125 0.567925 4.12308 2.41536 
4.54087 0.121514 2.5319 2.88095 0.709786 2.17056 3.79648 1.46232 2.32257 
4.4492 4.46305 3.72672 1.86884 1.10682 5.31606 2.46412 4.67805 5.52667 
1.41593 3.44217 5.08438 0.120139 0.302957 5.58543 1.73901 2.70171 4.83673 
3.98212 0.706141 5.47782 0.0799114 1.90681 4.90063 1.11391 1.18493 5.46214 
3.88974 3.55162 4.42888 1.98488 2.55236 4.06605 1.44651 0.182597 4.38122 
0.270516 1.23444 5.48107 3.65359 4.63008 4.92217 4.41834 4.46429 4.57662 
2.47221 1.97184 5.12304 2.58803 0.0529744 4.64547 0.995747 1.85819 4.5576 
2.02031 1.17558 4.40115 0.7182 0.37076 4.81271 2.23845 4.08624 4.45895 
1.80548 2.02694 5.6404 1.96377 0.355626 5.1494 0.953375 1.09019 4.21389 
1.09441 0.246304 5.65347 0.47002 4.89097 4.37269 3.20071 2.11582 5.60517 
2.96499 4.1488 4.71383 3.56754 2.80927 5.05192 0.634096 4.1772 5.68757 
3.96319 4.75683 5.85501 3.13556 3.33847 4.49274 3.1794 4.23085 5.64761 
2.67873 0.921229 5.77537 4.75665 1.42332 4.34913 2.74597 3.32894 5.67052 
3.08149 0.904662 4.44239 4.16049 0.451466 4.56789 1.60945 4.21504 5.30315 
0.482819 3.39893 4.72908 4.62086 2.71145 5.49215 2.84051 2.43423 4.09005 
4.35482 4.11251 5.4421 3.69551 1.49133 5.49029 3.26808 1.85053 4.67231 
4.6476 1.48444 5.59932 4.92016 2.7383 4.55659 0.830703 0.847858 7.23491 
1.80297 0.231316 7.98557 0.765355 0.280835 6.45549 1.1916 3.58914 7.50595 
0.926391 3.19413 6.40244 2.52866 0.188151 6.41948 2.06574 1.71901 7.82996 
2.16779 2.2025 6.6299 2.02047 1.26554 7.0493 1.38723 2.10524 6.97402 
1.8389 4.12922 6.25723 0.29573 2.6223 7.75014 1.67282 0.222961 6.72017 
4.28377 3.54586 7.74044 1.71875 3.12148 7.00462 0.52449 1.64541 7.432 
1.09422 1.34511 6.40578 2.4739 3.64851 6.17868 2.10769 1.51805 6.10748 
4.73023 3.06767 7.47319 1.50208 2.73654 6.02085 2.43937 3.83523 6.99928 
1.78971 2.61537 7.78027 3.7762 4.17506 7.74227 0.964591 4.26304 6.54868 
3.42228 2.73418 6.23069 3.71492 3.74561 6.7365 4.42571 1.04548 6.5122 
2.79371 1.25973 6.62294 3.83766 2.17035 7.10745 0.241883 4.52015 6.69339 
3.66796 1.42339 6.47847 3.37266 0.510631 6.05391 0.444197 3.31012 7.00029 
3.15622 0.643301 7.12398 2.09047 4.97584 7.67885 4.22508 0.619985 7.51125 
2.76408 2.84868 6.26257 3.1534 4.29312 6.61562 2.93669 2.14952 6.80564 
0.545476 4.14036 7.44756 4.8109 4.785 6.37506 3.02841 3.83545 7.68026 
4.48473 3.61522 6.20348 3.09381 0.137506 7.80591 1.68847 4.39818 7.11786 
2.59223 4.62764 7.43806 2.89579 1.59991 7.48342 2.99956 2.54744 7.68584 
3.83791 1.30445 7.41279 3.91631 0.140437 6.54456 4.03366 3.06426 6.87643 
4.04224 2.25041 6.1071 4.7543 2.14657 6.97539 4.95441 3.93409 7.0043 
1.11617 0.639104 9.50699 2.58646 1.08324 9.80687 3.67081 1.83311 8.4887 
0.585431 2.69469 9.00569 2.4498 1.99528 9.14711 1.15258 2.75431 9.69277 
0.172758 0.562194 9.62865 0.0654988 1.48969 8.32355 4.49797 3.5579 9.75876 
3.00033 1.1678 8.99086 0.939716 2.2684 8.34996 2.21606 3.36931 8.32958 
4.58082 0.846028 9.19605 1.66554 2.85559 9.00932 1.61629 2.05367 9.67178 
1.68206 2.03284 8.53266 2.36269 4.21369 8.96124 3.2449 3.46462 8.57764 
1.34959 0.631792 8.37629 1.21339 1.3359 8.00629 0.427013 1.50739 9.18847 
2.10525 0.359001 8.95753 1.7684 4.07617 9.54962 3.24271 4.46156 9.73135 
2.70097 4.30206 8.26977 4.65898 3.90416 8.53744 3.92713 1.11259 8.62208 
4.52233 0.593472 8.29175 0.341512 3.22511 9.71561 1.22242 4.17864 8.23724 
3.66414 2.3454 9.28524 0.882011 4.00998 9.55287 3.99112 3.2478 8.60017 
3.72399 0.0771131 9.78589 2.72074 1.69764 8.38854 4.0231 4.18919 9.44879 
2.2005 0.311761 9.97903 3.05478 2.01249 9.9172 1.73467 4.92503 9.87813 
3.37593 4.40782 8.83695 4.24689 2.71062 8.29231 3.59928 1.44354 9.63396 
3.22687 1.03101 8.05051 0.368518 3.5337 8.70764 3.55701 0.537593 9.20772 
3.59573 3.23843 9.48296 0.601832 4.72269 8.13344 0.642858 4.65395 8.98772 
3.41321 2.51236 8.47691 4.83289 2.37166 8.18655 4.97821 1.61852 9.9181 
3.96106 9.29111 1.94756 0.725319 8.42331 1.59861 1.27456 9.98514 1.92582 
3.90238 9.37455 0.143761 3.41171 6.7272 1.86498 3.75375 8.40337 1.66584 
1.5149 9.80208 0.810908 4.38142 6.7728 1.71456 2.84723 6.81551 1.1895 
3.83077 5.34093 0.756517 2.85397 7.43819 0.668722 4.84636 9.38465 1.54382 
3.07618 5.21428 1.38245 2.18632 6.3881 0.394617 0.699555 9.22968 1.2545 
2.62795 9.33328 0.961518 1.19549 8.01797 0.949082 3.00288 7.75233 1.53379 
1.83019 8.8836 0.617375 0.710985 9.98566 0.631115 3.1475 5.6009 0.422672 
3.00114 8.39677 0.662255 1.97629 5.85022 1.21193 2.25853 5.44351 1.78413 
4.77712 9.28671 0.318048 2.74226 5.94532 0.998477 3.80287 8.4326 0.251222 
1.85344 7.74156 1.66901 4.30759 5.85591 1.4332 4.74813 5.46391 0.238656 
4.73272 5.25674 1.95577 1.54615 5.55881 0.275567 0.422769 6.34956 0.635589 
4.70508 8.58582 0.978336 0.642922 5.62437 1.21386 3.74916 7.63777 0.844345 
4.12488 7.5929 1.98381 1.57226 7.07107 0.3405 1.53341 6.45376 1.14742 
0.690888 7.25661 0.623303 0.742935 5.66462 0.230382 4.55725 7.52052 1.1846 
4.92596 7.2741 0.384204 1.62082 8.22286 3.48082 2.3521 9.80039 2.5463 
2.72155 9.19959 3.26715 4.34015 8.23533 2.94923 0.784046 8.54153 3.14421 
1.54057 6.91407 2.00347 4.53348 8.81643 3.68799 3.19848 7.34949 3.82848 
0.321849 5.24924 3.18746 4.14383 5.17691 3.88276 0.983408 9.37108 2.88319 
2.40477 6.69785 2.02055 0.731626 9.32148 3.76375 3.44824 5.34791 2.25404 
0.57155 5.02407 2.37342 0.207747 8.55385 2.35133 0.27145 9.7115 2.90947 
3.73827 6.67656 3.80921 2.88772 8.47948 2.09904 0.43155 5.99372 3.68872 
3.45282 8.17795 3.00846 3.22328 5.93815 3.24588 2.54879 7.09022 3.18736 
0.730047 7.64657 2.32143 0.0881535 5.75339 2.50042 0.723643 7.02454 3.29494 
0.721096 6.66853 2.36736 3.47134 7.16493 2.75292 2.5944 8.17026 3.41398 
1.60615 7.19692 3.11378 2.56267 7.58094 2.43039 1.28395 5.92691 3.34246 
0.99103 5.83812 2.29248 2.26229 7.50224 3.93838 4.30617 7.29176 3.24221 
3.44099 9.04044 2.67857 4.49448 7.91619 3.945 2.33428 5.96589 3.14984 
1.81789 6.43276 2.6783 2.00286 8.24674 2.52648 2.86452 5.98434 2.32816 
3.66161 9.84712 3.7658 4.05437 6.34818 2.75838 4.17034 9.4725 3.17703 
4.21453 5.94272 3.49394 4.73468 6.08734 2.30663 2.1574 8.27252 4.36491 
3.93901 5.45702 4.68975 3.31185 9.91394 5.28542 0.597464 5.9971 5.62248 
1.6414 9.46521 4.07784 3.01467 5.60532 5.44486 2.66074 8.23351 5.12739 
0.771831 6.82868 4.2037 2.96746 5.0772 4.03711 3.37503 8.35151 4.27746 
2.69084 5.92433 4.01728 4.53896 8.33235 5.57896 1.13973 8.81653 4.84435 
4.43856 6.62554 4.18893 0.120427 9.78601 4.21754 3.36544 7.8799 5.43161 
3.7103 9.25769 5.08466 4.49236 7.06317 5.23832 4.05428 9.32965 4.28454 
0.70969 8.37444 4.06627 2.71012 6.14832 4.95251 1.35876 6.54529 5.16598 
3.05033 9.08659 4.30078 1.02378 9.39307 5.47517 4.06789 8.95798 5.74816 
2.4067 6.03455 5.94357 1.75752 5.61644 4.08566 2.51304 6.72011 4.31524 
2.15758 6.60943 5.24043 2.10758 9.70604 5.57643 0.710087 5.48347 4.90293 
0.169205 7.44574 4.04715 2.028 9.13483 4.76554 1.5792 6.53606 4.23667 
4.60202 6.09051 5.12151 1.4837 8.04092 5.07026 2.36463 5.02853 4.77889 
1.43388 5.16853 5.85513 2.53243 8.97751 5.80802 2.38003 7.40084 4.82433 
1.78413 7.35116 5.54821 1.84372 5.63769 5.01228 0.209764 6.73443 5.8601 
0.479099 7.35101 4.89349 4.32211 7.91981 4.78612 4.94193 5.48316 4.50519 
4.91266 5.33829 5.45381 2.47777 5.05638 6.37101 0.0446381 9.24858 7.8498 
0.444073 9.29643 6.19508 2.22002 6.78512 7.63612 0.232468 5.3912 7.25942 
3.322 8.25015 7.46541 4.04059 7.01541 6.09562 1.41379 8.06779 6.02739 
1.38945 6.06313 6.96006 0.156744 8.35189 6.30458 3.88975 9.33472 6.62219 
0.748956 9.92768 7.458 2.85341 9.01186 7.42923 1.96284 9.6581 7.20785 
2.64757 7.4244 6.84845 3.80302 9.73631 7.63038 2.75186 6.27855 7.78868 
3.14105 7.26274 6.0693 0.386469 6.16712 7.79876 4.81405 6.87316 7.78498 
2.72546 8.33577 6.8805 3.00716 9.57075 6.61088 3.36984 6.68654 7.09339 
4.41812 7.60648 7.18023 3.30249 8.86707 6.01756 4.57809 8.87731 6.70701 
[...]
POINT_DATA 1000
FIELD FieldData 7
id 1 1000 int
293 701 583 130 96 541 450 25 853 
108 162 870 738 339 868 527 41 654 
443 768 812 713 944 1000 439 18 401 
828 213 526 374 762 80 98 67 368 
327 138 38 696 75 530 710 389 278 
603 901 361 835 952 660 428 925 575 
566 216 21 967 486 148 309 999 523 
182 247 266 770 195 751 193 902 434 
767 514 606 803 877 64 406 809 808 
871 802 592 367 420 354 88 228 971 
620 308 478 338 7 258 12 282 673 
959 609 488 629 131 612 295 940 789 
865 466 918 352 939 524 104 666 415 
586 254 667 93 702 516 78 907 826 
995 132 364 459 390 844 253 816 31 
705 783 157 311 709 314 932 813 408 
955 393 65 257 611 596 780 58 260 
101 200 481 983 142 974 650 961 700 
754 890 550 283 55 926 167 651 105 
307 734 487 496 836 697 5 373 305 
608 35 139 899 355 42 285 163 529 
329 968 17 410 904 863 750 639 621 
310 806 318 425 577 711 573 484 321 
648 721 210 708 391 91 433 929 804 
378 795 241 740 912 827 633 935 766 
4 905 886 48 33 233 887 106 298 
218 725 11 743 533 2 548 736 916 
776 497 578 273 302 627 755 127 503 
461 976 118 248 914 997 719 689 392 
170 472 742 45 409 73 852 894 242 
264 458 534 855 587 946 532 928 758 
34 739 194 279 324 664 677 133 963 
112 659 473 62 231 985 396 712 850 
864 212 440 866 724 442 63 600 477 
945 179 145 340 801 996 841 449 752 
839 114 682 948 143 846 571 111 885 
280 994 576 176 849 630 460 337 50 
395 631 81 669 370 499 990 512 500 
859 43 790 164 558 594 556 432 255 
19 695 777 94 351 522 898 749 720 
837 874 490 872 402 342 847 781 818 
70 622 610 174 535 552 511 306 388 
687 103 753 869 175 937 146 54 756 
773 793 498 636 688 13 970 119 878 
463 262 371 491 694 53 714 706 570 
184 772 979 584 448 451 474 331 678 
436 796 567 304 881 964 281 618 879 
728 134 637 632 537 386 27 693 585 
830 259 359 286 858 595 716 457 438 
223 662 135 607 123 679 68 246 973 
547 129 453 240 315 66 422 519 72 
520 296 209 417 330 60 834 341 252 
769 446 277 699 382 23 626 426 765 
270 47 147 568 876 181 975 597 39 
977 482 778 159 746 427 165 690 90 
445 613 22 250 953 569 819 214 183 
358 322 978 744 722 265 9 908 20 
644 416 958 421 155 984 430 616 350 
797 930 581 483 833 842 951 731 217 
715 207 957 110 875 333 464 579 895 
923 480 172 598 821 346 454 966 763 
513 400 413 418 284 301 823 56 51 
989 312 860 760 933 399 557 405 851 
785 911 782 931 196 153 269 741 267 
232 564 288 889 794 180 161 332 117 
947 189 829 126 540 913 658 251 661 
495 292 10 1 909 980 493 102 786 
92 40 82 641 798 593 921 345 492 
922 572 747 190 531 328 896 185 320 
394 61 501 674 224 86 862 619 456 
204 79 624 113 647 544 625 168 917 
291 347 115 726 640 169 910 74 502 
733 988 987 211 201 521 645 703 737 
16 353 24 992 383 891 222 717 220 
437 845 452 506 84 748 509 580 671 
447 441 956 348 784 880 375 485 927 
290 861 539 208 229 614 249 759 510 
120 199 761 656 121 125 237 173 652 
972 787 465 590 941 857 810 268 150 
149 177 186 843 954 403 555 317 582 
543 549 316 136 95 623 675 938 764 
419 357 934 942 655 462 670 723 192 
574 141 49 663 986 455 856 920 563 
343 832 683 649 263 545 698 924 303 
274 29 144 385 685 152 561 779 424 
323 366 412 692 591 638 615 775 817 
883 171 404 137 380 300 542 299 634 
197 799 727 313 602 969 691 234 950 
387 444 275 704 680 653 178 476 820 
962 227 560 235 8 156 825 489 518 
906 243 792 407 85 919 100 76 617 
414 151 14 83 3 334 745 26 505 
800 562 884 536 642 238 604 335 897 
230 504 788 475 435 867 982 166 814 
160 221 431 771 893 203 628 376 363 
707 900 6 469 15 848 729 601 791 
479 384 398 873 732 215 718 319 261 
356 757 271 244 336 507 657 99 551 
838 811 892 831 888 643 158 515 97 
991 546 665 517 981 943 599 362 423 
822 191 565 297 528 107 44 122 154 
276 468 508 915 676 36 206 59 807 
245 553 730 294 672 289 684 256 188 
71 140 219 470 805 965 57 686 646 
525 187 325 272 239 538 32 52 128 
37 936 429 377 28 668 30 344 589 
365 89 379 960 372 882 588 287 198 
554 815 559 369 774 993 854 903 998 
202 226 605 109 77 635 46 381 840 
124 735 349 494 326 411 236 397 824 
225 205 87 471 116 467 949 681 360 
69 
type 1 1000 int
1 2 2 1 1 2 1 1 2 
1 1 2 2 1 2 2 1 2 
1 2 2 2 2 2 1 1 1 
2 1 2 1 2 1 1 1 1 
1 1 1 2 1 2 2 1 1 
2 2 1 2 2 2 1 2 2 
2 1 1 2 1 1 1 2 2 
1 1 1 2 1 2 1 2 1 
2 2 2 2 2 1 1 2 2 
2 2 2 1 1 1 1 1 2 
2 1 1 1 1 1 1 1 2 
2 2 1 2 1 2 1 2 2 
2 1 2 1 2 2 1 2 1 
2 1 2 1 2 2 1 2 2 
2 1 1 1 1 2 1 2 1 
2 2 1 1 2 1 2 2 1 
2 1 1 1 2 2 2 1 1 
1 1 1 2 1 2 2 2 2 
2 2 2 1 1 2 1 2 1 
1 2 1 1 2 2 1 1 1 
2 1 1 2 1 1 1 1 2 
1 2 1 1 2 2 2 2 2 
1 2 1 1 2 2 2 1 1 
2 2 1 2 1 1 1 2 2 
1 2 1 2 2 2 2 2 2 
1 2 2 1 1 1 2 1 1 
1 2 1 2 2 1 2 2 2 
2 1 2 1 1 2 2 1 2 
1 2 1 1 2 2 2 2 1 
1 1 2 1 1 1 2 2 1 
1 1 2 2 2 2 2 2 2 
1 2 1 1 1 2 2 1 2 
1 2 1 1 1 2 1 2 2 
2 1 1 2 2 1 1 2 1 
2 1 1 1 2 2 2 1 2 
2 1 2 2 1 2 2 1 2 
1 2 2 1 2 2 1 1 1 
1 2 1 2 1 1 2 2 1 
2 1 2 1 2 2 2 1 1 
1 2 2 1 1 2 2 2 2 
2 2 1 2 1 1 2 2 2 
1 2 2 1 2 2 2 1 1 
2 1 2 2 1 2 1 1 2 
2 2 1 2 2 1 2 1 2 
1 1 1 1 2 1 2 2 2 
1 2 2 2 1 1 1 1 2 
1 2 2 1 2 2 1 2 2 
2 1 2 2 2 1 1 2 2 
2 1 1 1 2 2 2 1 1 
1 2 1 2 1 2 1 1 2 
2 1 1 1 1 1 1 2 1 
2 1 1 1 1 1 2 1 1 
2 1 1 2 1 1 2 1 2 
1 1 1 2 2 1 2 2 1 
2 1 2 1 2 1 1 2 1 
1 2 1 1 2 2 2 1 1 
1 1 2 2 2 1 1 2 1 
2 1 2 1 1 2 1 2 1 
2 2 2 1 2 2 2 2 1 
2 1 2 1 2 1 1 2 2 
2 1 1 2 2 1 1 2 2 
2 1 1 1 1 1 2 1 1 
2 1 2 2 2 1 2 1 2 
2 2 2 2 1 1 1 2 1 
1 2 1 2 2 1 1 1 1 
2 1 2 1 2 2 2 1 2 
1 1 1 1 2 2 1 1 2 
1 1 1 2 2 2 2 1 1 
2 2 2 1 2 1 2 1 1 
1 1 2 2 1 1 2 2 1 
1 1 2 1 2 2 2 1 2 
1 1 1 2 2 1 2 1 2 
2 2 2 1 1 2 2 2 2 
1 1 1 2 1 2 1 2 1 
1 2 1 2 1 2 2 2 2 
1 1 2 1 2 2 1 1 2 
1 2 2 1 1 2 1 2 2 
1 1 2 2 1 1 1 1 2 
2 2 1 2 2 2 2 1 1 
1 1 1 2 2 1 2 1 2 
2 2 1 1 1 2 2 2 2 
1 1 2 2 2 1 2 2 1 
2 1 1 2 2 1 2 2 2 
1 2 2 2 1 2 2 2 1 
1 1 1 1 2 1 2 2 1 
1 1 1 2 2 2 2 2 2 
2 1 1 1 1 1 2 1 2 
1 2 2 1 2 2 2 1 2 
1 1 1 2 2 2 1 1 2 
2 1 2 1 1 1 2 1 2 
2 1 2 1 1 2 1 1 2 
1 1 1 1 1 1 2 1 2 
2 2 2 2 2 1 2 1 2 
1 2 2 1 1 2 2 1 2 
1 1 1 2 2 1 2 1 1 
2 2 1 1 1 2 2 2 2 
1 1 1 2 2 1 2 1 1 
1 2 1 1 1 2 2 1 2 
2 2 2 2 2 2 1 2 1 
2 2 2 2 2 2 2 1 1 
2 1 2 1 2 1 1 1 1 
1 1 2 2 2 1 1 1 2 
1 2 2 1 2 1 2 1 1 
1 1 1 1 2 2 1 2 2 
2 1 1 1 1 2 1 1 1 
1 2 1 1 1 2 1 1 2 
1 1 1 2 1 2 2 1 1 
2 2 2 1 2 2 2 2 2 
1 1 2 1 1 2 1 1 2 
1 2 1 1 1 1 1 1 2 
1 1 1 1 1 1 2 2 1 
1 
i 3 1000 int
-140 0 1 93 1 0 -127 0 1 
-51 0 0 -97 0 0 182 1 0 
145 1 0 -126 0 0 170 1 0 
-163 0 1 157 1 0 0 0 1 
209 1 1 -68 0 1 -87 0 2 
6 0 0 -169 0 0 -78 0 1 
123 1 0 -132 0 -1 28 0 1 
-196 0 1 -85 0 1 -97 0 0 
-64 0 0 -46 0 1 54 0 0 
-51 0 1 244 1 1 -122 0 1 
-27 0 1 -118 0 1 -51 0 1 
-49 0 0 240 1 1 35 1 0 
-53 0 0 -50 0 1 -79 0 1 
34 0 0 210 1 1 -75 0 2 
95 0 0 -80 0 0 198 1 -1 
200 1 0 -127 0 0 -54 0 0 
-47 0 1 8 0 0 -1 0 0 
-81 0 1 121 1 0 144 1 -1 
251 1 1 -128 0 1 -89 0 1 
177 1 -1 193 1 1 -27 0 1 
78 1 0 -40 0 0 -126 0 1 
51 0 -1 -166 0 0 -213 -1 0 
-57 0 0 -202 -1 1 163 1 1 
182 1 0 246 1 1 -108 0 0 
-101 0 1 -84 0 0 -132 0 -1 
207 1 0 201 1 1 47 0 -1 
-62 0 1 177 1 0 88 0 0 
-11 0 0 44 1 1 -29 0 0 
131 1 -1 -11 0 1 -52 0 1 
64 0 0 -113 0 1 51 0 0 
-20 0 0 -77 0 1 -17 0 1 
110 1 0 -69 0 0 -111 0 1 
-93 0 0 209 1 0 138 1 -1 
143 1 0 -44 0 0 -117 0 1 
-157 0 -1 95 1 0 -22 0 1 
126 1 -1 0 0 -1 -72 0 0 
-104 0 -1 99 1 0 -105 0 0 
-92 0 0 -47 0 0 -67 0 1 
-3 0 0 18 0 0 -3 0 -1 
237 1 0 -4 0 0 -41 0 0 
131 1 -1 200 1 0 -104 0 1 
-17 0 1 -120 0 0 270 1 0 
-131 0 1 50 0 0 -53 0 0 
13 0 0 123 1 -1 163 1 0 
-200 0 0 -10 0 0 156 1 0 
-147 0 0 -69 0 1 -57 0 0 
-19 0 0 136 1 0 -92 0 0 
-73 0 0 206 1 0 -19 0 -1 
10 0 1 96 1 -1 -67 0 0 
-45 0 0 -43 0 0 -92 0 0 
-153 0 0 44 0 -1 -127 0 0 
-103 0 0 -130 0 0 71 0 -1 
4 0 -1 -97 0 -1 341 1 0 
-48 0 0 -13 0 0 110 1 0 
-107 0 0 -40 0 -1 52 0 0 
-148 0 0 122 1 0 153 1 0 
178 1 -1 25 0 -1 146 1 0 
210 1 -1 -63 0 0 -124 0 -1 
88 0 -1 137 0 -1 -27 0 -1 
27 0 -1 -148 0 -1 65 0 -1 
-46 0 0 -136 0 1 -37 0 0 
-137 0 -1 143 1 0 -87 0 0 
64 0 -1 174 1 0 -21 0 0 
-126 0 0 229 1 0 -111 0 -1 
-53 0 -1 142 1 -1 -58 0 0 
-127 0 0 86 1 0 2 0 0 
73 1 0 -93 0 0 -83 0 0 
-145 0 0 176 1 -1 128 1 -1 
-112 0 0 32 0 0 -9 0 -1 
205 1 0 193 1 0 153 1 -1 
-142 0 0 -4 0 -1 -11 0 -1 
197 1 -1 -22 0 1 -161 0 -1 
-156 0 0 -86 0 -1 297 1 1 
-72 0 0 11 0 -1 -52 0 0 
-161 0 0 -66 0 0 -68 0 0 
-158 0 -1 -63 0 -1 291 1 -1 
81 0 -1 242 1 0 -109 0 0 
149 1 -1 -57 0 -1 -130 0 -1 
10 0 -1 -36 0 -1 -20 0 -1 
-63 0 0 273 1 -1 -46 0 0 
-125 -1 1 -239 -1 2 -108 -1 0 
-136 -1 1 172 0 1 109 0 0 
-186 -1 2 112 0 0 -2 0 0 
-46 0 0 -138 -1 1 5 0 0 
266 1 0 55 0 0 167 0 1 
-241 -1 0 39 0 1 43 0 1 
159 0 1 -125 -1 1 -14 0 0 
137 0 0 8 0 1 4 0 -1 
101 0 1 336 1 1 7 -1 0 
-186 -1 1 11 0 0 -296 -1 1 
-20 0 0 37 0 0 46 0 1 
-240 -1 0 -21 0 1 88 0 0 
53 0 0 17 0 0 2 0 0 
159 0 1 23 0 0 -253 -1 0 
398 1 0 121 0 0 106 0 0 
4 0 1 139 0 1 90 0 0 
10 0 0 -116 -1 0 50 0 0 
-44 0 0 -37 0 1 77 0 0 
-22 0 1 106 0 0 94 0 1 
-28 0 1 193 0 0 -4 -1 0 
38 0 -1 -199 -1 0 20 0 0 
93 0 0 -31 0 1 118 0 0 
88 0 0 117 0 0 157 0 0 
13 0 0 -245 -1 -1 -78 -1 0 
69 0 0 22 0 0 23 0 -1 
-26 0 1 -235 -1 -1 36 0 0 
229 0 0 97 0 0 -44 0 1 
52 0 1 132 0 0 38 0 0 
-127 -1 0 78 0 0 95 0 0 
70 0 1 40 0 1 91 0 0 
-19 0 0 147 0 0 36 0 0 
115 0 0 34 0 0 56 0 1 
-268 -1 0 -17 0 0 67 0 0 
12 0 0 59 0 -1 45 0 0 
-195 -1 1 -118 -1 0 -173 -1 0 
64 0 -1 69 0 0 -133 -1 1 
120 0 -1 49 0 0 -147 -1 1 
-114 -1 0 91 0 0 -170 -1 -1 
-6 0 0 -1 0 1 -11 0 1 
-41 0 0 -205 -1 0 46 0 -1 
-208 -1 0 106 0 0 -201 -1 0 
-4 0 0 -173 -1 0 -11 0 1 
25 0 0 170 0 0 141 0 0 
90 0 0 56 0 0 47 0 -1 
87 0 -1 119 0 0 74 0 -1 
-22 0 -1 81 0 -1 -182 -1 0 
161 0 0 16 0 0 68 0 0 
-19 0 0 29 0 -1 -79 -1 0 
-9 0 0 69 0 0 -102 -1 1 
-98 -1 -1 158 0 -1 187 0 0 
-145 -1 0 -36 -1 1 17 0 -1 
204 0 -1 1 0 0 147 0 0 
159 0 0 -171 -1 0 -24 0 0 
91 0 -1 -212 -1 0 59 0 0 
374 1 0 63 0 0 -240 -1 1 
55 0 0 -61 0 1 92 0 0 
-97 -1 0 26 0 0 30 0 1 
62 0 0 -10 0 -1 31 0 -1 
69 0 0 20 0 -1 28 0 0 
-161 -1 0 -12 0 -1 69 0 -1 
-7 0 -1 -94 -1 1 161 0 1 
27 0 0 -140 -1 0 -105 -1 1 
28 0 -1 131 0 0 100 0 -1 
-141 -1 0 60 0 -1 -122 -1 0 
273 1 -1 -142 -1 -2 -16 0 0 
81 0 0 -4 0 -1 114 0 0 
-37 0 -1 42 0 -1 13 0 -1 
9 0 -1 -95 -1 1 5 0 -1 
81 0 0 -23 0 -1 -13 0 -1 
116 0 0 194 0 0 -10 0 0 
57 0 -1 -191 -1 -1 60 0 -1 
-176 -1 0 58 0 0 -86 -1 0 
-256 -1 -2 -139 -1 -1 177 0 0 
69 0 0 58 0 -2 -245 -1 -1 
107 0 0 71 0 -1 48 0 0 
54 0 0 14 0 -1 157 1 1 
-39 0 1 -46 0 1 -140 0 1 
30 0 -1 -209 -1 -1 -126 0 1 
-57 0 -1 119 1 -1 227 1 0 
-98 0 1 -119 0 0 -119 0 0 
-67 0 0 -81 0 1 118 1 0 
193 1 1 -107 0 1 -98 0 0 
122 1 0 60 1 0 -151 0 1 
226 1 0 -35 0 0 -32 0 0 
34 0 0 124 1 0 52 0 0 
-32 0 0 -46 0 1 145 1 0 
-53 0 1 88 0 0 212 1 0 
-57 0 1 -21 0 0 108 1 -1 
-60 0 0 129 1 0 30 0 0 
156 1 0 -114 0 0 -64 0 1 
265 1 0 -80 0 1 -198 0 0 
308 1 1 -98 0 0 181 1 2 
181 1 0 38 0 1 183 1 1 
-19 0 1 -35 0 1 177 1 0 
185 1 0 -42 0 0 -19 0 1 
155 1 0 -12 0 0 -122 0 1 
-42 0 0 293 1 0 -62 0 0 
153 1 0 179 1 1 44 0 0 
-85 0 1 -45 0 1 -26 0 0 
22 0 0 -46 0 0 -81 0 0 
149 1 0 -107 0 2 -172 0 0 
-67 0 1 186 1 0 220 1 0 
203 1 0 -67 0 1 83 1 1 
-79 0 0 -130 0 0 -43 0 0 
-133 0 1 -99 0 0 70 0 0 
216 1 -1 -54 0 0 -6 0 1 
68 0 0 9 0 1 -28 0 1 
-54 0 1 -27 0 0 -124 0 -1 
158 1 0 8 0 0 -154 0 0 
284 1 1 -219 -1 -1 82 0 -1 
30 0 0 226 1 0 24 0 0 
-151 0 0 -111 0 0 -149 0 0 
-80 0 1 20 0 0 -33 0 -1 
2 0 0 2 0 0 1 0 0 
1 0 1 -137 0 0 -163 0 0 
-4 0 1 188 1 0 -64 0 0 
188 1 -1 -237 -1 0 -15 0 0 
-57 0 0 -71 0 0 -69 0 -1 
-73 0 1 -309 -1 -1 -158 0 1 
-201 0 -1 -92 0 1 158 1 1 
200 1 0 -16 0 -1 -149 0 1 
73 1 0 -39 0 0 40 0 -1 
-33 0 0 -167 0 0 19 0 1 
-70 0 1 187 1 0 -146 0 0 
30 0 0 -85 0 0 -189 0 0 
-43 0 1 -66 0 0 35 0 -1 
-14 0 -1 8 0 0 51 0 0 
160 1 -1 -133 0 0 164 1 0 
-51 0 0 -150 0 0 -34 0 1 
-47 0 0 -69 0 1 -68 0 0 
-141 0 1 -107 0 1 15 0 -1 
43 0 -1 -95 0 0 -3 0 0 
-36 0 0 59 1 0 36 0 0 
-118 0 0 -12 0 -1 133 1 -1 
139 1 -1 -122 0 0 221 1 0 
-49 0 1 0 0 0 -135 0 0 
118 0 -1 17 0 0 178 1 0 
161 1 0 -77 0 0 -82 0 0 
122 1 -1 -151 0 0 -61 0 0 
-119 0 0 123 1 0 177 1 -1 
-139 0 0 -79 0 0 17 0 -1 
240 1 0 -92 0 0 274 1 0 
-93 0 -1 -31 0 0 25 0 0 
-100 0 0 114 0 0 204 1 -1 
-110 0 0 182 1 0 -25 0 0 
57 0 0 48 0 0 -93 0 0 
-27 0 0 -54 0 1 7 0 0 
175 1 -1 -106 0 1 21 0 0 
182 1 0 -52 0 0 -100 0 0 
-30 0 0 -128 0 0 133 1 0 
-78 0 1 -80 0 -1 -51 0 -1 
-151 0 -1 -225 0 -1 -137 0 0 
-105 0 0 224 1 -1 -250 -1 0 
-112 0 0 172 1 0 -35 0 0 
14 0 -1 -62 0 0 -22 0 0 
-21 0 -1 -29 0 -1 -24 0 -1 
42 0 0 40 0 -1 94 1 -1 
-19 0 -1 55 0 0 165 1 -1 
-33 0 0 189 1 -1 -10 0 -1 
-31 0 -1 -7 0 0 -8 0 -1 
-157 0 0 -148 0 -1 -129 0 -1 
2 0 -1 -21 0 0 -55 0 0 
-68 0 -1 15 0 -1 -46 0 0 
117 0 0 -240 -1 1 62 0 0 
47 0 0 -225 -1 1 131 0 0 
-84 -1 1 106 0 0 29 0 1 
15 0 1 -81 -1 1 -4 0 1 
87 0 0 59 0 1 22 0 0 
-167 -1 1 -190 -1 1 33 0 1 
-70 -1 1 1 0 0 62 0 0 
44 0 1 -83 -1 1 120 0 -1 
74 0 0 -50 0 1 154 0 1 
-205 -1 -1 111 0 0 20 0 0 
-230 -1 0 28 0 1 47 0 1 
71 0 0 -2 0 0 -24 0 1 
-251 -1 0 -11 0 1 -230 -1 1 
166 0 0 -274 -1 1 67 0 -1 
162 0 0 -151 -1 0 45 0 0 
5 0 0 -23 0 0 11 0 1 
-177 -1 0 -45 0 1 112 0 -1 
-211 -1 1 16 0 0 85 0 -1 
106 0 0 137 0 0 -13 0 1 
-158 -1 -1 143 0 0 124 0 0 
178 1 0 -55 0 0 25 0 -1 
-195 -1 0 78 0 1 -141 -1 0 
111 0 -1 -155 -1 0 257 1 0 
59 0 0 -105 -1 1 -136 -1 0 
-142 -1 0 -129 -1 1 54 0 0 
14 0 0 75 0 1 49 0 0 
125 0 -1 91 0 -1 -200 -1 0 
92 0 0 -59 0 0 220 1 0 
36 0 0 85 0 1 -130 -1 0 
-11 0 0 113 0 1 86 0 1 
135 0 0 -11 0 0 27 0 1 
160 0 0 57 0 0 80 0 0 
-50 -1 1 153 0 0 -172 -1 0 
300 1 0 126 0 1 68 0 0 
-173 -1 0 -237 -1 0 -224 -1 0 
100 0 1 -99 -1 0 54 0 0 
105 0 0 72 0 0 86 0 0 
62 0 0 50 0 -1 46 0 0 
60 0 -1 59 0 -1 -196 -1 1 
93 0 0 93 0 0 -107 -1 -1 
-144 -1 0 12 0 0 -163 -1 0 
37 0 1 -175 -1 0 53 0 -1 
-336 -1 0 -154 -1 0 26 0 -1 
148 0 0 -120 -1 2 -205 -1 1 
180 0 1 105 0 0 46 0 -1 
76 0 0 -26 0 0 105 0 -1 
-173 -1 0 -260 -1 1 75 0 0 
-188 -1 0 18 0 -1 -9 0 0 
33 0 0 76 0 0 -51 0 0 
-327 -1 0 100 0 0 -154 -1 0 
97 0 0 -173 -1 -1 17 0 0 
3 0 1 55 0 0 54 0 -1 
71 0 0 363 1 0 13 0 1 
-61 -1 1 -207 -1 -1 20 0 0 
71 0 0 27 0 0 130 0 1 
-6 0 0 102 0 -1 -136 -1 0 
80 0 -1 53 0 0 -226 -1 0 
-111 -1 0 148 0 0 -101 -1 0 
120 0 -1 84 0 -1 -217 -1 1 
77 0 -1 111 0 0 3 0 0 
-209 -1 0 9 0 0 -286 -1 0 
57 0 0 117 0 -1 -210 -1 -1 
-52 0 1 85 0 -1 -92 -1 0 
-26 0 0 -258 -1 1 -171 -1 -1 
82 0 0 -21 0 -1 -220 -1 -1 
59 0 0 10 0 0 12 0 0 
86 0 0 107 0 0 13 0 -1 
98 0 -1 -115 -1 -1 66 0 -1 
136 0 0 57 0 -1 -56 0 0 
-235 -1 -1 -69 0 0 125 0 -2 
-176 -1 -1 -273 -1 0 212 0 0 
191 0 -1 171 0 0 60 0 0 
-299 -1 -1 27 0 0 0 0 0 
-261 -1 1 57 0 -1 6 0 0 
27 0 0 75 0 -1 83 0 0 
-200 -1 -1 -135 -1 0 -162 -1 0 
184 0 0 -135 -1 0 -6 0 0 
71 0 0 187 0 0 -7 0 0 
-203 -1 -1 149 0 -1 -153 -1 0 
-32 0 0 -178 -1 0 37 0 0 
21 0 -1 -34 0 -1 -118 0 0 
104 0 -1 -143 -1 0 30 0 0 
49 0 0 145 0 0 -302 -1 0 
93 0 0 44 0 0 -9 0 0 
122 0 0 49 0 -1 71 0 0 
39 0 -1 -8 0 0 -7 0 -1 
-163 -1 0 85 0 -1 13 0 0 
-110 -1 0 -111 0 -1 15 0 0 
87 0 0 50 0 0 302 1 0 
99 0 1 26 0 0 -200 -1 0 
-112 -1 0 
v 3 1000 double
-198.23607542 7.8417569425 9.1197272778 -522.34552145 -1.8618557904 23.310385034 -487.78444071 -7.5113318998 4.9040959378 
-184.61728744 -30.293336115 24.294481783 -90.332238569 -3.7688413828 4.6101305246 -249.39740491 -10.41745464 -3.0198615991 
-279.72320552 -13.642166121 17.750199317 -391.09442118 19.352381355 6.7570072595 -381.99475793 1.1867323279 -11.543454736 
-397.37183553 -27.854702431 -12.962664896 -207.15066962 11.776897278 -14.465663381 -110.23043193 -3.5585445239 25.973483304 
-491.72689714 17.4747845 -4.6855383133 -180.08423267 -3.8668526534 -4.3359868063 -199.40044228 -32.13681152 25.176095212 
-310.84580366 5.6287819521 -1.3768972198 -308.67142977 3.3460788606 7.4588343801 -170.48668401 7.3827115172 17.224299321 
-420.42475226 14.798458206 20.87075013 -359.92537031 -10.906746635 -11.206941998 -370.96815514 18.53276612 -14.297981785 
-512.56086677 14.155060335 0.95894586395 -93.350597725 17.551882795 13.829937174 -216.1448332 -17.195892987 2.9005782652 
-425.97061395 -11.69263123 3.1253676942 -127.54131695 6.2373561262 13.171374999 -73.426641423 8.7403936663 7.7551889667 
-311.23548592 -23.995266381 -1.9428425526 -62.754846652 28.221559183 1.1686355538 -400.82966925 -4.6216694998 -7.7784297282 
-218.11187014 21.370712258 12.502186014 -396.39891998 -19.945315522 -11.732970974 -315.23682579 -4.1006095964 -9.0193880043 
-163.66497804 19.624321806 9.9045131402 -210.73185763 1.2526677915 -18.487470222 -381.45890404 -59.845254773 -10.640964404 
-121.15505129 1.7865343379 -0.13909194942 -28.978449938 -1.0591697652 5.0550515946 -26.662786689 -7.390831648 4.3548468619 
-18.680144402 24.769153836 -3.664188192 -33.731051624 5.2135598052 -12.128989326 -246.20840469 20.053187481 2.5233736743 
-50.690740695 4.9041342507 8.5935269729 -390.08709464 8.230546141 6.5910718084 -257.36941005 -13.413081112 8.4287548506 
-229.3120968 -11.353531342 -6.5614014846 -483.42720901 -7.4747240349 16.318956967 -171.29892934 -5.7135878344 16.771833415 
-140.2158333 -13.98949044 -9.7187126363 -344.73675838 17.977409176 22.159913997 -325.91409461 -11.492630746 -4.688811816 
-267.25466647 -10.027739308 5.8808093163 -468.16247868 -2.3036597293 -12.194186973 -360.43250008 5.038031207 1.1770047795 
-392.26422803 11.729759139 -6.0061241506 -303.11675959 11.816022506 8.8603649929 -176.59210821 -3.440541218 -10.083081327 
-493.76026252 21.803353817 7.9596049733 -169.31957752 3.4241814149 12.823915852 -159.27558582 0.77701274718 -3.5265343358 
-461.81146475 -1.0506042474 -12.296420001 -39.747003302 1.3423722242 11.187356152 -493.95571951 5.7767362635 0.87392018547 
-35.143448132 -16.9431497 -21.81766486 -347.32237866 15.973873823 -7.5697435981 -29.499349277 -10.887142767 -6.2359716439 
-122.25787356 -24.542489602 -21.08750972 46.814220299 -16.577137469 5.1851441593 -148.91368152 -6.5231169958 7.3858734272 
-383.58011854 -9.6781302715 -15.955661324 59.087161674 -9.8314438051 -4.2707199581 -443.95600501 -23.335318458 9.7253504822 
-141.53011387 -2.977461759 -8.5051566198 -351.95407375 -14.62335507 7.7173875037 -283.07854422 28.495776507 23.494523911 
-62.995862287 -24.533972291 3.3139284638 -357.67390516 -19.393155216 -9.5019184849 -128.45584446 9.675176461 6.0734068184 
-116.17790845 18.130327764 20.594249707 -340.40174644 14.831038717 -12.471835412 14.377526586 -8.2524836316 -22.11627525 
-71.59822916 7.3645790484 9.3178602092 -489.34079383 2.906796308 4.5352783857 -106.73905595 -1.8699597803 5.5895630199 
-485.62620789 9.2596397666 -5.4955636742 -420.76240784 -4.2175564461 2.3710162421 -364.12071753 8.6680130404 4.8000435609 
-10.50730454 -11.378928255 -12.605515014 -391.84572936 23.822601664 -6.8530631534 -46.935059402 -3.9895379603 3.0412416556 
-196.45918991 3.2644224027 -12.9462124 -463.18415411 1.4078764189 12.030958115 -219.41525568 -15.396080722 4.0651697764 
-420.29595087 -1.8911124394 -9.12071815 -280.00043235 -3.06171989 16.46330145 -367.79459968 21.010049962 11.066861175 
-101.67380855 -0.52994111367 -5.6503188095 -256.3892627 12.128587258 -20.794506319 -464.74063257 7.8153835049 -5.2928856169 
-365.84777739 -3.0431288934 16.767452241 -42.701745722 4.2484851189 7.7047800176 -49.16248122 5.4405763104 -18.981889746 
-300.10915659 -2.6004165897 -42.123556175 -480.45805037 -6.0935436628 -28.666428289 -284.39923408 12.804656648 0.79421946423 
-387.91057645 3.9999690426 6.1346014604 -484.61652596 12.066545002 -8.7123765332 -50.713614169 -26.756269509 -20.455500179 
-274.08212602 -6.7846059906 -15.383140863 -483.45337338 0.00184581538 5.3052497333 -414.16797068 4.8504594627 5.8084822031 
-457.15152248 14.270995083 -1.8187040236 -49.638887386 12.268945578 7.1973251741 -317.22659228 17.503649235 11.954991717 
-33.625752786 -8.6462175468 6.5068532577 -202.52163961 -2.969822623 9.1311143722 -59.000615705 -11.621523764 -8.4912581467 
-53.531785344 11.015858169 7.997277027 -105.75064717 -43.350188799 -6.0664618784 -34.390333615 -21.830471164 11.627769657 
-397.25002105 -3.49156811 -25.943163804 -359.86157376 5.5915422422 3.6998436634 -169.75706798 1.0095603122 -62.585893245 
-387.48447068 -12.255442218 -3.4972159224 -412.74478761 -15.353221007 18.838863298 -56.480411159 16.538411692 -10.039022137 