ITEM: TIMESTEP
8500
ITEM: NUMBER OF ATOMS
1000
ITEM: BOX BOUNDS xy xz yz pp pp pp
0 10 1.13687e-13
0 10 0
-0 10 0
ITEM: ATOMS id type type x y z ix iy iz vx vy vz fx fy fz omegax omegay omegaz radius 
388 1 1 3.43953 0.902415 1.75149 -18 0 1 -444.774 32.0184 -0.0699908 3187 416.105 -1281.24 0 0 0 0.5 
633 2 2 0.33948 0.878856 0.0683135 -19 0 1 -380.699 -0.345687 -6.8255 845.816 -1113.27 -124.941 0 0 0 0.5 
18 1 1 1.46848 3.46511 1.26752 -4 0 0 -89.182 3.96694 21.2896 -1456.69 2535.99 185.724 0 0 0 0.5 
865 2 2 1.83073 1.78539 1.94075 -8 0 0 -279.879 -5.92507 -17.1008 -1700.05 683.102 -2877.86 0 0 0 0.5 
765 2 2 0.319602 0.170287 1.66529 24 1 0 -522.115 9.06968 3.864 -2.20547 582.349 -424.84 0 0 0 0.5 
425 1 1 4.35136 1.63487 0.513918 -14 0 0 -288.06 10.6145 -8.29226 119.988 -90.6463 110.692 0 0 0 0.5 
11 1 1 2.15263 2.57243 0.233568 -5 0 0 -181.219 -7.5199 -13.0369 596.382 -1934.65 -208.033 0 0 0 0.5 
205 1 1 0.489048 0.964219 1.16458 -38 0 0 -386.947 -6.2676 -20.1799 206.642 -1236.23 2683.83 0 0 0 0.5 
798 2 2 1.84443 1.11137 1.33094 -18 0 0 -398.341 -6.66872 -43.268 1858.26 -3741.63 1984.34 0 0 0 0.5 
371 1 1 2.57904 3.47249 0.806576 -3 0 0 -99.7373 18.3739 6.6138 -425.365 845.871 -1065.03 0 0 0 0.5 
96 1 1 1.80054 3.28074 0.0929701 -3 0 1 -100.491 5.40151 11.9849 -1292.74 1933.37 -236.836 0 0 0 0.5 
196 1 1 1.34663 1.74208 0.89875 42 1 0 -262.396 -7.84997 2.38754 -2932.23 3334.87 -2604.94 0 0 0 0.5 
279 1 1 2.65674 2.32383 0.736366 64 1 0 -207.931 -5.24038 -1.82979 3127.34 -986.064 275.044 0 0 0 0.5 
126 1 1 0.864709 0.104429 0.84615 14 1 0 -492.208 -14.2666 25.4987 861.312 -2545.76 -510.07 0 0 0 0.5 
517 2 2 1.93519 2.6526 1.20801 -9 0 0 -183.352 2.38732 -3.67199 49.3411 -1941.13 894.407 0 0 0 0.5 
495 1 1 1.02814 2.46071 0.47281 -5 0 1 -196.325 13.0237 -12.7325 4703.16 -3335.55 -1223.89 0 0 0 0.5 
212 1 1 1.06951 0.932207 1.68246 42 1 0 -380.231 -23.1778 1.79937 201.889 -1883.43 859.746 0 0 0 0.5 
761 2 2 2.92724 0.733779 0.32002 -16 0 0 -403.065 25.5972 -18.5508 -415.237 1495.14 -256.775 0 0 0 0.5 
896 2 2 4.11195 4.7538 0.781651 -1 0 0 -6.69686 1.72312 -6.18812 665.038 -1011.98 965.04 0 0 0 0.5 
828 2 2 0.941366 1.73985 1.83837 -8 0 1 -265.487 -4.00701 -2.17298 -928.527 657.238 -1486.69 0 0 0 0.5 
974 2 2 0.93417 2.53461 1.46517 69 1 1 -166.638 6.82318 5.94341 -1000.99 667.69 -2159.93 0 0 0 0.5 
242 1 1 0.903146 0.735255 0.504687 -26 0 1 -373.902 20.2111 8.4643 3338.03 -898.307 -1489.55 0 0 0 0.5 
94 1 1 4.62536 2.84487 1.24771 -8 0 0 -184.72 8.78647 -36.561 1051.22 665.05 204.038 0 0 0 0.5 
821 2 2 2.78245 0.0611237 1.44402 29 1 0 -471.333 2.82852 28.9511 -432.367 1739.75 787.91 0 0 0 0.5 
136 1 1 2.85912 2.91553 1.50783 -11 0 0 -174.242 -3.8397 -1.58972 8.55309 -1248.9 549.948 0 0 0 0.5 
434 1 1 4.36279 2.57852 0.0962809 -11 0 0 -135.069 -0.382717 21.3716 117.933 -419.648 -96.9239 0 0 0 0.5 
264 1 1 4.06758 4.01197 0.249516 -1 0 0 -39.0597 4.41265 -15.7303 -2233.22 -27.4581 -103.064 0 0 0 0.5 
680 2 2 4.23138 1.78134 1.37797 -10 0 0 -282.738 8.40348 -12.5951 -260.048 220.08 1467.06 0 0 0 0.5 
413 1 1 0.284668 3.30628 1.72108 -20 0 0 -93.5467 -15.624 18.2331 187.193 -1049.8 -527.677 0 0 0 0.5 
650 2 2 3.7013 3.41148 0.885972 -3 0 0 -125.925 3.78571 -4.07377 976.315 1497.03 -1776.86 0 0 0 0.5 
776 2 2 2.71328 1.02667 1.48116 -12 0 1 -424.315 22.9092 -15.3489 -158.986 -222.52 -1002.9 0 0 0 0.5 
171 1 1 4.27258 4.17584 1.61277 -2 0 0 -23.6284 -8.15624 -6.80738 -1725.32 667.435 -1636.98 0 0 0 0.5 
965 2 2 1.68164 4.38345 0.840926 -4 0 0 -30.3899 2.32276 2.08541 250.274 -438.668 453.024 0 0 0 0.5 
515 2 2 3.11525 0.0320944 0.445094 -28 0 0 -453.349 -3.75763 10.7335 -377.675 -2050.89 1725.4 0 0 0 0.5 
659 2 2 2.6122 3.61225 1.86499 -2 0 0 -140.49 27.4039 13.5109 569.636 532.729 529.773 0 0 0 0.5 
670 2 2 1.28501 4.12824 0.0133887 -2 0 1 -45.5586 9.03071 -2.99591 -491.223 1458.65 334.583 0 0 0 0.5 
806 2 2 2.86547 2.04328 1.51348 -28 0 0 -232.399 -23.07 2.7379 -881.049 -118.88 2597.76 0 0 0 0.5 
641 2 2 0.414666 2.97475 0.668064 -3 0 0 -83.1952 -15.6654 4.26088 -4255.09 3099.46 1152.03 0 0 0 0.5 
907 2 2 0.649284 4.42628 0.805956 0 0 0 -1.99456 -17.3471 9.62966 56.0138 -324.039 -2310.15 0 0 0 0.5 
362 1 1 3.44262 1.67661 0.869362 -8 0 0 -287.065 -5.83258 -25.0906 529.288 -643.142 -924.39 0 0 0 0.5 
456 1 1 0.589565 4.69029 1.6838 -1 0 0 -32.8003 -11.6598 -16.4251 878.843 -363.978 1441.38 0 0 0 0.5 
579 2 2 4.56982 3.4157 0.516739 -1 0 0 -103.402 1.86661 -0.319733 488.804 -182.619 -371.716 0 0 0 0.5 
570 2 2 4.62981 0.8182 0.0955302 -16 0 1 -340.4 -22.7742 6.79075 -312.044 10.8217 -367.785 0 0 0 0.5 
636 2 2 4.88303 2.56786 1.84992 -15 0 1 -228.817 -4.4407 -12.6016 -142.751 -1015.83 -417.377 0 0 0 0.5 
600 2 2 3.55537 4.61788 1.71939 1 0 1 -30.2396 -7.40332 4.54173 -947.508 524.277 117.788 0 0 0 0.5 
389 1 1 3.81618 2.87084 1.47937 -7 0 0 -176.212 -15.6364 20.8748 83.4912 -180.328 -735.407 0 0 0 0.5 
378 1 1 3.93511 0.776107 0.931189 -9 0 1 -384.592 4.05094 8.36953 -572.863 146.004 948.216 0 0 0 0.5 
882 2 2 4.89346 4.32402 0.844777 -1 0 0 -6.51422 -6.63503 -12.0671 368.943 -569.035 819.713 0 0 0 0.5 
667 2 2 2.45561 1.74734 2.30284 -28 0 0 -300.063 -1.47817 -3.69663 72.5875 -2801.19 -555.79 0 0 0 0.5 
298 1 1 1.24859 0.92931 3.90184 -24 0 0 -397.323 13.0784 10.2662 1204.81 574.568 671.801 0 0 0 0.5 
895 2 2 1.50467 1.33424 3.10026 -30 0 0 -393.959 20.3574 2.48824 -301.158 181.067 906.318 0 0 0 0.5 
256 1 1 2.44568 2.23169 3.25864 -6 0 0 -263.935 -0.00896098 42.227 198.969 -555.832 -3044.91 0 0 0 0.5 
539 2 2 0.486666 1.08525 3.78291 -19 0 0 -407.888 -0.929576 15.8038 511.615 -1993.35 1054.21 0 0 0 0.5 
276 1 1 0.875602 1.41266 2.64115 -17 0 1 -382.313 16.4608 -3.2772 2117.48 -5236.88 1560.46 0 0 0 0.5 
910 2 2 1.23319 3.5446 3.36376 -12 0 0 -124.562 14.3372 -2.59949 337.239 -1148.43 -605.649 0 0 0 0.5 
538 2 2 2.21786 0.99526 2.28227 32 1 0 -422.955 -19.1659 -12.7656 972.269 -164.03 1221.3 0 0 0 0.5 
898 2 2 1.33525 2.57757 3.26119 -4 0 0 -192.142 -18.1597 -3.58771 -115.708 1096.37 116.286 0 0 0 0.5 
361 1 1 1.68412 3.30701 2.60212 -4 0 0 -110.687 13.4655 18.3085 1111.43 -348.7 -1182.16 0 0 0 0.5 
668 2 2 2.57916 3.35478 2.84315 -2 0 0 -109.057 1.44088 9.14645 1141.06 -413.42 -140.272 0 0 0 0.5 
142 1 1 0.141929 2.54396 3.15784 -12 0 0 -221.937 7.79351 -18.3777 2171.84 -2512.32 209.765 0 0 0 0.5 
249 1 1 4.1278 1.68025 2.26144 -16 0 1 -341.091 1.20689 1.6074 902.581 -841.978 -1599.28 0 0 0 0.5 
587 2 2 2.41411 2.60895 2.4538 -8 0 1 -181.847 7.23232 -2.45573 -2554.74 3583.07 31.1921 0 0 0 0.5 
820 2 2 4.38657 2.67101 3.51961 -11 0 0 -209.837 2.56988 -10.9234 1385.61 -2832.32 -298.555 0 0 0 0.5 
647 2 2 3.45716 2.74146 2.32828 -9 0 0 -178.436 -17.88 -0.833036 -4346.66 2914.01 -1623.12 0 0 0 0.5 
144 1 1 1.61159 2.6081 2.08251 -4 0 0 -187.854 -3.71058 12.4801 -501.473 2249.2 624.305 0 0 0 0.5 
39 1 1 0.268848 2.06949 2.31116 -21 0 0 -255.206 -2.60732 2.10426 -3144.94 2454.02 897.378 0 0 0 0.5 
899 2 2 2.25831 1.20815 3.25367 -14 0 0 -399.3 9.55557 0.639225 922.373 -1105.76 -1158.99 0 0 0 0.5 
273 1 1 0.756932 0.499371 2.53274 -22 0 1 -459.767 -16.0189 -0.648903 2236.16 -244.408 30.6273 0 0 0 0.5 
201 1 1 0.191132 1.80327 3.42033 -16 0 0 -306.412 -10.227 -16.5662 -840.096 1250.12 -182.335 0 0 0 0.5 
644 2 2 4.36742 1.69607 3.24969 51 1 0 -320.209 0.0309518 0.665584 3080.78 -794.011 -1663.77 0 0 0 0.5 
756 2 2 3.54999 3.64555 2.20343 -5 0 1 -115.262 4.92109 -8.34037 -699.037 -502.322 47.5225 0 0 0 0.5 
23 1 1 2.29707 3.46758 3.69948 -10 0 0 -122.701 -12.7513 12.4028 -2668.58 -471.019 -334.041 0 0 0 0.5 
204 1 1 -0.00896312 1.13414 2.58578 -39 0 0 -375.384 8.4744 -7.72662 -2842.16 1474.69 243.556 0 0 0 0.5 
490 1 1 1.54563 0.26252 3.41858 -19 0 0 -468.588 -0.272014 -19.2625 -1342.06 2098.85 602.393 0 0 0 0.5 
879 2 2 2.34885 0.351717 2.8421 29 1 1 -454.641 -11.4335 -12.2455 -701.147 -2408.99 2268.49 0 0 0 0.5 
932 2 2 2.53331 4.20643 2.89386 0 0 0 -70.593 13.3999 1.69743 1787.98 -1173.76 -926.199 0 0 0 0.5 
704 2 2 3.97365 0.242641 2.84331 32 1 0 -501.592 13.3802 5.18274 1955.59 -2907.8 -279.658 0 0 0 0.5 
734 2 2 3.88166 3.11988 3.12337 -7 0 0 -181.979 3.94417 -0.252034 -2409.69 487.986 -1002.18 0 0 0 0.5 
555 2 2 0.383132 4.09638 2.60894 -5 0 0 -77.4811 2.81846 4.84786 2636.48 -259.215 971.531 0 0 0 0.5 
813 2 2 2.8364 0.264648 3.82858 42 1 0 -490.079 -9.60718 -7.36561 -3419.62 -905.429 132.727 0 0 0 0.5 
518 2 2 3.06954 1.95063 2.69489 -10 0 0 -310.73 0.815216 -23.9043 4784.37 -2338.65 1308.87 0 0 0 0.5 
868 2 2 4.28643 3.50755 3.95318 -6 0 1 -138.619 -10.4463 -4.62775 -3169.66 3098.97 -2385.22 0 0 0 0.5 
682 2 2 3.46546 4.62322 3.59494 -4 0 0 -60.0827 -7.74184 -11.0692 -478.165 2015.24 18.4509 0 0 0 0.5 
530 2 2 3.55601 3.73492 3.34528 -5 0 1 -142.526 17.3676 20.6851 -769.09 391.417 -1458.5 0 0 0 0.5 
488 1 1 3.72331 2.06736 2.94352 -35 0 1 -312.591 29.3706 -16.1556 2614.42 -1974.6 3373.68 0 0 0 0.5 
157 1 1 1.42572 4.64004 2.03466 -2 0 0 -39.188 -2.10388 -5.52122 1096.92 -201.415 -163.574 0 0 0 0.5 
937 2 2 0.678768 4.60753 3.38942 -3 0 0 -44.5916 1.17855 2.21795 981.779 -852.764 157.87 0 0 0 0.5 
135 1 1 4.36095 2.81096 2.5432 -5 0 0 -205.944 11.2642 -12.2657 2605.45 -330.175 -53.4509 0 0 0 0.5 
369 1 1 0.80995 3.27636 2.48198 -4 0 0 -108.534 -21.5867 16.3239 -309.524 -404.08 830.973 0 0 0 0.5 
918 2 2 1.72421 4.52607 3.32012 -3 0 0 -41.6067 -3.24222 -7.78959 -1881.19 650.846 896.746 0 0 0 0.5 
328 1 1 3.86563 4.31502 2.74092 -1 0 0 -45.2533 -4.91982 2.18804 -341.926 -2391.54 -270.306 0 0 0 0.5 
429 1 1 0.463954 3.73741 3.70742 -10 0 0 -131.014 10.1571 -3.55539 -1027.35 -116.681 131.589 0 0 0 0.5 
523 2 2 3.29765 2.37821 3.64978 -15 0 1 -257.333 25.7964 9.02756 -1925.73 2942.48 883.562 0 0 0 0.5 
240 1 1 3.02998 1.21051 3.4705 -24 0 0 -388.772 26.842 -0.944088 -338.886 2506.76 2765.43 0 0 0 0.5 
257 1 1 2.62908 4.86261 3.55264 -4 0 0 -51.0785 10.6034 4.14058 -1280.38 863.036 359.312 0 0 0 0.5 
20 1 1 3.30228 0.416467 3.35581 -46 0 0 -495.818 -0.64502 3.11311 1392.18 -115.276 -3106.61 0 0 0 0.5 
826 2 2 3.44958 0.982 2.67593 23 1 0 -462.181 22.1438 -0.698485 237.663 198.202 -1717.6 0 0 0 0.5 
984 2 2 3.51764 0.148213 2.12831 17 1 1 -526.889 12.074 -10.2291 -741.315 1391.2 671.584 0 0 0 0.5 
280 1 1 3.7859 1.75943 3.83937 -13 0 0 -310.919 -0.371477 -24.602 226.35 -466.767 2415.13 0 0 0 0.5 
340 1 1 4.2677 4.40665 3.86013 -4 0 0 -65.2036 10.3658 2.34077 844.292 -376.286 1040.91 0 0 0 0.5 
101 1 1 4.89903 4.32069 2.31598 0 0 0 -77.5393 -2.1674 12.0784 688.726 -1655.96 538.748 0 0 0 0.5 
487 1 1 2.58916 0.743606 4.29941 -23 0 0 -435.656 20.2876 -14.5264 -2923.63 2466.38 810.171 0 0 0 0.5 
234 1 1 0.751202 1.89166 5.27876 -8 0 0 -234.914 -38.4951 10.1565 2496.59 -267.165 -130.529 0 0 0 0.5 
516 2 2 2.93512 0.663147 5.50338 -35 0 0 -405.819 9.14079 38.6084 3887.98 -2452.67 -40.4494 0 0 0 0.5 
437 1 1 1.01589 0.727208 5.39067 -19 0 0 -356.803 -8.61062 9.03797 -642.77 258.975 692.581 0 0 0 0.5 
708 2 2 1.57697 0.603813 4.70529 -28 0 0 -364.404 8.71204 3.08874 -2459 2964.32 -2455.27 0 0 0 0.5 
117 1 1 0.819254 2.72827 5.4416 -10 0 0 -178.233 -8.32798 3.37295 -2572.46 729.524 -636.977 0 0 0 0.5 
511 2 2 1.8415 3.63301 5.09621 -6 0 -1 -86.8708 -3.61913 -17.4501 1715.27 -1533.79 -423.275 0 0 0 0.5 
459 1 1 2.08605 4.31428 5.82227 0 0 0 -22.3385 0.260094 -2.25356 180.744 -60.7438 -99.895 0 0 0 0.5 
47 1 1 2.53467 2.3465 5.54803 -19 0 0 -227.289 12.4819 6.60368 604.499 1487.89 111.766 0 0 0 0.5 
503 2 2 1.98353 2.6069 4.03142 -10 0 0 -200.257 -2.8833 19.6831 -1306.6 1614.14 2134.12 0 0 0 0.5 
805 2 2 2.37563 0.736407 5.18749 -18 0 0 -401.12 -5.45388 10.3544 -561.533 1650.89 -699.089 0 0 0 0.5 
973 2 2 2.42539 4.17576 4.27113 -5 0 0 -79.2923 -1.91817 7.9987 1316.9 -650.873 -587.118 0 0 0 0.5 
863 2 2 1.57842 2.18891 5.64316 -9 0 0 -226.405 11.6833 -10.9239 2306.97 -1888.85 219.743 0 0 0 0.5 
25 1 1 1.2619 2.13678 4.51036 -22 0 0 -245.454 10.9896 -18.9781 868.444 -0.241344 1056.78 0 0 0 0.5 
944 2 2 4.27465 2.65118 5.31617 -13 0 0 -187.286 -1.28922 12.257 463.798 -1530.79 798.007 0 0 0 0.5 
250 1 1 4.78677 4.70119 4.6167 -4 0 0 -36.099 -13.7918 2.59032 647.536 -570.567 961.5 0 0 0 0.5 
509 2 2 2.71857 1.63384 5.1193 -14 0 0 -277.976 -10.1561 -9.22414 -2327.9 -2029 1341.27 0 0 0 0.5 
766 2 2 4.84066 3.20037 5.88012 -4 0 0 -140.338 -11.5002 1.12321 -1257.37 2285.82 30.4531 0 0 0 0.5 
36 1 1 0.335282 2.01491 4.32615 -26 0 0 -227.273 -27.9567 -1.47429 -861.15 -637.694 -1958.41 0 0 0 0.5 
346 1 1 3.58533 0.0714259 4.21567 22 1 0 -499.528 0.242933 -17.6924 856.121 -886.434 1687.6 0 0 0 0.5 
245 1 1 1.31859 3.66751 4.29297 -10 0 0 -100.603 -2.85547 -14.1937 23.0865 162.373 1053.02 0 0 0 0.5 
151 1 1 0.382606 2.8725 4.04781 -5 0 0 -168.521 -13.9424 -18.1315 1017.02 -1153.08 -1258.72 0 0 0 0.5 
449 1 1 2.87804 4.28711 4.9888 -2 0 0 -26.0764 -19.1308 5.95112 -3501.51 1471.46 -413.402 0 0 0 0.5 
546 2 2 1.6416 4.62162 4.59725 -5 0 0 -45.4689 6.99869 6.38573 -856.553 848.562 58.2775 0 0 0 0.5 
251 1 1 4.90988 3.62203 5.01012 -3 0 0 -109.748 25.2564 24.9661 118.829 360.952 -286.233 0 0 0 0.5 
750 2 2 4.03136 1.22197 5.49336 -17 0 0 -324.496 -27.9753 24.6564 617.76 665.495 -85.2294 0 0 0 0.5 
304 1 1 3.19542 3.36605 4.12669 -7 0 0 -166.449 11.7844 1.08443 986.112 495.602 727.269 0 0 0 0.5 
933 2 2 0.41494 4.65118 4.72393 0 0 0 -35.5754 0.0854257 -17.58 -164.035 33.0457 346.404 0 0 0 0.5 
428 1 1 0.735101 3.43308 5.10376 -3 0 0 -107.451 11.5508 -30.0934 1605 693.451 -803.883 0 0 0 0.5 
613 2 2 -0.0317411 3.78384 5.33946 0 0 0 -91.5174 0.297084 -18.3494 -1398.76 -743.496 529.41 0 0 0 0.5 
914 2 2 1.14168 4.28931 5.3346 -1 0 0 -29.3662 -10.2977 -2.60848 -367.398 -509.651 207.942 0 0 0 0.5 
366 1 1 3.81411 4.79932 4.79435 -3 0 0 -9.28884 -3.31533 0.330236 -1057.31 -993.864 405.945 0 0 0 0.5 
852 2 2 3.93083 1.18434 4.31652 -25 0 0 -329.594 -25.7602 -9.04552 1252.29 -4055.62 479.847 0 0 0 0.5 
193 1 1 4.48718 0.0685596 4.26422 16 1 0 -516.15 19.2675 -5.46452 1695.47 2624.73 -2004.73 0 0 0 0.5 
348 1 1 0.491428 4.63023 5.71967 -3 0 0 -8.32879 -5.84992 -8.63749 -1797.5 479.694 -694.012 0 0 0 0.5 
730 2 2 3.29751 0.580161 4.7485 -29 0 0 -459.486 33.077 -0.653715 3404.64 1061.2 -234.843 0 0 0 0.5 
314 1 1 0.0150862 2.31369 4.98729 -5 0 0 -196.371 -1.07358 19.8085 -970.275 1492.66 484.327 0 0 0 0.5 
554 2 2 2.88467 3.18103 5.37662 -8 0 0 -133.273 7.71925 -3.74747 -437.367 -879.674 168.151 0 0 0 0.5 
236 1 1 3.47495 2.09324 5.93736 -12 0 0 -241.653 -14.5508 -13.7087 251.965 1716.94 1014.71 0 0 0 0.5 
930 2 2 4.75548 2.97495 4.57879 -7 0 0 -221.994 24.6319 -16.3175 3346.64 -3357.46 1917.63 0 0 0 0.5 
62 1 1 4.0793 2.4092 4.3045 -4 0 0 -216.973 5.60104 -7.15372 209.458 -2163.82 -1310.84 0 0 0 0.5 
229 1 1 3.59816 2.86087 4.62069 -7 0 0 -200.644 13.7644 33.9899 -638.234 223.717 1808.08 0 0 0 0.5 
533 2 2 3.33298 1.56849 4.60618 42 1 -1 -283.907 2.02808 -5.48117 -1172 2601.57 231.568 0 0 0 0.5 
116 1 1 3.42837 4.6254 5.70257 -2 0 0 -15.4096 -2.46353 4.01686 -220.874 846.457 1355.5 0 0 0 0.5 
439 1 1 3.70462 3.98342 5.14499 -2 0 0 -82.3706 -5.36557 14.149 1522.62 333.796 -237.342 0 0 0 0.5 
408 1 1 3.84251 3.2081 5.54431 -2 0 0 -130.971 13.1145 4.25933 -1207.72 76.3352 910.01 0 0 0 0.5 
418 1 1 4.23894 1.89146 4.9773 -5 0 0 -259.312 -16.44 2.04393 -59.219 -1481.66 733.77 0 0 0 0.5 
827 2 2 4.24741 3.7095 4.77394 -4 0 0 -102.102 3.71833 -8.24221 -3184.27 3673.81 75.1227 0 0 0 0.5 
931 2 2 4.80685 4.49845 5.58767 0 0 0 -42.5945 3.2265 -2.32979 90.2676 476.624 -235.687 0 0 0 0.5 
786 2 2 2.61527 0.682407 6.41344 -20 0 1 -432.822 7.06845 17.6792 -2203.22 -723.549 -791.024 0 0 0 0.5 
658 2 2 1.64334 3.72291 6.64736 -1 0 0 -53.4977 -11.7083 -1.99003 -30.7388 96.2956 -151.884 0 0 0 0.5 
206 1 1 1.05674 1.84072 6.35762 -9 0 0 -244.724 9.64368 -27.8503 -22.1724 1020.48 542.011 0 0 0 0.5 
594 2 2 0.378576 2.16537 6.24148 -9 0 0 -234.694 -0.671452 -9.43766 -257.259 -825.451 -2129.3 0 0 0 0.5 
569 2 2 3.80057 1.78562 7.72523 47 1 -1 -207.244 -14.3734 -9.01602 542.841 26.0045 -1114.05 0 0 0 0.5 
740 2 2 2.45672 1.91236 7.58559 -7 0 0 -220.642 12.5668 17.7037 2482.81 -1593.01 -1645.91 0 0 0 0.5 
235 1 1 0.635427 1.87444 7.12583 -6 0 0 -250.661 -7.84193 1.05587 -2888.96 1710.02 337.021 0 0 0 0.5 
358 1 1 4.16246 4.14068 6.04283 -2 0 0 -30.7038 -9.19605 4.57068 -1823.37 -1120.83 -171.383 0 0 0 0.5 
551 2 2 2.29894 4.6879 7.82612 0 0 0 -10.8778 5.07182 7.29027 28.9898 229.644 -137.973 0 0 0 0.5 
343 1 1 1.7142 3.61252 7.67379 -2 0 0 -72.3502 2.35591 6.72347 142.639 -371.976 -904.551 0 0 0 0.5 
584 2 2 2.68747 3.24682 6.52592 -3 0 0 -133.709 -8.99805 -12.2308 204.622 389.731 -449.419 0 0 0 0.5 
653 2 2 1.30697 0.613576 7.40619 35 1 0 -406.634 0.636835 -12.4303 -1612.52 2156.98 1437 0 0 0 0.5 
502 2 2 1.76503 1.37257 6.08445 -15 0 0 -282.134 -10.789 -2.74459 -2727.67 474.957 -211.138 0 0 0 0.5 
227 1 1 0.191751 0.853952 7.90932 -9 0 0 -326.073 -22.7051 19.8131 934.094 646.399 -292.901 0 0 0 0.5 
862 2 2 1.28682 1.26116 6.94482 -18 0 0 -311.975 14.7966 -10.2656 1819.26 -3138.98 -505.946 0 0 0 0.5 
335 1 1 2.72371 2.0932 6.55646 -14 0 0 -239.747 -1.0029 -9.18751 44.8541 787.202 690.35 0 0 0 0.5 
331 1 1 2.77098 4.6768 6.62296 1 0 0 -26.9516 0.0990939 0.838271 -528.994 -472.664 618.633 0 0 0 0.5 
911 2 2 2.29292 0.679695 7.79225 -40 0 -1 -424.515 9.48623 58.2886 -392.312 4521.55 -3311.11 0 0 0 0.5 
299 1 1 0.892596 2.71217 7.09161 -9 0 0 -135.253 -14.2346 2.01325 92.2279 -2262.97 331.55 0 0 0 0.5 
778 2 2 0.621606 0.386968 6.20841 -40 0 1 -362.842 -20.0221 2.14254 31.154 -449.337 -258.706 0 0 0 0.5 
226 1 1 2.65518 1.30267 7.17701 -9 0 0 -296.093 -25.9433 10.202 -2555.86 -185.535 2387.84 0 0 0 0.5 
274 1 1 0.405216 0.937525 6.9577 -17 0 -1 -347.628 -10.542 -4.1054 1471.54 1966.08 1462.49 0 0 0 0.5 
1 1 1 1.80481 0.427866 6.11376 -36 0 -1 -457.806 -1.30606 9.90976 -487.399 369.065 468.802 0 0 0 0.5 
565 2 2 3.09326 3.46955 7.67294 -3 0 0 -66.5248 -7.15451 15.815 -137.601 -366.391 -414.765 0 0 0 0.5 
148 1 1 3.52132 3.49636 6.38282 -4 0 0 -110.444 16.1518 -12.9796 -574.5 351.162 8.18981 0 0 0 0.5 
123 1 1 4.35496 2.12074 6.12693 -16 0 0 -247.028 7.81051 29.2804 1929.85 -1859.53 -1316.12 0 0 0 0.5 
243 1 1 0.952187 3.02818 6.22442 -6 0 0 -105.758 -12.6565 18.1648 538.699 -9.70948 -910.069 0 0 0 0.5 
80 1 1 0.583027 4.75659 6.72356 0 0 0 -26.3012 6.62231 10.4219 2016.28 -716.6 -158.279 0 0 0 0.5 
692 2 2 3.28158 0.17309 6.46685 17 1 0 -441.993 -2.67865 0.411924 -762.008 749.238 74.482 0 0 0 0.5 
544 2 2 0.0727314 3.73382 7.87794 -2 0 0 -74.6548 -12.3659 -9.14791 -562.342 -292.544 -614.224 0 0 0 0.5 
498 1 1 2.53536 1.32388 6.00086 48 1 0 -323.207 26.0815 3.9419 2819.93 2573.08 -344.275 0 0 0 0.5 
783 2 2 0.519124 3.67078 6.04631 -8 0 0 -83.5187 22.3343 -21.4492 520.028 330.464 -605.01 0 0 0 0.5 
97 1 1 3.11038 4.37843 7.52261 -1 0 0 -7.74407 9.4476 -0.378276 55.2614 -270.201 890.187 0 0 0 0.5 
838 2 2 3.48926 4.22056 6.67821 -1 0 0 -22.1818 6.67793 5.28845 613.86 1181.26 340.588 0 0 0 0.5 
152 1 1 4.10318 4.68349 7.26121 -3 0 0 2.66317 6.30294 -23.8767 304.162 282.097 93.0014 0 0 0 0.5 
894 2 2 1.30347 4.57729 6.25479 0 0 0 -27.993 5.48123 3.19338 1409.58 -460.334 -352.171 0 0 0 0.5 
762 2 2 3.36697 1.33299 6.92666 -25 0 -1 -287.961 -2.78672 7.4108 -556.111 37.3117 131.836 0 0 0 0.5 
722 2 2 2.75671 0.348128 7.1884 -14 0 0 -445.63 -11.1098 11.6475 125.901 -2494.82 1333.37 0 0 0 0.5 
802 2 2 4.48373 3.5084 7.93979 -1 0 0 -90.5494 9.76696 -7.27285 1542.01 -2604.42 -677.792 0 0 0 0.5 
611 2 2 0.283277 3.74493 6.90312 0 0 0 -51.2994 -5.35264 -8.83361 1109.52 -167.054 -192.563 0 0 0 0.5 
161 1 1 1.3005 4.42555 7.22523 -1 0 0 -29.3593 -0.357016 3.41991 1828.58 -847.843 -1121.4 0 0 0 0.5 
591 2 2 3.15241 0.224364 7.93699 -21 0 0 -453.916 -2.67654 41.7361 925.898 -844.659 694.448 0 0 0 0.5 
220 1 1 4.19895 0.111282 6.9357 35 1 0 -449.076 -2.28668 1.28625 -220.543 -420.232 -841.291 0 0 0 0.5 
379 1 1 0.105931 2.37794 7.84645 -3 0 0 -135.563 -18.9577 -13.1925 -483.627 1950.5 -1625.59 0 0 0 0.5 
966 2 2 0.483597 4.65507 7.60604 4 0 0 1.98029 -0.355808 29.6914 575.506 230.218 265.522 0 0 0 0.5 
232 1 1 0.784845 3.37312 7.52386 -7 0 0 -70.7605 -1.29504 4.20204 1256.47 418.766 -137.1 0 0 0 0.5 
568 2 2 2.92462 2.72415 7.23393 -3 0 0 -156.326 -19.3516 -2.83927 -313.274 328.534 551.987 0 0 0 0.5 
317 1 1 3.77203 2.74218 7.53852 -5 0 0 -153.129 9.47507 7.6367 608.476 -704.059 350.888 0 0 0 0.5 
318 1 1 3.82418 2.80735 6.46977 -4 0 0 -134.221 -10.9962 5.55447 -3226.64 740.124 800.35 0 0 0 0.5 
572 2 2 1.9097 2.55645 7.95162 -5 0 0 -142.723 -1.60815 -20.9626 -2685.93 3189.71 1277.94 0 0 0 0.5 
222 1 1 4.14599 1.34643 6.67329 52 1 0 -302.85 0.96589 6.16452 435.566 1070.31 -854.498 0 0 0 0.5 
332 1 1 4.80387 1.44437 6.05345 -15 0 0 -292.17 -3.94912 -3.65235 697.299 -1614.57 -197.627 0 0 0 0.5 
790 2 2 4.87376 0.913033 6.76196 -10 0 0 -330.767 -21.9516 3.90743 971.956 -1284.3 -492.96 0 0 0 0.5 
935 2 2 4.85782 3.71595 6.55479 -1 0 0 -82.7435 -4.42857 21.9147 -771.998 923.072 823.347 0 0 0 0.5 
597 2 2 1.70813 2.48096 9.44168 -4 0 0 -154.23 2.70338 -8.61115 896.208 -785.355 -1462.44 0 0 0 0.5 
360 1 1 0.555528 0.535371 9.36174 -17 0 0 -414.226 13.7983 -7.36412 4793.51 682.099 -2416.9 0 0 0 0.5 
270 1 1 4.52328 0.863422 8.27317 -9 0 0 -342.817 19.8092 -14.7708 1047.73 -3748.58 -1800.41 0 0 0 0.5 
588 2 2 2.52023 4.23043 9.50538 0 0 0 -26.703 -4.90509 2.93678 -639.232 296.214 231.983 0 0 0 0.5 
265 1 1 0.976426 2.6121 8.09156 -4 0 0 -136.138 -8.08566 10.5006 -333.011 -394.265 434.923 0 0 0 0.5 
258 1 1 3.18762 1.48135 9.88045 -15 0 0 -239.732 -2.55174 -5.49124 8.2719 23.749 -13.9643 0 0 0 0.5 
674 2 2 2.56048 3.30279 9.64274 0 0 -1 -94.6317 1.9688 -2.48436 267.049 -963.381 908.925 0 0 0 0.5 
718 2 2 2.35039 0.839266 8.82041 -10 0 0 -343.913 -12.7924 25.5366 146.542 -831.797 506.332 0 0 0 0.5 
7 1 1 1.83655 4.00997 8.524 -2 0 0 -44.5063 -12.9673 -1.25561 1610.73 -1489.51 -1044.57 0 0 0 0.5 
30 1 1 4.78644 4.43251 9.79639 0 0 0 -4.32914 -7.75024 11.6622 -1286.57 -298.18 141.482 0 0 0 0.5 
342 1 1 2.18712 3.24023 8.82567 -3 0 0 -94.4225 -8.33281 4.9218 -782.496 -205.989 345.904 0 0 0 0.5 
832 2 2 0.869551 2.6668 9.33814 -4 0 -1 -150.275 -3.94862 0.203993 138.711 362.974 -469.563 0 0 0 0.5 
10 1 1 1.71552 1.55096 9.12895 -10 0 0 -254.566 -6.12695 -10.2929 -599.055 168.93 637.481 0 0 0 0.5 
643 2 2 0.402437 1.73159 8.28378 -14 0 0 -248.894 -10.0869 2.26124 349.033 -2504.42 913.993 0 0 0 0.5 
526 2 2 1.07628 0.493191 8.16493 -12 0 0 -320.234 -47.8104 18.5791 -476.693 -1194.69 -110.886 0 0 0 0.5 
293 1 1 0.592382 1.48185 9.35806 -27 0 -1 -273.264 12.1497 -1.26387 -135.862 281.867 2119.49 0 0 0 0.5 
480 1 1 2.63383 2.52389 8.48028 -6 0 0 -145.515 -2.4113 -8.11327 -26.0762 -1154.58 -498.701 0 0 0 0.5 
16 1 1 0.870322 1.02208 8.69901 -19 0 -1 -278.799 -3.44242 2.12957 551.289 -934.108 1289.88 0 0 0 0.5 
845 2 2 2.23671 1.48449 8.42765 -7 0 0 -258.35 18.2244 0.250443 810.612 344.436 -1356.78 0 0 0 0.5 
829 2 2 4.01947 4.36203 8.14093 1 0 0 -9.17388 -6.24916 -21.351 -1037.48 2205.81 473.646 0 0 0 0.5 
760 2 2 4.2159 1.56767 8.85298 -5 0 0 -190.493 -15.9654 6.93705 -8093.85 3925.18 -1230.08 0 0 0 0.5 
623 2 2 2.67624 2.43195 9.40057 -3 0 0 -146.482 -17.4521 -0.586285 -281.566 -215.466 586.165 0 0 0 0.5 
871 2 2 0.259848 3.91426 8.87246 -2 0 -1 -52.9405 2.28913 3.80285 1196.82 -2476.74 2.75592 0 0 0 0.5 
811 2 2 2.43439 4.84268 8.80008 0 0 0 7.06657 -11.1474 5.20492 -162.39 -278.153 -590.331 0 0 0 0.5 
368 1 1 0.153775 2.77891 8.73457 -3 0 -1 -136.145 5.18813 -17.0129 -435.327 33.2815 14.2573 0 0 0 0.5 
847 2 2 1.42727 4.60975 8.10511 1 0 0 -16.1961 -10.1021 -0.694623 -574.913 -262.58 -1920.34 0 0 0 0.5 
567 2 2 1.57712 4.4723 9.04323 1 0 0 -3.61903 -11.9349 -4.87083 322.53 -671.29 1569.53 0 0 0 0.5 
56 1 1 0.0311232 2.80324 9.69873 -4 0 0 -137.83 -10.8277 -3.54676 302.592 374.699 -1038.68 0 0 0 0.5 
306 1 1 3.87868 0.0764404 9.8292 17 1 -1 -473.254 2.60094 5.13552 624.994 36.3044 -504.208 0 0 0 0.5 
566 2 2 1.58111 0.044236 8.91173 31 1 0 -497.772 19.1857 -12.8635 -707.728 946.737 -851.564 0 0 0 0.5 
770 2 2 1.26441 1.72711 9.9418 -11 0 -1 -235.537 -10.7085 -11.745 -475.802 62.9921 1096.03 0 0 0 0.5 
373 1 1 3.53196 2.70495 9.71714 -6 0 -1 -137.014 -9.61247 -2.73106 -94.9559 -603.444 -273.351 0 0 0 0.5 
638 2 2 0.0482134 3.72812 9.76072 -1 0 -1 -80.078 20.8541 5.81422 -152.859 -1110.79 336.109 0 0 0 0.5 
71 1 1 3.31334 4.40473 9.98205 0 0 0 -32.7073 14.3742 -2.74057 -204.394 274.787 1508.29 0 0 0 0.5 
261 1 1 3.92177 3.13067 8.60955 -3 0 0 -113.503 7.03244 -19.0284 -561.803 2104.56 -487.444 0 0 0 0.5 
574 2 2 0.99112 3.59389 9.32458 -1 0 0 -62.2264 2.39332 3.89795 749.065 -1027.29 512.438 0 0 0 0.5 
195 1 1 3.67643 0.591191 8.98511 -11 0 0 -407.082 14.8085 -26.9604 0 0 0 0 0 0 0.5 
310 1 1 0.958799 3.53825 8.38692 -2 0 0 -59.5052 0.932172 -0.764549 807.084 -51.1005 369.129 0 0 0 0.5 
903 2 2 3.32461 3.48993 9.91801 -1 0 -1 -84.4114 22.1336 5.09717 1083.65 -127.902 511.413 0 0 0 0.5 
592 2 2 0.516058 4.87067 9.95074 3 0 -1 33.9246 -15.3168 -11.7155 -866.325 -1163.5 -38.2099 0 0 0 0.5 
860 2 2 3.34988 4.90238 8.50327 3 0 0 0.854119 1.99063 -10.7749 25.5182 -267.868 -546.511 0 0 0 0.5 
339 1 1 4.7647 3.50586 9.59973 0 0 0 -72.2162 -9.13676 1.96193 -1911.78 1007.31 -147.171 0 0 0 0.5 
347 1 1 4.66511 4.87086 8.99786 2 0 0 10.9554 -9.03876 -1.50282 -2566.24 -366.939 506.13 0 0 0 0.5 
524 2 2 3.40546 2.2692 8.40744 -7 0 0 -144.554 -7.56622 7.88399 1126.4 132.536 814.604 0 0 0 0.5 
308 1 1 3.41963 3.98369 9.06756 1 0 0 -25.0775 -3.24183 -6.72167 -1635.76 -14.7882 279.144 0 0 0 0.5 
110 1 1 4.33047 3.97876 8.93442 -1 0 0 -39.8525 -3.00556 4.53764 -1238.87 2.87955 -1292.4 0 0 0 0.5 
772 2 2 4.39975 2.74934 9.07895 -7 0 0 -132.465 4.47859 14.5689 -1449.98 1380.94 94.2567 0 0 0 0.5 
239 1 1 4.43705 0.0764261 8.56428 -32 0 0 -446.587 -9.66853 24.3179 -7337.29 5060.1 9137.4 0 0 0 0.5 
108 1 1 4.64886 1.57896 9.72389 -7 0 0 -272.785 8.15618 3.9442 570.386 378.828 1623.23 0 0 0 0.5 
774 2 2 4.95721 2.2923 9.30715 -7 0 0 -165.059 -1.9244 12.6938 -1004.83 57.1132 3385.86 0 0 0 0.5 
857 2 2 2.5339 5.94241 0.705908 2 0 0 56.359 -0.177457 -6.76604 746.075 -1347.6 1154.07 0 0 0 0.5 
301 1 1 0.584474 8.75798 0.652997 16 0 0 302.583 47.405 -16.5432 852.666 -1939.48 -5159.49 0 0 0 0.5 
906 2 2 2.675 7.50168 0.61093 9 0 0 204.267 -8.91458 14.0485 860.754 -1179.57 -839.606 0 0 0 0.5 
853 2 2 2.4173 8.09088 1.23396 3 0 0 225.162 5.83311 -0.231562 2049.48 -2682.48 1117.97 0 0 0 0.5 
494 1 1 0.822424 5.51935 1.05404 1 0 0 8.25466 8.74533 -0.427375 596.223 29.6063 1579.02 0 0 0 0.5 
484 1 1 0.0104822 8.27655 0.135142 8 0 1 294.673 -1.28975 1.73516 82.9873 1175.66 -2029.76 0 0 0 0.5 
866 2 2 3.58672 5.37667 0.995659 1 0 0 12.0816 16.1253 1.12482 146.786 583.364 -504.585 0 0 0 0.5 
920 2 2 1.29879 9.65725 0.207291 -19 -1 1 493.957 1.65701 -3.76835 323.586 6.89608 176.358 0 0 0 0.5 
542 2 2 3.49459 8.62539 1.79581 -38 -1 1 299.989 -5.35749 -14.4872 108.324 432.276 198.385 0 0 0 0.5 
330 1 1 2.02332 6.68145 0.0513847 5 0 0 118.048 3.71537 4.74584 -1087.25 -1003.74 -1856.06 0 0 0 0.5 
367 1 1 0.379926 8.39869 1.61866 11 0 0 285.79 -0.896029 13.7822 2695.65 -3233.34 1274.44 0 0 0 0.5 
254 1 1 3.81887 6.35324 1.00187 5 0 0 110.853 -21.4872 -3.84846 -218.76 -21.9954 -16.7203 0 0 0 0.5 
85 1 1 3.63391 9.17018 0.794419 13 0 1 366.398 3.79244 -5.27577 5185.58 -1634.02 -982.908 0 0 0 0.5 
709 2 2 2.89717 9.38116 1.02893 21 0 1 450.033 -28.2828 30.7605 -4688.97 934.533 -1536.95 0 0 0 0.5 
473 1 1 2.91709 5.71257 1.53757 4 0 0 26.3497 -3.73665 5.78389 10.6738 -1882.72 380.986 0 0 0 0.5 
874 2 2 4.32578 7.23581 0.703313 10 0 0 214.235 -16.9671 3.86382 -1351.84 1808.44 -1386.15 0 0 0 0.5 
960 2 2 1.61747 9.40734 1.06063 26 0 1 452.565 15.6552 16.3852 -1286.25 3790.41 -1309.52 0 0 0 0.5 
5 1 1 2.40878 6.3903 1.58154 -1 0 0 96.9045 4.86189 18.5983 341.699 -1292.07 -202.033 0 0 0 0.5 
808 2 2 3.02462 9.2534 0.0507411 13 0 0 390.161 -11.2053 -14.3355 2518.36 487.758 2990.54 0 0 0 0.5 
545 2 2 4.57773 9.16566 0.658008 26 0 0 359.572 0.516381 -2.2636 962.326 -1910.86 429.87 0 0 0 0.5 
133 1 1 2.28815 8.73969 0.558361 16 0 1 381.088 -3.61174 23.2054 -1995.61 -1459.28 1464.2 0 0 0 0.5 
75 1 1 1.25983 6.81662 0.995521 6 0 1 140.902 -11.918 7.04725 -1268.52 1623.63 689.729 0 0 0 0.5 
698 2 2 4.26931 7.58441 1.86636 5 0 0 211.276 -6.81267 -1.69173 -777.361 468.283 375.675 0 0 0 0.5 
145 1 1 0.165265 9.33401 1.34866 19 0 0 434.538 -9.44219 0.536396 -1854.93 3282.01 2614.64 0 0 0 0.5 
407 1 1 4.08126 6.28683 0.0271369 8 0 0 89.3448 11.5925 -5.78978 -1316.98 1776.64 100.562 0 0 0 0.5 
660 2 2 4.56406 8.04865 0.315842 12 0 1 292.058 -15.4156 24.5702 39.8806 155.816 716.38 0 0 0 0.5 
949 2 2 1.07878 8.31221 1.05118 23 0 1 270.298 17.2305 -9.74259 570.756 1178.15 -526.704 0 0 0 0.5 
113 1 1 0.212699 5.72139 0.751571 1 0 0 19.1814 -10.7736 -35.0288 732.64 -169.037 -590.709 0 0 0 0.5 
78 1 1 0.533309 6.52442 0.411182 5 0 1 119.523 -9.90558 22.4685 -805.02 -546.792 1412.78 0 0 0 0.5 
182 1 1 4.62565 8.57939 1.90937 11 0 0 311.072 0.769953 6.10618 -1141.94 597.036 -822.648 0 0 0 0.5 
483 1 1 1.88317 7.97101 0.413755 8 0 0 214.666 3.94981 -0.672287 1538.38 3157.61 816.797 0 0 0 0.5 
605 2 2 4.50882 5.69879 0.485344 2 0 0 29.0684 13.0159 10.6979 144.794 -1077.9 1242.75 0 0 0 0.5 
386 1 1 1.44133 7.70339 1.31343 6 0 0 209.289 2.67097 1.13757 -349.912 -1335.85 -294.655 0 0 0 0.5 
410 1 1 1.57923 5.25242 1.26249 -2 0 0 11.5177 13.6159 7.72039 1664.1 -2760.93 -284.267 0 0 0 0.5 
419 1 1 0.0792595 6.93229 1.70834 3 0 0 137.303 9.71578 -6.24406 -543.223 -1066.47 -375.221 0 0 0 0.5 
341 1 1 1.9937 7.09114 1.59058 9 0 0 159.439 -3.03244 -3.00968 -863.073 1225.05 1479.12 0 0 0 0.5 
891 2 2 4.74058 6.44591 1.07232 0 0 0 119.556 -22.8066 8.26368 633.976 -1567.93 1703.32 0 0 0 0.5 
593 2 2 2.05706 6.65077 0.821671 3 0 1 116.81 13.2277 -2.05882 1537.72 669.788 354.433 0 0 0 0.5 
22 1 1 1.21424 7.4624 0.0779558 10 0 0 223.438 -18.3116 11.4326 1626.91 -3266.32 -606.666 0 0 0 0.5 
219 1 1 1.33891 6.08157 0.40512 5 0 0 110.618 -16.3926 4.91247 -304.747 2058.48 988.494 0 0 0 0.5 