# vtk DataFile Version 4.2
Generated by LIGGGHTS
ASCII
DATASET POLYDATA
POINTS 1000 float
1.75208 0.409758 0.232264 2.29257 2.54744 1.30708 4.54732 1.46263 0.764623 
2.66268 3.21258 0.111632 1.54124 1.6335 1.95095 2.16259 3.56233 0.892649 
1.28562 0.350141 1.06522 0.986422 0.914376 0.603218 4.27955 4.31627 1.13484 
1.28905 3.45096 1.2871 1.38703 1.7446 0.984201 3.00065 1.33613 0.993282 
4.85573 3.08049 1.0295 1.26945 2.57545 1.59748 2.59498 0.449504 1.42746 
3.5802 0.632307 0.177432 3.08767 2.44328 0.494386 4.04313 3.49412 0.0942698 
2.02701 1.4565 0.216933 2.00977 3.61112 1.89291 2.19547 2.39166 0.413975 
1.49472 3.57038 0.325947 0.847991 1.64507 0.106444 0.446326 1.9472 1.18557 
2.15977 4.55064 0.0635039 2.08598 1.16673 1.52102 0.684843 2.58077 0.305326 
1.45078 2.68234 0.758194 3.95635 3.21238 1.07215 2.18024 4.75713 1.63995 
0.760557 3.93347 0.663164 0.387627 0.71044 1.98731 2.71414 4.76721 0.953453 
3.93231 2.27056 0.836538 3.07357 3.44398 1.09689 1.72602 4.30413 0.938119 
3.66948 0.899477 1.41099 0.202997 2.92307 0.854625 3.11929 4.28325 1.54151 
4.7907 2.09631 1.44976 3.07573 2.3502 1.84527 0.447744 3.33502 1.55132 
1.14468 4.65068 1.22853 4.3391 0.210817 0.0667321 0.293903 4.10974 1.59451 
0.0632556 4.2944 0.347177 4.00763 2.5415 1.7315 4.46386 1.97198 0.0655917 
4.54005 0.920414 1.52549 4.85614 3.44112 1.88167 3.52708 0.2112 2.01924 
1.98461 4.48802 2.84105 0.678283 2.70541 3.22468 4.59748 0.282469 2.50006 
1.33423 2.73679 3.94015 0.551841 1.90898 3.75188 4.48063 3.92503 3.47389 
3.65602 1.07165 2.98903 1.10329 1.38344 2.91096 2.78402 2.94246 2.38259 
2.12451 1.5452 2.94045 1.40767 2.78301 2.80168 2.63023 1.09824 2.31179 
1.90956 0.87526 3.61503 0.0526102 0.995757 3.37154 0.649725 2.51015 2.31525 
2.3079 2.8163 3.78456 1.75335 0.118964 2.93036 1.05554 0.607714 3.24765 
2.763 0.421993 2.8337 0.89654 1.8866 2.28153 2.05953 3.61093 3.6064 
1.40629 3.63459 2.59499 4.38955 3.07233 3.39833 1.70449 2.1626 3.30223 
3.04352 3.2103 3.46324 3.50306 4.02745 3.81732 0.120939 2.80238 2.19404 
0.826998 4.04379 2.45224 3.47663 0.767445 3.80305 0.261388 3.76437 3.21417 
4.07216 4.6879 2.88399 2.82063 2.21084 3.93138 1.86853 4.65518 3.78654 
4.60408 0.8854 3.07345 4.02938 0.123862 3.23477 4.49017 2.14928 3.60982 
1.10636 3.6696 3.71535 2.84955 4.86551 3.81185 0.306388 4.70414 3.36524 
1.95106 2.60658 2.087 4.12274 1.90472 2.47622 0.0835491 4.49324 2.43265 
3.56795 2.77463 2.99309 4.02481 3.75559 2.52092 2.68546 3.67556 2.73015 
4.31636 2.92334 2.48046 2.6428 4.69558 2.23465 2.77253 4.34577 3.12789 
2.00649 1.80251 4.62062 1.94916 1.37112 5.56919 1.61195 0.927665 4.43944 
1.73985 0.0235379 4.37396 0.788893 0.910464 5.5453 4.26482 1.72976 5.31406 
2.26615 2.63602 4.89785 0.579916 1.01907 4.13478 3.92105 2.60281 4.08427 
1.16424 1.8334 5.44568 3.7846 3.00217 5.3022 4.85347 2.89591 4.6493 
1.81634 0.270784 5.81229 1.41524 3.36697 5.4902 0.33871 4.986 5.52461 
3.48093 0.132953 5.48884 0.460676 1.74455 4.7239 1.38882 0.517213 5.1858 
2.07475 4.13874 4.30595 0.762573 0.101377 5.85117 2.24293 3.34726 4.56814 
0.0544981 0.0241122 4.04309 2.81973 0.0865668 4.60399 1.75153 4.4582 5.72127 
2.70879 0.897526 4.3714 0.343867 3.73308 5.21334 2.54569 4.12616 5.1771 
2.09607 4.64661 4.95576 2.97962 0.925 5.55572 2.78489 2.51435 5.59836 
4.30083 0.901532 5.35646 0.0999291 3.93043 4.21085 1.06982 4.67974 4.05604 
3.61969 0.946691 4.73548 4.05509 1.81818 4.43231 3.22243 3.35486 4.50523 
1.09726 4.8616 4.97463 4.13649 3.46439 4.32116 2.65883 3.35878 5.62171 
1.17048 3.813 4.6594 -0.0468575 4.79615 4.75594 3.45044 1.96772 5.21425 
4.63301 0.151555 5.21312 4.82184 4.24433 4.82886 4.92595 1.98077 4.55535 
4.88335 2.29681 5.75397 3.39522 0.514708 6.22065 2.10709 3.68093 6.16473 
2.53775 4.56201 6.08366 3.74908 2.07705 7.59559 2.34303 0.384941 6.60772 
4.72381 1.42057 6.09213 0.329319 1.71202 7.53222 3.3323 4.51189 6.80906 
1.31836 2.7058 6.47127 2.29018 2.57835 7.29393 0.973257 0.753741 7.27263 
2.05294 2.50055 6.13375 1.35473 0.221678 6.69673 0.045782 0.10056 6.66046 
3.5953 1.13497 6.7686 0.878148 1.86141 6.40191 2.17726 1.53349 7.62342 
1.7675 0.485034 7.64153 1.68039 3.87221 6.85202 2.02038 4.32157 7.59954 
4.05241 0.0101314 6.51719 0.139727 1.02809 6.77596 1.33263 1.75297 7.20757 
1.24794 2.91564 7.69091 1.09463 1.07524 6.4574 4.83413 0.85038 7.05634 
4.65678 2.5666 7.57358 4.56476 2.65265 6.38665 2.80848 1.72768 6.05852 
0.637915 3.0245 6.00218 1.98911 4.94332 6.73018 0.892455 3.69253 7.14797 
0.447868 4.66486 6.82036 3.68001 1.75036 6.08607 3.05174 2.44988 7.69722 
2.84998 0.744214 7.6149 0.419196 3.84744 6.29438 1.17963 4.47718 6.29285 
0.343513 3.24351 7.93623 0.141172 3.99875 7.32647 4.10697 1.44539 7.76492 
2.89967 2.44854 6.63882 2.79766 1.20059 6.80428 3.84749 0.682214 7.94821 
3.50421 0.000998055 7.31183 4.25042 3.40305 6.13327 4.31174 2.0355 6.89891 
4.30972 1.32032 6.83973 4.2447 0.104615 7.97788 4.95699 0.324216 6.46605 
4.82977 2.31229 8.27038 4.66384 1.55839 8.43992 1.2503 0.425875 8.57175 
2.21187 0.921352 8.42141 0.80942 1.96693 8.39552 0.75329 0.0286629 9.35747 
1.24386 0.850412 9.66474 4.69305 1.02553 8.9517 1.20216 3.24185 9.56543 
2.39223 3.89876 9.96805 4.53035 3.52522 9.0674 1.24037 3.67296 8.29774 
-0.0201881 2.75166 9.75083 1.69652 1.70681 9.44598 1.64214 2.02156 8.07813 
2.42234 4.26086 9.1571 2.06391 2.86484 8.1861 0.736306 1.10842 8.03414 
3.85678 0.511859 9.26167 1.54237 1.33003 8.53768 4.05343 1.457 9.12312 
1.56139 2.42996 8.90884 0.243508 2.22159 9.02369 1.17514 2.45974 9.61682 
4.42955 3.23637 8.1279 3.12214 2.65542 8.67662 0.749693 3.06564 8.8087 
3.7427 4.36797 9.55272 1.4657 4.25708 9.51148 4.7831 0.343558 8.80482 
3.02059 1.88284 9.41506 1.66904 4.99165 8.12201 4.14524 2.63401 9.88895 
2.87778 0.456609 8.75958 3.14204 0.997193 9.51237 0.897192 4.96804 8.05206 
0.464819 4.26488 9.49969 2.61416 4.70919 8.33152 0.594851 4.1455 8.15787 
3.82331 2.08336 8.53596 0.835367 4.05109 8.89686 2.86632 3.06616 9.31441 
3.05395 4.94318 9.8932 1.51017 9.75952 1.83387 0.182978 6.41119 1.67612 
1.8869 9.48912 0.342614 4.28482 8.94331 0.41813 0.500121 9.2694 1.32285 
2.9101 7.47975 1.64567 2.64198 5.51844 0.900571 0.402445 9.75702 0.30346 
3.3847 5.93185 1.67884 3.3475 7.26031 0.445701 1.30253 9.04515 0.969485 
2.78027 7.45154 0.729562 2.98346 6.35859 0.439685 3.46131 5.63239 0.514209 
4.74107 8.04174 1.06534 3.39701 8.14966 0.085125 3.29129 9.42113 0.544224 
1.77183 6.74798 0.840315 0.315849 8.14784 1.30792 1.06803 6.29709 1.41663 
2.23286 6.11166 1.161 1.10834 7.46581 0.0697664 1.29681 5.93436 0.448778 
4.44817 5.27123 0.76017 1.95003 5.39892 1.56806 0.316828 5.16314 1.609 
1.91491 8.52922 1.31378 -0.04748 6.18214 0.5617 2.19025 6.64486 0.0762261 
2.84557 8.23919 0.891985 2.18096 7.82181 1.93731 2.2062 8.43388 0.450068 
4.19864 6.26576 1.2295 1.2313 8.28129 0.32013 4.04562 7.12401 0.917017 
1.21307 5.00439 1.98635 3.80863 6.97494 1.87427 1.48561 5.32558 0.766794 
2.78372 9.05151 1.35347 3.62779 8.34579 1.32197 0.949621 6.9405 0.783957 
0.526415 5.08557 0.70278 0.117711 7.45794 0.0678687 3.90907 9.91577 1.14618 
1.94793 5.1275 0.3218 2.17074 9.38376 1.75096 3.16141 6.72011 1.30935 
4.75335 5.11612 1.71105 2.50744 9.78417 3.58404 0.0244637 9.73249 2.50433 
2.7915 7.68816 3.12088 3.46599 7.50767 3.59196 1.93372 9.44658 2.69123 
1.40458 7.78723 2.27662 4.52975 6.87211 2.46829 4.02594 9.53002 2.0219 
4.57891 8.94994 3.18552 2.74339 9.60483 2.50102 2.60666 5.52806 2.53819 
0.00514243 7.06108 2.99147 3.9125 8.95912 2.7239 3.18072 9.26537 3.06782 
0.646551 5.7308 3.28415 2.40469 5.96709 3.24002 3.44757 8.59177 3.45538 
3.34255 7.6087 2.40983 0.961028 9.67144 3.60293 3.22096 8.70446 2.12135 
3.32936 6.25614 3.16242 1.52629 8.96776 3.39688 1.96461 7.54206 2.86463 
4.7025 7.97744 3.80204 3.99521 6.73968 3.90697 2.25731 6.7797 3.20977 
0.129918 6.0037 2.49714 0.760726 5.82548 2.16687 0.359394 7.26347 2.11544 
0.999958 7.42238 3.08715 1.09624 8.50859 2.0343 0.865924 5.16959 2.74475 
2.24698 8.67647 2.26282 3.05654 9.22248 3.99941 0.486091 6.54877 3.113 
1.81498 5.76247 2.33282 3.24884 6.78989 2.58495 2.53137 6.48254 2.39763 
1.95416 8.27 3.30353 1.50733 5.90397 3.27532 0.84184 7.83686 3.82601 
3.0756 5.77388 3.91372 2.2162 7.58905 3.83103 2.9579 6.67937 3.94422 
1.50145 5.02363 3.05953 4.37652 8.43634 2.06418 4.43462 7.30007 3.221 
4.45154 5.94954 2.39429 0.71842 6.29809 3.98875 4.23279 9.21402 4.44817 
0.331376 8.26105 5.63919 3.56944 5.95403 4.80163 0.300107 8.39159 4.65223 
2.65944 8.55221 5.83448 1.64357 5.88741 5.12577 0.929553 6.07969 4.59573 
3.0781 8.63946 4.96666 0.267974 7.54285 4.33775 0.935344 8.91865 4.03167 
3.58247 6.85152 4.69234 4.37023 9.36831 5.4135 3.35784 7.28283 5.82844 
3.56056 9.25191 5.99187 2.47292 9.33343 5.81752 0.107148 5.54597 4.1938 
0.581399 9.91533 4.77666 0.266359 6.68378 5.63632 1.30875 9.56671 5.21821 
3.10874 6.21318 5.82767 0.467261 9.12727 5.33034 2.64261 8.38907 4.13306 
2.33735 8.87939 5.0228 0.0881165 6.68632 4.09938 1.58623 8.40903 5.68174 
1.03013 5.15343 5.86447 3.38752 9.7362 4.67491 2.1191 9.25683 4.3705 
1.46677 7.07698 4.23259 1.80079 8.23786 4.37365 2.07769 7.8541 5.57238 
2.15792 6.3428 5.80508 1.41362 5.58306 4.15222 2.33005 6.85537 4.19861 
4.51476 7.62143 4.69326 3.79056 7.80548 4.62588 2.45832 5.29264 5.54277 
0.829393 5.9461 5.50131 1.35084 7.66578 5.18085 0.816687 6.95863 4.83908 
1.18317 8.671 5.04544 3.11946 7.72711 5.00911 4.66682 6.70545 4.73465 
2.66301 6.88801 5.0485 1.5063 6.79113 5.36102 2.60144 6.02681 5.04776 
4.04679 8.56375 5.6641 2.28781 5.91384 4.17156 0.0433271 6.13473 4.86805 
2.21001 7.15842 5.86571 4.60094 7.10811 5.98605 1.94332 5.25335 4.65166 
0.266296 7.47859 5.22695 4.53631 7.91821 5.55657 0.736623 7.82821 6.37263 
2.41556 9.83151 7.30947 2.60844 9.09565 7.23635 2.73978 8.47629 6.73207 
1.60521 9.50319 6.13739 1.2186 5.07434 7.17442 1.44177 9.1238 7.10624 
0.516665 8.43855 6.583 1.04587 6.19831 7.35968 4.17752 8.78699 7.17917 
0.5371 9.11827 7.16805 3.21816 5.42609 6.86731 3.19332 5.49347 7.76343 
[...]
POINT_DATA 1000
FIELD FieldData 7
id 1 1000 int
887 428 307 467 513 359 820 352 779 
727 461 266 618 258 32 77 516 898 
487 609 921 524 216 27 190 4 531 
566 555 95 881 365 937 533 756 697 
16 909 574 308 538 316 864 267 787 
91 139 923 346 510 505 974 759 980 
596 101 366 228 692 886 485 890 738 
259 900 656 411 450 425 975 159 460 
600 627 12 832 429 342 392 137 933 
100 19 357 373 477 509 549 427 714 
762 15 667 939 807 731 623 354 961 
47 169 39 967 476 75 902 585 249 
658 389 932 145 18 271 837 792 640 
333 673 243 691 111 746 761 56 522 
451 129 445 240 217 941 486 147 396 
299 358 644 288 942 493 724 465 689 
369 687 785 678 2 332 539 204 420 
608 572 569 568 355 350 498 865 236 
399 671 613 821 548 213 284 412 205 
326 257 734 869 816 996 94 948 439 
944 311 863 206 220 226 65 21 67 
395 348 806 283 781 120 69 956 96 
703 519 856 775 224 406 241 551 876 
265 800 245 430 767 282 790 237 233 
431 819 592 51 875 413 261 40 719 
559 415 935 771 229 478 281 739 990 
662 242 446 384 133 208 246 462 633 
398 576 853 37 292 196 328 686 696 
710 118 385 155 13 457 810 906 685 
643 582 917 798 706 811 252 512 390 
279 723 976 136 614 631 210 607 593 
845 447 269 758 262 176 529 163 958 
601 981 879 386 164 541 1 108 149 
458 874 20 81 884 423 664 469 221 
841 433 520 700 153 28 341 349 174 
453 945 218 117 68 889 934 85 622 
419 605 197 256 812 946 104 162 867 
802 48 394 248 564 615 949 683 728 
417 645 815 184 588 695 744 360 913 
540 561 29 214 483 443 10 712 669 
178 222 751 991 527 300 444 914 638 
209 834 888 988 481 971 238 181 693 
824 610 736 545 472 432 628 489 660 
504 634 657 573 502 528 491 896 191 
694 894 705 253 624 866 782 676 30 
148 436 630 74 844 296 353 715 173 
440 274 553 972 479 989 290 560 985 
701 534 124 484 558 547 152 50 702 
537 132 546 920 599 88 219 704 799 
294 3 34 11 230 382 306 337 195 
998 632 363 377 166 571 323 580 957 
115 131 448 809 508 58 435 46 817 
733 310 66 955 97 892 301 424 885 
871 144 36 651 688 426 82 500 813 
70 515 125 212 490 562 554 760 526 
765 647 9 755 579 304 119 857 335 
456 783 130 625 106 507 138 908 110 
882 565 899 121 795 743 793 777 329 
682 903 374 62 280 126 167 840 587 
822 905 670 789 264 740 924 677 293 
1000 371 776 318 860 275 506 619 966 
962 780 749 603 770 380 907 331 804 
517 895 858 449 597 7 364 72 659 
536 764 919 434 803 255 112 480 193 
737 530 370 650 637 930 730 175 868 
503 151 828 319 943 231 784 773 938 
514 716 729 232 742 901 198 748 234 
878 954 200 993 298 391 278 951 987 
583 823 25 408 769 188 17 404 379 
835 717 157 327 626 250 501 827 543 
235 679 437 340 80 725 347 277 641 
918 936 154 708 254 86 225 752 35 
187 313 557 383 970 33 123 361 83 
829 141 968 38 646 611 410 134 653 
818 511 830 750 49 14 973 158 488 
189 418 345 287 616 98 375 351 303 
722 251 861 635 675 648 912 532 778 
53 843 523 805 89 442 666 321 766 
497 270 636 598 272 43 654 521 454 
916 127 314 492 741 227 409 495 403 
61 661 786 594 992 586 201 929 168 
463 846 79 42 839 343 910 581 928 
707 317 754 312 146 92 584 672 260 
826 263 339 772 612 161 674 142 468 
763 983 595 202 109 52 836 400 416 
63 796 872 78 680 849 194 745 84 
90 994 470 842 55 649 979 405 904 
452 368 838 114 22 606 556 833 927 
621 563 940 788 747 297 570 322 401 
552 978 455 578 883 589 407 135 995 
854 496 681 309 893 143 466 421 268 
244 814 376 289 873 105 925 518 713 
774 59 422 604 273 791 6 54 620 
362 931 986 160 185 286 471 334 103 
969 999 203 122 698 473 665 915 684 
711 825 897 959 726 911 356 170 720 
397 24 324 336 464 344 5 183 381 
870 338 76 794 186 953 808 617 150 
952 177 880 320 831 602 474 247 192 
113 847 851 997 965 550 922 542 801 
44 23 207 690 721 182 757 295 891 
325 93 8 459 41 482 848 171 535 
797 499 768 302 950 57 156 577 211 
140 855 367 239 567 387 977 652 663 
591 388 215 732 285 180 441 642 165 
45 378 850 99 862 852 590 964 128 
960 963 276 414 639 629 393 494 179 
438 984 877 71 291 87 709 107 315 
947 475 199 655 172 330 116 544 73 
60 64 982 718 699 102 525 735 926 
668 26 305 859 402 753 223 575 31 
372 
type 1 1000 int
2 1 1 1 2 1 2 1 2 
2 1 1 2 1 1 1 2 2 
1 2 2 2 1 1 1 1 2 
2 2 1 2 1 2 2 2 2 
1 2 2 1 2 1 2 1 2 
1 1 2 1 2 2 2 2 2 
2 1 1 1 2 2 1 2 2 
1 2 2 1 1 1 2 1 1 
2 2 1 2 1 1 1 1 2 
1 1 1 1 1 2 2 1 2 
2 1 2 2 2 2 2 1 2 
1 1 1 2 1 1 2 2 1 
2 1 2 1 1 1 2 2 2 
1 2 1 2 1 2 2 1 2 
1 1 1 1 1 2 1 1 1 
1 1 2 1 2 1 2 1 2 
1 2 2 2 1 1 2 1 1 
2 2 2 2 1 1 1 2 1 
1 2 2 2 2 1 1 1 1 
1 1 2 2 2 2 1 2 1 
2 1 2 1 1 1 1 1 1 
1 1 2 1 2 1 1 2 1 
2 2 2 2 1 1 1 2 2 
1 2 1 1 2 1 2 1 1 
1 2 2 1 2 1 1 1 2 
2 1 2 2 1 1 1 2 2 
2 1 1 1 1 1 1 1 2 
1 2 2 1 1 1 1 2 2 
2 1 1 1 1 1 2 2 2 
2 2 2 2 2 2 1 2 1 
1 2 2 1 2 2 1 2 2 
2 1 1 2 1 1 2 1 2 
2 2 2 1 1 2 1 1 1 
1 2 1 1 2 1 2 1 1 
2 1 2 2 1 1 1 1 1 
1 2 1 1 1 2 2 1 2 
1 2 1 1 2 2 1 1 2 
2 1 1 1 2 2 2 2 2 
1 2 2 1 2 2 2 1 2 
2 2 1 1 1 1 1 2 2 
1 1 2 2 2 1 1 2 2 
1 2 2 2 1 2 1 1 2 
2 2 2 2 1 1 2 1 2 
2 2 2 2 2 2 1 2 1 
2 2 2 1 2 2 2 2 1 
1 1 2 1 2 1 1 2 1 
1 1 2 2 1 2 1 2 2 
2 2 1 1 2 2 1 1 2 
2 1 2 2 2 1 1 2 2 
1 1 1 1 1 1 1 1 1 
2 2 1 1 1 2 1 2 2 
1 1 1 2 2 1 1 1 2 
2 1 1 2 1 2 1 1 2 
2 1 1 2 2 1 1 1 2 
1 2 1 1 1 2 2 2 2 
2 2 1 2 2 1 1 2 1 
1 2 1 2 1 2 1 2 1 
2 2 2 1 2 2 2 2 1 
2 2 1 1 1 1 1 2 2 
2 2 2 2 1 2 2 2 1 
2 1 2 1 2 1 2 2 2 
2 2 2 2 2 1 2 1 2 
2 2 2 1 2 1 1 1 2 
2 2 2 1 2 1 1 1 1 
2 2 1 2 2 2 2 1 2 
2 1 2 1 2 1 2 2 2 
2 2 2 1 2 2 1 2 1 
2 2 1 2 1 1 1 2 2 
2 2 1 1 2 1 1 1 1 
2 2 1 1 2 1 2 2 2 
1 2 1 1 1 2 1 1 2 
2 2 1 2 1 1 1 2 1 
1 1 2 1 2 1 1 1 1 
2 1 2 1 2 2 1 1 2 
2 2 2 2 1 1 2 1 1 
1 1 1 1 2 1 1 1 1 
2 1 2 2 2 2 2 2 2 
1 2 2 2 1 1 2 1 2 
1 1 2 2 1 1 2 2 1 
2 1 1 1 2 1 1 1 1 
1 2 2 2 2 2 1 2 1 
1 2 1 1 2 1 2 2 2 
2 1 2 1 1 1 2 2 1 
2 1 1 2 2 1 2 1 1 
2 2 2 1 1 1 2 1 1 
1 2 2 1 2 2 1 2 1 
1 2 1 2 1 2 2 1 2 
1 1 2 1 1 2 2 2 2 
2 2 2 2 2 1 2 1 1 
2 2 1 2 2 2 1 1 2 
2 1 2 1 2 1 1 1 1 
1 2 1 1 2 1 2 2 2 
2 1 1 2 1 2 1 1 2 
1 2 2 1 1 1 1 1 1 
2 2 1 1 2 1 2 2 2 
2 2 2 2 2 2 1 1 2 
1 1 1 1 1 1 1 1 1 
2 1 1 2 1 2 2 2 1 
2 1 2 1 2 2 1 1 1 
1 2 2 2 2 2 2 2 2 
1 1 1 2 2 1 2 1 2 
1 1 1 1 1 1 2 1 2 
2 1 2 1 2 1 1 2 1 
1 2 1 1 2 1 2 2 2 
2 1 1 2 1 1 1 2 1 
1 1 2 1 2 2 2 2 1 
2 2 1 1 2 2 1 1 1 
1 2 2 1 1 1 2 1 1 
2 1 1 2 1 1 1 2 1 
1 1 2 2 2 1 2 2 2 
2 1 1 2 1 2 1 2 1 
1 
i 3 1000 int
47 1 0 -31 0 1 88 1 0 
121 1 1 -37 0 0 -15 0 0 
-39 0 0 -25 0 1 -12 0 0 
-41 0 1 99 1 0 -70 0 0 
-15 0 1 -35 0 1 106 1 0 
71 1 1 -70 0 1 -28 0 0 
-53 0 0 -14 0 0 -40 0 1 
-14 0 1 -49 0 1 -41 0 1 
-19 0 1 -77 0 0 -27 0 0 
100 1 1 -12 0 0 -7 0 0 
-4 0 0 -77 0 0 -13 0 0 
118 1 0 -20 0 1 -25 0 0 
-61 0 0 -7 0 1 -7 0 1 
-17 0 1 114 1 0 -52 0 0 
-21 0 1 -73 0 1 -32 0 1 
-4 0 0 -20 0 1 30 1 0 
81 1 0 -27 0 0 -54 0 0 
162 1 1 -23 0 0 62 1 1 
-37 0 1 -18 0 0 -10 0 0 
-58 0 1 63 1 0 114 1 0 
-49 0 1 -13 0 0 107 1 1 
-54 0 -1 -29 0 0 -38 0 1 
-28 0 0 23 1 0 -56 0 0 
76 1 1 89 1 0 -4 0 0 
-13 0 1 -10 0 0 -51 0 0 
-26 0 0 -19 0 0 -14 0 1 
-16 0 0 -94 0 0 -10 0 0 
-9 0 0 -36 0 0 -97 -1 1 
-39 0 0 39 1 0 -37 0 0 
-83 0 0 -1 0 0 145 1 0 
-60 0 0 -44 0 1 -50 0 0 
-10 0 0 -21 0 0 154 1 0 
-29 0 1 -14 0 1 2 0 0 
-33 0 0 71 1 0 -53 0 0 
66 1 -1 -6 0 0 46 1 1 
76 1 0 -41 0 1 -47 0 1 
-12 0 0 -23 0 0 -15 0 0 
65 1 0 -13 0 0 -49 0 0 
-83 0 0 46 1 0 -66 0 0 
6 0 0 53 1 -1 -23 0 0 
43 1 0 29 1 0 2 0 0 
-64 0 0 -20 0 0 -9 0 0 
1 0 0 -61 0 0 -7 0 0 
-61 0 0 -13 0 0 -6 0 0 
62 1 1 -60 0 0 -19 0 0 
-13 0 0 -13 0 0 136 1 0 
3 0 -1 12 0 0 92 1 0 
-97 0 0 3 0 0 -30 0 0 
-22 0 0 49 1 0 121 1 0 
-5 0 0 1 0 0 -64 0 0 
-63 0 0 -80 0 0 5 0 0 
-13 0 0 -33 0 0 115 1 -1 
-29 0 0 45 1 0 33 1 0 
118 1 0 -32 0 -1 -52 0 0 
-57 0 -1 3 0 0 -20 0 0 
75 1 0 -49 0 0 75 1 0 
-70 0 0 -107 0 0 -83 0 -1 
0 0 0 -15 0 0 -25 0 0 
-23 0 0 -4 0 0 5 0 -1 
-17 0 0 92 1 0 -13 0 0 
-47 0 0 -3 0 0 -22 0 0 
-40 0 0 109 1 0 -45 0 0 
-3 0 0 -68 0 0 99 1 0 
21 1 0 -3 0 0 -53 0 0 
-73 0 0 54 1 0 -65 0 -1 
-33 0 0 -39 0 0 -29 0 0 
-72 0 0 -26 0 -1 -72 0 0 
-63 0 -1 -61 0 0 -36 0 0 
121 1 0 0 0 0 -19 0 0 
-30 0 0 106 1 -1 -25 0 0 
-18 0 0 -36 0 0 85 1 -1 
-58 0 0 -27 0 0 -32 0 0 
-39 0 -1 -26 0 0 -9 0 -1 
7 0 0 14 0 0 -35 0 -1 
-6 0 0 -8 0 0 74 1 0 
-71 0 0 -1 0 -1 -18 0 0 
-49 0 -1 -33 0 0 14 0 0 
24 0 -1 4 0 0 1 0 -1 
-21 0 0 -98 -1 0 -19 0 0 
-33 0 0 57 0 1 7 0 0 
97 0 1 77 0 0 -63 -1 1 
25 0 0 46 0 0 45 0 0 
-130 -1 0 -130 -1 0 103 0 0 
7 0 0 20 0 0 9 0 0 
55 0 0 79 0 1 -96 -1 0 
10 0 1 -17 0 0 4 0 0 
37 0 0 25 0 0 19 0 1 
-27 0 1 12 0 0 14 0 0 
-74 -1 0 39 0 1 1 0 1 
80 0 1 20 0 0 27 0 0 
165 1 0 41 0 0 37 0 0 
-15 0 0 37 0 1 10 0 0 
64 0 0 28 0 1 17 0 1 
-17 0 1 35 0 1 -67 -1 1 
-21 0 0 -69 -1 0 22 0 1 
-4 0 0 70 0 0 77 0 1 
24 0 0 30 0 0 81 0 1 
26 0 0 25 0 0 42 0 0 
-97 -1 -1 -54 -1 1 -6 0 0 
21 0 0 37 0 0 -105 -1 0 
19 0 1 28 0 0 -75 -1 0 
23 0 0 59 0 0 39 0 0 
31 0 0 58 0 -1 40 0 0 
36 0 0 23 0 0 18 0 0 
20 0 0 22 0 0 35 0 -1 
26 0 0 30 0 0 21 0 0 
-48 -1 0 46 0 0 2 0 0 
14 0 0 51 0 1 10 0 0 
30 0 0 13 0 0 33 0 0 
-17 0 0 34 0 1 20 0 0 
-2 0 1 41 0 0 -14 0 0 
-7 0 1 37 0 0 42 0 -1 
-108 -1 0 -2 0 0 73 0 0 
58 0 1 4 0 0 18 0 0 
33 0 0 37 0 0 49 0 0 
32 0 0 20 0 0 30 0 0 
53 0 0 -69 -1 0 7 0 0 
-91 -1 0 38 0 0 37 0 0 
6 0 0 47 0 0 29 0 0 
-53 -1 1 45 0 0 -119 -1 0 
9 0 0 111 0 0 83 0 0 
47 0 0 12 0 0 50 0 -1 
17 0 0 -2 0 0 11 0 -1 
-94 -1 0 19 0 0 132 1 0 
35 0 0 49 0 -1 41 0 0 
-90 -1 0 29 0 0 28 0 0 
9 0 0 22 0 -1 -106 -1 1 
68 0 -1 20 0 0 14 0 0 
15 0 0 51 0 -1 31 0 0 
18 0 0 50 0 -1 23 0 0 
-39 -1 0 -62 -1 0 20 0 -1 
30 0 -1 -2 0 -1 59 0 0 
-106 -1 0 6 0 0 -21 -1 0 
-84 -1 0 25 0 -1 8 0 -1 
56 0 -1 61 0 -1 0 0 0 
-15 0 0 26 0 0 36 0 0 
29 0 0 46 0 0 25 0 -1 
49 0 0 79 0 0 58 0 0 
15 0 0 -71 -1 -1 -116 -1 1 
26 0 -1 38 0 0 46 0 0 
70 0 0 29 0 0 32 0 0 
24 0 0 27 0 0 69 0 0 
26 0 0 17 0 0 68 0 0 
0 0 0 9 0 0 76 0 0 
55 0 0 56 0 0 0 0 0 
-69 -1 0 10 0 -1 31 0 0 
12 0 -1 67 0 -1 80 0 -1 
40 0 0 43 0 0 91 0 0 
-20 0 -1 63 0 0 -53 -1 -1 
66 0 -1 74 0 -1 -59 -1 0 
-91 -1 0 18 0 -1 7 0 -1 
-96 -1 1 9 0 -1 8 0 0 
-59 -1 -1 83 0 0 35 0 -1 
26 0 -1 33 0 -1 -8 0 0 
76 0 -1 -106 -1 0 30 0 -1 
13 0 -1 77 0 0 7 0 -1 
84 0 -1 -10 0 0 -13 0 0 
9 0 0 1 0 0 32 0 -1 
54 0 -1 7 0 0 10 0 -1 
-10 0 -1 -6 0 -1 -70 -1 -1 
27 0 -1 8 0 0 36 0 -1 
18 0 -1 4 0 0 99 0 0 
36 0 0 -89 -1 -1 -86 -1 0 
97 0 -1 -60 0 0 72 1 1 
-38 0 0 -33 0 1 -46 0 1 
84 1 0 -36 0 0 101 1 0 
-40 0 0 -21 0 0 -41 0 0 
-10 0 0 0 0 0 -39 0 1 
-4 0 0 -17 0 1 -13 0 0 
4 0 0 -23 0 0 -45 0 0 
-22 0 1 -40 0 1 -18 0 1 
-17 0 0 -22 0 1 -55 0 0 
86 1 0 -47 0 0 -27 0 0 
72 1 0 -65 0 0 -43 0 1 
-8 0 0 -17 0 0 -10 0 1 
-26 0 0 -44 0 0 69 1 0 
73 1 0 -11 0 1 -18 0 1 
-12 0 1 -16 0 0 -7 0 1 
-54 0 0 -7 0 0 -41 0 1 
-29 0 1 -14 0 1 -61 0 0 
-50 0 0 -26 0 0 -47 0 1 
-29 0 1 -8 0 1 -30 0 0 
-39 0 0 -18 0 1 -12 0 1 
-24 0 0 -99 0 0 -96 0 1 
67 1 0 -34 0 0 -24 0 1 
-26 0 0 5 0 0 -80 0 0 
-24 0 0 -57 0 0 -5 0 0 
-6 0 0 -34 0 1 -21 0 0 
-15 0 0 67 1 0 -24 0 0 
-84 0 0 -41 0 1 -19 0 0 
-40 0 0 67 1 0 -24 0 1 
-6 0 0 -34 0 1 71 1 0 
-13 0 0 -17 0 1 -3 0 0 
-12 0 0 -31 0 1 -13 0 0 
-72 0 0 14 0 0 -44 0 1 
-21 0 0 -32 0 0 -24 0 1 
-6 0 0 -27 0 0 -32 0 1 
-52 0 1 -23 0 0 9 0 0 
-33 0 0 -41 0 0 78 1 1 
-29 0 1 18 0 -1 -43 0 0 
-15 0 0 63 1 -1 -43 0 0 
61 1 0 70 1 0 -82 0 0 
16 0 0 -56 0 0 -11 0 0 
89 1 -1 -18 0 0 47 1 0 
-32 0 1 99 1 -1 -60 0 0 
-7 0 0 21 0 0 10 0 0 
-55 0 0 11 0 0 -45 0 0 
-10 0 0 -35 0 0 -18 0 0 
-8 0 0 0 0 -1 -21 0 0 
26 1 0 -25 0 0 -58 0 0 
-26 0 0 -14 0 0 -60 0 0 
-5 0 0 -11 0 0 -16 0 0 
-4 0 0 -85 0 1 -6 0 0 
-33 0 0 5 0 0 2 0 0 
-66 0 0 2 0 0 -17 0 1 
-23 0 0 6 0 -1 -68 0 1 
-44 0 0 -58 0 0 60 1 0 
-21 0 0 94 1 -1 102 1 0 
-39 0 0 -12 0 0 63 1 0 
-6 0 0 1 0 0 92 1 0 
-41 0 0 -28 0 0 -11 0 0 
-11 0 0 -29 0 0 104 1 0 
72 1 0 -17 0 -1 72 1 -1 
-51 0 0 6 0 0 11 0 0 
-28 0 0 5 0 0 -65 0 1 
58 1 0 -46 0 0 60 1 0 
62 1 0 -12 0 0 2 0 0 
47 1 -1 -15 0 0 55 1 0 
-62 0 0 -17 0 0 -1 0 0 
-94 -1 0 -10 0 0 83 1 0 
18 0 -1 25 0 -1 -92 0 1 
4 0 0 8 0 0 -41 0 1 
-55 0 -1 -35 0 0 4 0 -1 
27 0 0 12 0 -1 -31 0 0 
91 1 0 -46 0 0 -49 0 0 
-19 0 0 -70 0 -1 -45 0 0 
-55 0 1 -2 0 0 76 1 0 
-34 0 -1 -41 0 0 -37 0 0 
-85 0 0 -79 0 0 -43 0 0 
137 1 0 -36 0 0 1 0 -1 
-76 0 0 -22 0 -1 -59 0 1 
-40 0 0 -80 0 0 81 1 0 
-45 0 0 -13 0 0 3 0 0 
77 1 0 -18 0 0 -35 0 0 
-47 0 0 -30 0 0 -11 0 0 
-15 0 0 0 0 0 -7 0 -1 
-151 -1 -1 -14 0 0 -40 0 0 
-4 0 0 -8 0 0 6 0 0 
-33 0 0 -18 0 -1 -66 0 0 
97 1 -1 -17 0 0 -22 0 0 
-36 0 0 5 0 0 -6 0 0 
-9 0 -1 -49 0 -1 11 0 0 
7 0 1 12 0 0 49 0 1 
49 0 0 6 0 0 114 0 1 
78 0 0 -50 -1 0 -38 -1 0 
36 0 0 6 0 0 -6 0 0 
11 0 1 -51 -1 0 -4 0 1 
-112 -1 0 0 0 1 67 0 1 
11 0 0 27 0 0 36 0 0 
-45 -1 1 38 0 0 -1 0 1 
46 0 1 1 0 0 24 0 0 
13 0 0 -20 0 0 2 0 1 
-115 -1 0 45 0 0 -53 -1 0 
49 0 0 18 0 0 8 0 1 
4 0 0 -3 0 1 22 0 0 
28 0 0 -86 -1 1 72 0 0 
-79 -1 1 13 0 0 42 0 0 
41 0 0 16 0 0 4 0 0 
36 0 0 8 0 0 23 0 1 
21 0 0 -13 0 0 -50 -1 1 
-13 0 0 82 0 1 9 0 0 
23 0 0 6 0 0 25 0 0 
35 0 0 67 0 0 20 0 0 
-142 -1 0 -62 -1 1 -56 -1 0 
-90 -1 -1 -38 -1 0 37 0 0 
10 0 0 -69 -1 0 -88 -1 1 
-44 -1 1 33 0 0 -129 -1 -1 
31 0 1 -72 -1 1 24 0 0 
-8 0 0 11 0 1 3 0 0 
-1 0 0 13 0 0 36 0 1 
42 0 0 11 0 0 52 0 0 
32 0 0 17 0 0 3 0 0 
43 0 0 -9 0 0 -63 -1 0 
36 0 0 21 0 0 1 0 0 
17 0 1 22 0 0 41 0 0 
31 0 0 54 0 -1 17 0 0 
64 0 0 65 0 0 -91 -1 -1 
19 0 0 58 0 0 7 0 0 
33 0 -1 80 0 -1 37 0 0 
48 0 0 11 0 0 16 0 0 
15 0 -1 29 0 -1 17 0 0 
6 0 0 23 0 0 46 0 0 
48 0 0 36 0 0 35 0 0 
54 0 0 33 0 1 42 0 -1 
30 0 0 41 0 0 24 0 0 
12 0 0 34 0 0 62 0 0 
27 0 0 -76 -1 0 22 0 0 
19 0 -1 8 0 0 -69 -1 0 
15 0 0 0 0 -1 31 0 0 
19 0 0 -108 -1 1 -105 -1 -1 
18 0 -1 -46 -1 0 74 0 1 
25 0 -1 78 0 0 48 0 -1 
54 0 0 40 0 0 15 0 -1 
40 0 -1 35 0 -1 10 0 0 
7 0 0 -75 -1 -1 23 0 0 
-88 -1 1 -1 0 -1 67 0 0 
93 0 -1 14 0 0 -69 -1 -2 
62 0 0 13 0 -1 69 0 0 
27 0 0 69 0 -1 46 0 0 
65 0 0 -102 -1 0 39 0 -1 
-99 -1 0 2 0 0 -71 -1 -1 
43 0 0 9 0 0 32 0 0 
-88 -1 0 -64 -1 0 26 0 0 
-104 -1 1 66 0 -1 20 0 0 
23 0 0 -91 -1 0 43 0 -1 
52 0 0 -60 -1 0 47 0 0 
-37 -1 -1 -35 0 0 -64 -1 0 
5 0 -1 28 0 -1 8 0 0 
75 0 0 41 0 0 -63 -1 0 
50 0 -1 30 0 0 -66 -1 -1 
1 0 -1 6 0 -1 55 0 -1 
21 0 -1 62 0 0 98 0 0 
14 0 0 -40 -1 0 3 0 0 
45 0 0 -79 -1 0 7 0 0 
20 0 0 12 0 0 -114 -1 -1 
-104 -1 0 -82 -1 -1 23 0 -1 
-2 0 0 1 0 0 38 0 0 
7 0 0 41 0 -1 -2 0 -1 
-73 -1 0 21 0 -1 -1 0 -1 
-78 -1 -1 25 0 0 21 0 0 
-17 0 0 71 0 -1 41 0 -1 
-76 -1 0 -81 -1 0 51 0 0 
-13 0 -1 64 0 -1 57 0 0 
-46 -1 0 
v 3 1000 double
-441.12553821 1.6057115674 -25.386009679 -234.15159087 3.2835107339 -3.7881052895 -322.02169258 -15.391310454 16.5259022 
-153.91339574 -23.953810573 28.898173725 -311.45098045 -0.37053498863 2.4019039062 -144.05987806 -7.0344114518 7.5906243546 
-396.17907543 -36.868968564 46.250603445 -385.13474229 -3.7556682353 15.864969594 -84.213880416 5.7321762547 -8.4637644574 
-145.56930759 8.8280272747 6.6733843623 -320.06563872 1.6943387741 -0.99844877866 -382.48693684 6.7206433799 -19.649677407 
-172.64869474 -11.936254126 18.20537129 -211.46534777 -20.84598103 11.511693393 -398.05932978 -14.77768602 -26.334262709 
-424.97768817 5.5765495032 26.523598384 -248.480696 0.80342597547 -2.5259293756 -168.35220091 23.416286451 -0.34633984906 
-357.82712748 2.5755162201 10.986934563 -172.4259086 19.642320088 -9.3432712357 -250.16394133 -8.8760385764 -5.6024434951 
-127.98379984 -12.433499325 -5.8276268901 -344.2304287 15.048652232 6.9831670173 -319.43135911 16.974002825 -6.8098411861 
-53.575885155 6.4983644651 -3.5283625845 -327.14742713 -4.9359244339 7.8418498314 -226.24219098 -8.3236287652 -16.403985071 
-235.51633734 15.413839127 -8.8281780626 -166.83482095 8.9954177537 -7.7315402546 -52.293127782 -28.318217861 -13.604614005 
-98.079067747 -3.157375701 -7.7085098356 -396.48584805 -10.265411041 -14.778050107 -56.70635402 -10.066497937 -40.639602965 
-249.28658095 -7.4062895291 7.2497695943 -159.45502127 -0.78009038053 -20.286378818 -71.408387637 -2.9484729186 -19.972314623 
-385.09143105 -6.9788442144 -2.5087077035 -204.98988324 -14.02269919 27.703724852 -81.315071263 3.6599063627 2.3020783423 
-254.61121215 -0.086260488118 -13.251530005 -248.76077924 -24.401927439 1.1496403734 -142.36712458 -14.590317166 9.2593029823 
-63.005104476 -10.131065658 1.482691493 -436.64563901 -3.5065485807 -8.7253969672 -79.646293534 20.82507292 -5.8656915231 
-69.665815947 5.7269067418 5.3940814929 -251.36870512 3.6667302022 11.473620266 -261.97004183 -19.350553503 -7.8098781287 
-383.03748964 -2.5257060087 21.131195161 -167.50437679 -6.157581031 5.6696893062 -466.60957771 3.2105295775 5.8856003774 
-62.088439315 -23.205142631 -18.304947992 -219.67642159 7.3950465714 27.176794995 -429.19084586 -14.037447122 -9.5078890215 
-212.26502677 7.2973751769 26.281774288 -308.9424921 -3.4837341398 6.6794217578 -119.57232642 19.874090091 3.493581564 
-346.796216 -3.777736062 6.5328902684 -345.81842645 0.50572505712 10.713893517 -209.32610853 -4.4699599687 2.9743182893 
-364.23902072 1.2134717841 -9.2922913367 -230.84665136 13.282036922 -2.0700037587 -348.40916258 6.0273529421 11.702107991 
-405.77850572 1.33810981 -17.47445637 -378.35481547 -14.291468406 -18.539066635 -237.87317631 8.9918778141 9.9507524276 
-208.54902446 -18.659177527 2.8743102448 -426.11444226 12.948275401 -3.749855383 -416.615679 -11.821081477 17.046130358 
-405.30623587 11.422614357 -5.5984466996 -316.25492611 -15.527118116 0.37680298734 -138.54596808 8.5483858178 -27.52123148 
-145.77853195 5.6638330823 14.912937769 -232.59567149 18.949995746 17.643929298 -268.9899609 -8.4413374399 25.468120204 
-187.35428925 19.925062045 21.761246077 -123.78403604 5.6301198188 5.075028874 -240.54451044 7.2367478091 1.8578342147 
-118.04358157 17.648638622 4.2050366758 -388.24479476 -5.4907674746 -1.6122018526 -112.42991564 -12.114134899 -1.5928497797 
-79.169683776 17.844550473 7.0175890115 -230.27615215 -25.15307176 2.2754326835 6.9115945768 11.148151097 -17.543224201 
-342.55344387 6.8360227687 21.13372369 -369.70940607 1.9320553889 -10.349697149 -267.15697095 3.2317376533 -6.2724843218 
-95.543357906 -2.140447198 -15.791401292 9.9269690449 -4.8588810743 10.565615831 -28.099967239 14.084418936 -2.5469829256 
-215.31811449 -12.044757749 22.646838462 -259.67166275 -7.0899942981 5.5943023626 -102.11272573 31.171969967 -3.2581761211 
-206.43077949 -15.017238079 7.6999970212 -138.17442532 8.6483896623 -0.021959226208 -166.80786174 9.7505394747 -13.090523993 
-217.72453687 -0.24882495565 -3.5323745126 -53.42026901 2.0806747597 8.5672821888 -57.258794907 15.688426723 2.2303706775 
-284.76646717 -15.66719956 -33.493108952 -337.81387679 -5.3229613555 17.3365427 -417.25733893 17.444377859 -22.270108154 
-479.17645324 1.0149094629 4.5810799242 -400.56674896 14.99982191 -1.3454317833 -290.82874253 6.9752390811 -5.2884701241 
-226.50033919 -7.4175734529 -15.324414339 -408.55987034 -6.2152809842 15.015557916 -253.62275123 14.027141002 1.4545526374 
-306.65071715 7.2794290354 -10.818641973 -223.05467883 17.165434351 7.7564187371 -250.887464 25.572563168 -21.855905371 
-514.84335441 22.005691431 14.32109638 -131.52109789 -10.319777898 8.9672111277 43.257665846 -25.632627892 1.9151415078 
-520.59384984 -9.6193643461 -3.4599788325 -359.31783747 11.002055069 31.708250784 -489.32411591 3.5816229226 -22.287817582 
-75.602489593 -5.1674589334 9.1177918333 -484.58173942 -25.744069621 9.3296054859 -174.40365226 13.657338798 3.5773292866 
-508.85270076 -9.8922740975 -32.449841866 -527.74294284 -12.711709325 5.6808117505 -37.978004846 -2.4564047268 -9.7537453009 
-397.88167934 10.594841912 -15.948955123 -106.23526924 -1.1567399076 -4.9854323623 -90.201938549 3.4938412038 30.577619555 
-24.01630823 1.1174491734 11.089302322 -405.23990419 2.6984307311 -26.643961402 -221.07628906 -0.68325328118 -14.496215618 
-378.92745016 -21.245499539 -3.5154360578 -104.55291705 0.71991473021 -10.307412209 -2.6230034183 -17.026842683 -4.6327576303 
-386.34883309 -6.1212532344 -3.1416006314 -302.34207689 -15.909921061 -10.815271247 -167.04391841 6.0903589047 -1.1265611462 
25.479225035 -11.411822478 -4.8381802857 -155.09415191 29.912721507 12.749854658 -151.49787297 8.781349787 0.79596303959 
-106.62469289 -6.4447967503 -10.768624309 34.485653109 -25.769787144 -0.7840114175 -297.51581614 2.4083849319 -2.984602755 