# vtk DataFile Version 4.2
Generated by LIGGGHTS
ASCII
DATASET POLYDATA
POINTS 1000 float
1.89228 4.05152 1.37377 1.20151 0.848434 1.07712 1.25912 3.37601 1.78645 
0.130113 1.09579 0.00972836 2.72599 1.46288 1.4559 1.83237 1.70864 1.63728 
1.41694 0.20615 1.56425 0.493091 0.34823 0.595131 2.5901 3.19311 0.865617 
4.37081 0.848069 0.0745481 4.70677 2.58691 0.843156 0.961861 1.64629 1.49015 
0.891692 2.33361 0.885669 1.52322 1.97048 0.286768 1.75252 0.16065 0.628337 
1.60268 2.62867 1.56395 0.762248 1.38228 0.623041 2.11409 1.62421 0.74132 
1.62355 3.2071 0.882543 4.08182 3.25202 0.907306 1.27834 0.828976 0.0769153 
0.359967 2.09936 0.0561202 0.00474678 0.190632 1.85774 4.30613 4.19927 0.89342 
4.43081 4.28188 1.81694 2.94908 4.64197 1.92531 4.53749 2.95179 0.0263703 
0.358086 3.2191 1.47754 0.476312 3.59806 0.0669532 4.32223 2.00912 0.0370075 
4.4268 0.0315355 1.58262 3.37162 0.656601 0.615407 4.70293 0.155933 0.386892 
1.86697 4.08321 0.014185 3.38555 0.900779 1.68948 0.799197 4.11078 1.36702 
4.25791 0.912031 1.28672 3.57221 4.2558 1.63262 1.80876 3.21265 0.0247707 
4.5496 2.08134 1.74187 1.10605 3.75051 0.67771 3.54579 4.27523 0.280238 
1.78689 4.807 0.877668 4.72763 3.15125 1.62963 3.07839 3.33461 1.71532 
2.72042 4.93437 1.02859 3.00957 2.36963 1.51133 2.88354 4.09013 1.00699 
2.72301 4.57799 0.17143 2.99278 1.9744 0.494503 3.58659 1.53021 0.943688 
3.691 2.72665 0.144025 3.95674 0.0531997 0.815983 3.80832 4.91859 0.872669 
2.95722 0.0346017 1.31217 4.97335 1.25106 1.84747 2.39405 0.041091 2.10392 
1.1941 2.10299 3.85385 3.30396 1.3602 3.38491 0.791047 2.90356 2.40006 
0.51132 1.31127 3.72904 4.26088 0.112457 3.11695 1.02063 1.79231 2.73252 
2.62122 0.949787 2.28825 1.65915 2.83905 2.50079 0.129439 1.63875 3.18397 
0.885504 1.00597 2.14607 1.93214 2.85117 3.32366 4.33632 3.48022 3.20057 
0.560906 4.04152 2.45948 1.33222 0.020838 3.19353 2.69749 2.43597 3.21128 
1.01919 0.633308 2.76942 0.926845 2.57541 3.23879 1.54735 3.54666 3.4503 
2.37504 3.72433 3.75349 2.58613 2.66718 2.32938 3.635 0.220246 2.16064 
4.04041 1.79469 2.6515 1.11404 0.863403 3.55387 2.5465 4.437 3.25201 
1.79321 1.27463 2.42837 2.62446 3.73614 2.41899 0.728934 3.34989 2.93663 
1.3726 4.8576 2.00645 1.90412 4.57057 2.66665 0.085227 2.51454 3.57643 
1.28843 3.99871 2.26707 0.167921 3.39591 3.94123 3.47799 4.34705 3.22792 
1.57511 4.74508 3.99725 4.84436 3.80422 2.43707 4.23465 1.08952 2.34603 
3.43841 3.40359 2.86656 2.97024 0.519308 2.90481 0.538034 2.13501 2.06752 
2.90253 1.86475 3.97091 4.8517 1.88373 3.04796 0.983207 4.08522 3.43915 
0.124738 4.60378 2.60646 3.53207 2.239 2.20036 2.8093 1.60728 2.98138 
4.32381 4.8252 2.41353 4.39308 2.56138 3.29254 1.57757 3.84813 5.1697 
2.47815 4.37344 4.32263 3.10588 3.91663 4.42834 0.710334 0.885487 4.33503 
1.75269 0.118401 5.54901 3.72819 4.32819 5.1653 0.660704 1.44027 4.95183 
1.2759 2.6679 4.57004 3.26962 3.30136 5.43051 1.53594 3.0068 5.44285 
1.55381 0.672299 4.38769 3.90089 3.67844 4.58972 0.444196 2.23171 5.79006 
1.5927 1.24013 5.78855 2.03145 3.41726 4.59906 2.13992 1.5914 4.91119 
2.30787 0.786535 5.06393 0.885857 0.346006 5.16888 0.546719 2.74297 4.90854 
2.28438 2.13939 5.6837 3.01999 4.74803 5.26765 4.40587 3.05793 4.15251 
4.52684 2.17995 4.12407 0.172118 1.01793 5.70806 2.2262 4.10886 5.35691 
0.47865 4.40762 5.85629 1.80253 2.11097 4.55538 3.70921 4.72309 5.96031 
2.96358 2.4552 5.09132 2.4496 3.26394 5.22735 2.29203 2.9141 4.24618 
1.33547 2.09179 5.39967 4.30233 4.88123 4.454 2.8105 0.00884616 4.49712 
1.48134 3.87198 4.28396 1.806 4.58515 5.892 3.53042 1.6556 4.46715 
4.59144 0.0613554 4.58224 4.46717 4.70417 5.28305 3.01552 2.82594 4.06185 
2.62394 0.00990574 5.4315 0.977057 4.35424 5.04009 0.237405 4.58246 4.85513 
2.69739 4.0439 5.95011 3.19883 0.781872 4.17786 4.88764 1.43001 5.71568 
4.86707 3.99932 5.52949 2.16007 3.5478 6.39632 1.15122 2.45236 7.5274 
1.96189 0.841842 6.9508 0.848601 1.27548 6.38472 0.390223 2.80532 7.72572 
0.408954 1.69307 6.72952 1.16145 0.71646 7.57572 0.187572 0.265625 7.84387 
1.51145 3.67078 6.14829 2.47914 4.51161 6.98338 1.52314 1.9498 6.98134 
2.17585 2.77815 6.94275 3.93723 0.741965 6.05475 1.53722 2.26165 6.20243 
3.42399 3.64767 7.04019 1.9245 3.96969 7.93829 0.259281 0.714536 6.87551 
0.981063 2.62637 6.60451 2.51835 3.65713 7.43801 3.29376 4.32683 6.79835 
0.799796 1.40808 7.54401 1.65817 3.30271 7.0953 4.38825 1.90048 6.00989 
1.31292 3.968 7.46971 0.593464 3.0982 6.02374 3.53461 1.22834 6.67303 
4.12568 4.33942 6.57327 4.01402 4.8598 7.44208 3.97395 0.558725 7.36631 
3.75352 2.64352 7.95306 2.94116 0.540126 6.16624 2.73766 3.05737 6.18381 
1.76457 1.94794 7.90952 2.83372 4.8659 6.25329 1.67679 4.66835 6.76545 
0.0295054 2.64351 6.87039 0.139135 4.97459 6.39733 0.923992 3.552 6.81696 
1.0048 4.82107 7.16882 2.9406 3.05897 7.87157 0.222363 4.66802 7.40886 
3.17485 4.46171 7.63309 3.66825 1.18464 7.71073 4.26129 2.01839 7.80594 
4.3815 1.44113 6.90582 4.69102 4.68435 7.35556 1.98738 0.854207 7.9977 
4.80345 1.64315 7.77722 4.88826 0.814056 7.37347 4.75357 0.00454956 6.06665 
4.89536 0.841542 6.38724 2.45297 1.00156 9.79819 0.430374 0.174274 9.64994 
2.21244 2.32133 8.85015 3.77106 0.0963941 9.37391 0.514854 1.87811 8.22506 
1.79672 1.00544 9.04845 3.0786 1.61827 8.77367 2.0605 3.20853 9.10269 
3.95409 0.763582 8.78334 3.18208 4.70316 9.20752 1.86887 2.50183 9.65376 
1.9739 2.8774 8.08515 1.28801 0.321803 8.65338 1.31997 3.20366 8.50066 
4.67237 1.67911 9.33695 2.23877 3.97293 8.73988 3.3869 0.219817 8.19928 
3.92261 2.46451 9.34512 0.583575 2.93727 8.77931 2.45352 4.89138 9.4826 
3.72589 1.00504 9.60485 2.47725 2.20102 9.99983 0.491537 1.81484 9.16901 
0.94592 2.9093 9.66621 2.02737 0.356828 9.23064 1.4349 1.721 9.32834 
4.44741 4.02634 8.04075 3.72192 4.07882 9.09465 4.42841 4.96662 9.95848 
3.09513 2.50849 8.99389 4.7787 3.32985 8.62111 2.63719 0.524761 8.56097 
2.63249 4.79567 8.39157 0.27352 4.87183 9.23684 0.412807 4.22435 8.78861 
0.734291 3.84097 8.07013 2.86245 3.87905 9.49635 2.78109 0.215603 9.54124 
4.73959 4.94797 8.78776 2.70476 3.04821 9.6239 1.10074 3.85137 9.21485 
3.93308 1.49685 8.59103 4.4496 2.47394 8.57664 4.56534 0.452923 8.78099 
3.54233 4.74107 8.40872 3.7063 3.61648 9.80356 4.82949 7.81148 0.846326 
0.0222886 8.0228 1.35027 1.17412 7.12748 1.86495 0.881673 9.33195 1.76771 
3.87019 5.85634 0.978947 3.2588 8.45481 1.46845 0.0548882 8.82837 0.937833 
-0.010425 8.87954 1.74179 2.75113 5.37206 1.99221 2.91714 8.04245 0.081568 
3.74773 7.49635 1.10042 1.02336 9.38067 0.427416 0.777197 8.58807 1.12568 
4.41298 9.17817 1.41153 2.87349 8.73082 0.515947 0.118196 9.45641 0.376154 
4.34881 8.93133 0.439656 0.954852 8.48984 0.159031 2.11006 5.6256 1.59492 
4.71331 7.1715 1.51301 3.97731 6.17412 0.0444139 2.8738 6.71364 1.35309 
2.96595 5.82213 1.12204 1.15816 6.16054 1.88538 1.5716 5.90363 1.07295 
0.487586 6.829 0.65964 4.41588 6.32068 1.64246 3.21112 6.90391 0.383468 
3.20487 9.7585 0.13628 4.07341 6.76401 0.742982 1.96535 7.45963 1.42036 
0.549049 5.13678 0.420445 0.287639 7.63768 0.56173 4.33399 8.21208 0.692958 
1.33835 6.78161 1.04209 2.25512 5.95317 0.410902 1.95936 9.21662 0.689063 
0.52085 7.42927 1.44135 0.214901 5.36244 1.89661 2.65265 9.14701 1.71298 
2.297 6.85387 0.780325 0.527394 5.97218 0.624816 2.15856 8.2866 1.77714 
4.17945 5.37362 1.63836 4.52564 8.41512 1.53988 4.71891 5.16227 0.780601 
4.804 5.92929 0.393542 2.90076 6.22896 2.19119 4.36681 8.58159 3.36702 
3.77975 6.32673 2.30334 4.31547 7.54837 2.14721 3.26158 6.85598 3.46224 
0.306 8.2847 2.93676 1.9325 7.21282 2.3664 0.755073 9.30941 3.82586 
2.86883 7.83811 2.1423 2.06939 5.2173 3.28984 2.83358 5.23108 3.77847 
3.29676 5.74366 2.80619 2.71513 8.52984 2.66618 1.197 8.50433 2.15865 
4.13561 7.84397 2.91422 4.34308 5.74515 2.49877 3.87608 8.27686 2.15409 
1.10211 9.15766 2.77279 4.57888 7.16159 3.21296 2.68472 7.24539 3.69688 
0.453173 9.70668 2.53968 3.30818 8.1132 3.89603 3.7663 5.3008 3.26806 
3.54997 6.22537 3.56159 1.16734 5.19029 3.34677 0.78109 7.0608 2.7196 
0.0750092 7.40482 3.42212 1.87693 6.60325 3.18088 3.96691 7.75813 3.83733 
0.26183 7.62351 2.33402 2.6852 8.51083 3.89317 2.23149 6.45781 2.32856 
0.824786 5.89036 3.56399 3.27098 7.52715 2.92164 2.27479 9.44417 2.69483 
1.01917 7.45076 3.5363 2.50806 6.02106 3.19634 0.885669 6.10862 2.6484 
0.263372 5.04005 3.43249 0.187461 6.45895 3.26801 3.51398 8.50135 3.05532 
1.9927 8.60876 3.08658 4.59771 5.35885 3.60322 1.25606 6.6693 3.92394 
4.20212 9.042 2.49324 4.23254 6.2458 3.22574 4.87379 9.30796 3.46409 
1.07075 9.2886 5.75226 3.44142 9.70651 4.29953 2.63525 5.92774 5.05866 
0.668529 8.69291 5.03141 3.02471 8.95012 5.85689 2.57155 5.23536 5.57404 
3.37232 5.25429 4.54025 2.96263 6.65388 4.59418 3.98549 6.86401 4.21349 
2.85005 6.48029 5.70482 4.10578 7.58097 4.83976 3.87097 9.92541 5.85891 
1.55583 8.50913 4.86464 4.39117 9.1467 4.82283 3.43967 5.68369 5.54818 
3.77788 8.24544 4.68811 3.88114 6.70262 5.20557 3.7324 8.98169 4.1199 
4.61488 6.33435 4.67291 4.48391 8.62022 5.4876 0.00123113 9.51899 4.54389 
2.24163 5.69521 4.11793 -0.00287895 9.15388 5.51206 -0.0589939 7.24018 5.24379 
0.821252 6.01029 4.53389 4.62987 8.42397 4.43265 1.57602 5.82464 5.16876 
0.764212 5.1437 4.23636 2.48226 7.24858 5.57685 2.02316 7.99078 5.48223 
1.67045 6.47803 5.89799 3.65365 8.15721 5.65475 3.95994 9.1529 5.72203 
1.66472 7.5859 4.50118 0.330182 6.22577 5.32286 0.390904 6.78925 4.52803 
2.10569 6.53438 4.18195 2.21044 5.02552 4.72402 3.24223 7.40809 4.45086 
3.13614 9.57585 5.20485 3.26678 5.98536 4.37558 3.30086 8.72756 4.98642 
3.37586 7.31249 5.43292 4.61288 7.85238 5.62454 4.61706 5.33904 5.83559 
4.86927 7.01289 5.32466 2.39632 9.14374 6.24951 2.81005 7.62104 7.94561 
3.57822 7.78612 7.38152 3.21035 9.97217 6.7198 0.140529 7.38705 7.92576 
3.69191 6.40666 6.14068 2.90771 8.53632 7.13275 1.55711 9.85041 7.10102 
4.49425 8.21893 6.35836 2.6362 9.42214 7.37567 3.74933 5.30025 6.73659 
0.475772 9.95081 6.85495 2.6768 6.772 7.46194 4.27265 6.70638 7.67826 
[...]
POINT_DATA 1000
FIELD FieldData 7
id 1 1000 int
937 16 510 96 159 901 304 842 538 
127 531 943 966 507 52 318 329 27 
618 62 765 335 980 840 905 456 110 
898 40 908 275 229 852 524 77 697 
267 264 592 656 190 161 631 770 882 
576 121 779 317 760 461 566 293 696 
416 15 269 12 137 755 784 792 827 
346 759 250 373 596 231 95 469 890 
262 619 319 100 807 873 597 692 112 
480 828 895 582 682 530 574 391 503 
357 342 804 627 421 773 900 919 354 
917 255 659 331 832 217 86 675 823 
540 80 543 716 549 411 277 18 734 
399 327 259 35 691 737 653 863 626 
298 750 449 254 689 321 514 902 358 
932 936 105 522 641 157 483 746 389 
332 188 679 511 761 476 348 56 495 
970 278 968 646 83 580 973 51 586 
206 129 948 311 261 805 134 613 611 
830 2 829 38 257 648 49 478 236 
123 548 658 594 546 896 383 94 65 
11 89 843 468 201 956 213 442 237 
21 944 120 283 9 1000 42 786 69 
771 492 935 569 688 339 865 227 446 
800 551 402 819 406 281 776 4 431 
467 719 61 343 312 571 766 263 775 
3 310 430 415 839 291 92 826 384 
216 284 877 739 822 733 874 398 799 
811 194 400 604 6 906 578 899 904 
995 390 856 252 382 940 976 97 622 
685 457 885 575 452 593 633 292 63 
66 649 984 470 632 747 994 136 117 
817 407 202 175 114 643 279 686 541 
174 362 614 162 90 815 55 473 104 
999 556 665 453 37 713 542 85 915 
774 814 154 880 529 286 28 981 712 
268 222 810 349 458 450 150 472 605 
841 401 68 812 408 831 803 185 289 
29 133 736 726 360 870 465 184 946 
180 481 640 186 967 44 808 356 10 
897 825 837 914 191 300 81 527 617 
888 489 553 192 634 744 971 683 550 
824 451 197 76 997 724 173 991 404 
474 248 5 985 577 701 459 325 673 
535 350 438 501 560 547 41 528 394 
171 702 844 651 239 253 247 545 926 
573 952 436 848 866 993 381 444 628 
657 115 353 45 695 294 499 666 209 
639 982 355 687 14 211 491 972 797 
642 246 26 508 71 88 301 82 599 
998 705 58 709 809 570 699 624 377 
871 723 385 302 850 230 629 892 285 
500 195 441 435 30 706 853 735 172 
955 393 166 979 891 165 34 414 781 
447 36 772 562 43 789 513 316 554 
650 743 232 939 738 371 526 106 428 
139 228 374 307 533 559 762 203 490 
881 783 587 609 280 795 91 756 857 
777 167 241 516 359 864 677 579 487 
258 119 845 647 308 448 266 820 637 
606 379 603 933 200 506 918 600 793 
907 198 730 434 101 536 749 485 886 
138 425 365 249 32 667 243 19 731 
858 961 429 427 602 72 151 764 149 
625 364 911 505 392 7 380 974 787 
962 623 555 122 396 954 240 539 523 
25 725 187 412 785 75 608 234 486 
361 147 509 57 714 225 987 347 24 
583 98 930 437 708 169 420 517 869 
47 780 678 333 493 235 313 818 460 
644 53 366 39 303 256 752 778 568 
748 170 975 878 205 207 226 148 23 
671 616 326 996 265 581 521 806 875 
721 245 287 314 410 951 484 910 141 
17 572 33 454 498 445 635 717 369 
488 220 189 288 636 204 418 741 251 
557 439 816 835 767 598 146 260 740 
282 703 409 519 372 67 654 732 876 
707 126 924 345 670 224 923 909 813 
754 921 661 860 233 242 929 862 497 
79 352 903 990 662 270 351 403 168 
272 584 872 142 413 846 727 532 668 
475 87 916 722 674 565 297 836 108 
790 337 983 788 109 208 463 992 276 
116 745 958 978 196 552 135 680 273 
515 986 455 322 883 710 833 155 103 
54 210 838 791 525 328 798 244 563 
64 78 462 386 859 621 70 590 323 
607 368 405 131 13 887 164 370 751 
879 20 179 711 22 620 934 868 893 
884 477 48 193 945 433 969 802 684 
84 466 496 376 341 320 931 520 334 
419 176 763 925 729 1 938 595 130 
221 218 867 160 796 309 471 854 512 
464 585 518 59 889 340 111 941 601 
949 417 664 163 645 913 669 851 769 
821 432 324 660 638 693 299 143 156 
801 422 610 93 676 681 700 615 443 
338 183 757 564 336 834 794 720 847 
965 344 698 145 50 178 942 922 988 
423 274 271 742 153 181 728 158 113 
953 561 588 558 375 482 977 177 964 
989 140 367 295 74 950 296 959 591 
567 124 132 612 31 424 397 214 125 
152 290 395 8 694 182 479 387 630 
768 305 947 855 782 652 715 894 704 
440 534 912 238 861 504 927 690 107 
144 537 60 426 223 849 663 128 672 
753 388 330 99 502 655 73 212 46 
960 718 928 199 758 494 315 118 102 
963 219 920 544 589 378 306 363 957 
215 
type 1 1000 int
2 1 2 1 1 2 1 2 2 
1 2 2 2 2 1 1 1 1 
2 1 2 1 2 2 2 1 1 
2 1 2 1 1 2 2 1 2 
1 1 2 2 1 1 2 2 2 
2 1 2 1 2 1 2 1 2 
1 1 1 1 1 2 2 2 2 
1 2 1 1 2 1 1 1 2 
1 2 1 1 2 2 2 2 1 
1 2 2 2 2 2 2 1 2 
1 1 2 2 1 2 2 2 1 
2 1 2 1 2 1 1 2 2 
2 1 2 2 2 1 1 1 2 
1 1 1 1 2 2 2 2 2 
1 2 1 1 2 1 2 2 1 
2 2 1 2 2 1 1 2 1 
1 1 2 2 2 1 1 1 1 
2 1 2 2 1 2 2 1 2 
1 1 2 1 1 2 1 2 2 
2 1 2 1 1 2 1 1 1 
1 2 2 2 2 2 1 1 1 
1 1 2 1 1 2 1 1 1 
1 2 1 1 1 2 1 2 1 
2 1 2 2 2 1 2 1 1 
2 2 1 2 1 1 2 1 1 
1 2 1 1 1 2 2 1 2 
1 1 1 1 2 1 1 2 1 
1 1 2 2 2 2 2 1 2 
2 1 1 2 1 2 2 2 2 
2 1 2 1 1 2 2 1 2 
2 1 2 2 1 2 2 1 1 
1 2 2 1 2 2 2 1 1 
2 1 1 1 1 2 1 2 2 
1 1 2 1 1 2 1 1 1 
2 2 2 1 1 2 2 1 2 
2 2 1 2 2 1 1 2 2 
1 1 2 1 1 1 1 1 2 
2 1 1 2 1 2 2 1 1 
1 1 2 2 1 2 1 1 2 
1 1 2 1 2 1 2 1 1 
2 2 2 2 1 1 1 2 2 
2 1 2 1 2 2 2 2 2 
2 1 1 1 2 2 1 2 1 
1 1 1 2 2 2 1 1 2 
2 1 1 2 2 2 1 2 1 
1 2 2 2 1 1 1 2 2 
2 2 1 2 2 2 1 1 2 
2 1 1 1 2 1 1 2 1 
2 2 1 2 1 1 1 2 2 
2 1 1 2 1 1 1 1 2 
2 2 1 2 2 2 2 2 1 
2 2 1 1 2 1 2 2 1 
1 1 1 1 1 2 2 2 1 
2 1 1 2 2 1 1 1 2 
1 1 2 2 1 2 2 1 2 
2 2 1 2 2 1 2 1 1 
1 1 1 1 2 2 2 1 1 
2 2 2 2 1 2 1 2 2 
2 1 1 2 1 2 2 2 1 
1 1 2 2 1 1 1 2 2 
2 1 2 2 1 2 2 2 2 
2 1 2 1 1 2 2 1 2 
1 1 1 1 1 2 1 1 2 
2 2 1 1 2 1 1 2 1 
2 1 2 2 1 1 1 2 2 
2 2 2 1 1 2 1 2 2 
1 2 1 1 2 1 2 1 1 
1 1 2 1 2 1 2 1 1 
2 1 2 1 2 1 1 2 2 
1 2 2 1 1 1 1 2 1 
2 1 1 1 1 1 2 2 2 
2 1 2 2 1 1 1 1 1 
2 2 1 2 1 2 2 2 2 
2 1 1 1 1 2 1 2 1 
1 2 1 1 1 1 2 2 1 
1 1 1 1 2 1 1 2 1 
2 1 2 2 2 2 1 1 2 
1 2 1 2 1 1 2 2 2 
2 1 2 1 2 1 2 2 2 
2 2 2 2 1 1 2 2 1 
1 1 2 2 2 1 1 1 1 
1 2 2 1 1 2 2 2 2 
1 1 2 2 2 2 1 2 1 
2 1 2 2 1 1 1 2 1 
1 2 2 2 1 2 1 2 1 
2 2 1 1 2 2 2 1 1 
1 1 2 2 2 1 2 1 2 
1 1 1 1 2 2 1 2 1 
2 1 1 1 1 2 1 1 2 
2 1 1 2 1 2 2 2 2 
2 1 1 1 2 1 2 2 2 
1 1 1 1 1 1 2 2 1 
1 1 2 2 2 1 2 2 1 
1 1 2 1 2 1 1 2 2 
1 2 2 1 2 1 1 2 2 
2 1 2 1 2 2 2 2 2 
2 1 1 2 2 2 1 1 1 
2 1 2 1 2 2 2 2 1 
1 1 2 2 1 2 2 2 2 
2 1 2 1 1 1 2 2 2 
1 1 1 2 1 1 2 1 1 
2 2 2 2 1 1 2 1 2 
2 1 1 1 1 2 1 2 2 
2 1 1 2 1 1 1 1 1 
1 1 1 1 2 1 1 1 2 
2 1 2 2 2 2 2 2 2 
1 2 2 1 2 2 2 2 1 
1 2 1 1 1 2 2 1 2 
2 1 1 1 2 2 1 1 1 
2 2 2 1 2 1 1 1 1 
2 1 2 2 2 1 1 1 2 
1 
i 3 1000 int
-12 0 0 -57 0 0 -25 0 0 
-25 0 1 82 1 0 -39 0 0 
-36 0 0 -40 0 1 106 1 0 
-37 0 1 -25 0 0 -23 0 0 
-9 0 1 -42 0 0 109 1 1 
-26 0 1 -39 0 1 -38 0 1 
-13 0 1 -24 0 0 78 1 0 
-36 0 1 57 1 1 -10 0 1 
-15 0 0 -3 0 0 -16 0 1 
-26 0 0 -7 0 1 -37 0 1 
-25 0 0 -29 0 1 -59 0 1 
-13 0 1 65 1 1 -24 0 0 
-69 0 1 -6 0 0 -7 0 0 
-36 0 1 -18 0 1 -5 0 1 
10 0 0 -32 0 0 -15 0 0 
46 0 0 79 1 0 -11 0 0 
-13 0 1 -30 0 1 92 1 0 
92 1 1 -56 0 0 9 0 0 
-33 0 0 -41 0 1 -62 0 1 
-48 0 0 -90 0 0 -37 0 0 
-48 0 1 40 1 0 -21 0 0 
75 1 0 -21 0 0 -17 0 0 
-35 0 0 -35 0 1 -31 0 1 
-6 0 0 54 1 0 -11 0 0 
-64 0 0 -15 0 1 -4 0 0 
-8 0 0 -19 0 0 -33 0 0 
-31 0 1 57 1 0 -5 0 0 
-30 0 1 -22 0 1 -55 0 0 
12 0 0 -7 0 0 -14 0 1 
-6 0 1 -9 0 0 -20 0 0 
-87 -1 1 -13 0 1 -76 0 0 
-8 0 0 62 1 0 -20 0 0 
-26 0 0 -16 0 0 -13 0 1 
14 0 0 -21 0 1 -21 0 0 
6 0 0 -24 0 0 -12 0 0 
-16 0 1 -8 0 0 94 1 -1 
-86 0 0 -10 0 0 -54 0 0 
-39 0 0 -82 0 0 -26 0 0 
-80 0 1 -12 0 0 -22 0 0 
-53 0 -1 -6 0 0 -50 0 -1 
-63 0 1 38 1 0 -10 0 0 
97 1 0 -22 0 0 2 0 -1 
-53 0 0 -46 0 0 -5 0 0 
3 0 0 -27 0 0 13 0 -1 
-30 0 0 68 1 0 -11 0 0 
-12 0 0 5 0 0 33 1 0 
-8 0 0 -6 0 0 -14 0 0 
42 1 0 2 0 0 -21 0 0 
-59 0 0 11 0 0 -13 0 0 
-16 0 -1 -60 0 0 -3 0 0 
-2 0 0 -19 0 0 -33 0 0 
89 1 -1 84 1 -1 85 1 0 
-24 0 0 58 1 0 78 1 0 
-26 0 0 8 0 0 75 1 0 
-38 0 0 -57 0 0 85 1 0 
-2 0 0 -5 0 0 -50 0 -1 
-26 0 0 -19 0 0 -10 0 0 
66 1 -1 3 0 0 -3 0 0 
-39 0 0 -13 0 0 77 1 0 
7 0 0 14 0 0 -48 0 0 
-37 0 0 -45 0 0 -10 0 0 
-36 0 0 0 0 0 -2 0 -1 
-18 0 0 -17 0 0 -1 0 0 
-20 0 -1 -33 0 0 9 0 0 
12 0 0 -41 0 0 -36 0 0 
68 1 0 4 0 -1 -23 0 0 
-65 0 0 -43 0 0 -60 0 -1 
-69 0 0 95 1 -1 -45 0 -1 
-44 0 0 -54 0 1 -30 0 0 
-45 0 -1 -81 0 0 -16 0 0 
109 1 -1 8 0 0 -19 0 0 
-30 0 -1 -38 0 0 -17 0 0 
99 1 -1 1 0 0 -76 0 0 
-24 0 0 -34 0 0 24 0 -1 
-43 0 0 -74 0 -1 -36 0 -1 
113 1 0 69 1 0 -73 0 0 
-10 0 0 -3 0 0 8 0 0 
-28 0 0 -15 0 0 -59 0 -1 
43 0 0 -10 0 0 -17 0 0 
0 0 -1 -29 0 0 -35 0 0 
6 0 0 89 1 -1 -32 0 0 
-46 0 0 -68 0 0 93 1 0 
4 0 0 -10 0 0 81 0 0 
34 0 0 23 0 0 76 0 0 
0 0 1 -105 -1 0 -43 -1 0 
28 0 1 -8 0 0 22 0 0 
34 0 0 -49 -1 0 21 0 0 
-44 -1 1 23 0 0 -67 -1 1 
76 0 1 -47 -1 0 22 0 0 
35 0 0 0 0 1 8 0 0 
18 0 1 3 0 0 9 0 0 
63 0 0 12 0 0 15 0 1 
-58 -1 1 -122 -1 0 34 0 0 
-13 0 1 -3 0 1 59 0 1 
35 0 0 17 0 0 -80 -1 1 
25 0 0 -15 0 0 -42 -1 0 
5 0 0 21 0 0 46 0 0 
14 0 0 -108 -1 0 -27 0 1 
154 1 0 19 0 0 38 0 0 
33 0 -1 -3 0 0 35 0 1 
38 0 0 9 0 0 45 0 0 
36 0 0 1 0 0 -2 0 1 
-9 0 0 46 0 0 14 0 1 
23 0 0 -121 -1 0 -81 -1 1 
-101 -1 1 49 0 1 20 0 0 
-38 -1 1 -55 -1 1 2 0 0 
23 0 0 -4 0 0 51 0 0 
16 0 0 28 0 0 42 0 0 
18 0 0 107 0 0 36 0 0 
21 0 0 18 0 0 18 0 0 
40 0 -1 19 0 0 12 0 0 
31 0 0 41 0 0 42 0 0 
31 0 1 -7 0 0 33 0 0 
62 0 0 10 0 0 -84 -1 -1 
33 0 0 52 0 1 -97 -1 1 
62 0 0 -63 -1 0 6 0 0 
3 0 0 30 0 0 18 0 0 
19 0 0 46 0 -1 -61 -1 0 
33 0 0 61 0 -1 18 0 -1 
51 0 0 18 0 0 -47 -1 1 
16 0 0 51 0 -1 -77 -1 0 
-3 0 0 55 0 0 48 0 -1 
18 0 1 8 0 0 32 0 1 
122 1 0 49 0 -1 -109 -1 1 
21 0 0 47 0 -1 49 0 0 
38 0 0 3 0 0 30 0 0 
7 0 0 1 0 0 30 0 0 
42 0 0 14 0 0 -91 -1 0 
55 0 0 44 0 0 11 0 0 
25 0 0 -102 -1 0 13 0 -1 
29 0 0 65 0 -1 22 0 0 
6 0 0 37 0 -1 48 0 -1 
64 0 0 28 0 0 21 0 -1 
22 0 0 27 0 0 66 0 0 
-69 -1 -1 17 0 -1 38 0 -1 
-1 0 -1 72 0 0 42 0 0 
26 0 -1 -91 -1 0 -78 -1 0 
-69 -1 0 65 0 -1 19 0 0 
-34 -1 0 28 0 0 24 0 0 
-81 -1 1 7 0 -1 16 0 0 
16 0 0 16 0 0 13 0 0 
20 0 0 23 0 -1 46 0 0 
51 0 0 28 0 0 36 0 0 
13 0 0 27 0 0 -86 -1 0 
30 0 0 -2 0 -1 40 0 0 
44 0 0 11 0 0 43 0 0 
26 0 -1 25 0 -1 89 0 -1 
-84 -1 0 92 0 0 67 0 -1 
-98 -1 0 12 0 0 27 0 0 
52 0 -1 16 0 -1 7 0 -1 
-86 -1 0 -15 -1 0 29 0 -1 
44 0 0 71 0 -1 -71 -1 0 
20 0 -1 24 0 -1 -90 -1 1 
-10 0 -1 37 0 -1 -91 -1 -1 
59 0 0 44 0 0 60 0 0 
-59 -1 -1 30 0 -1 63 0 -1 
3 0 0 -53 -1 0 22 0 0 
11 0 -1 -2 0 0 38 0 0 
40 0 -1 25 0 0 -76 -1 -1 
8 0 0 -1 0 -1 8 0 -1 
44 0 0 13 0 -1 41 0 -1 
86 0 0 46 0 -1 49 0 0 
32 0 0 -64 -1 -1 -31 -1 0 
66 1 1 -41 0 1 -51 0 0 
-34 0 0 -51 0 0 -34 0 0 
-11 0 0 -25 0 0 -25 0 1 
-8 0 0 100 1 1 -23 0 0 
-43 0 1 -21 0 0 -29 0 1 
-18 0 1 -55 0 1 -9 0 1 
81 1 0 110 1 0 -68 0 1 
-58 0 0 -58 0 0 -56 0 0 
-4 0 0 -16 0 1 -18 0 1 
-13 0 0 -41 0 0 -46 0 0 
-4 0 0 -19 0 1 1 0 0 
-61 0 0 67 1 0 112 1 1 
-68 0 1 -14 0 0 -21 0 1 
-13 0 1 -20 0 0 -50 0 0 
-34 0 1 -9 0 0 -18 0 1 
-33 0 0 -15 0 1 -9 0 1 
-67 0 0 -36 0 0 -27 0 1 
-48 0 0 -41 0 0 61 1 0 
-9 0 0 -78 0 0 -35 0 0 
-29 0 0 -12 0 1 67 1 0 
-23 0 0 -13 0 0 -69 0 0 
-38 0 0 -16 0 0 -81 0 0 
-92 0 1 -46 0 1 106 1 0 
-20 0 1 -52 0 0 -73 0 0 
-45 0 1 99 1 0 -49 0 0 
-22 0 0 -34 0 0 145 1 0 
-4 0 0 2 0 0 -18 0 0 
-1 0 0 57 1 0 60 1 0 
-30 0 0 -40 0 1 -6 0 0 
5 0 0 -13 0 0 -86 0 -1 
-50 0 0 -15 0 0 -18 0 0 
-23 0 1 152 1 1 -32 0 1 
-20 0 0 -27 0 1 -11 0 0 
31 1 0 -17 0 0 64 1 0 
-57 0 0 -59 0 0 -37 0 1 
-56 0 0 -13 0 0 -41 0 0 
-103 0 0 112 1 0 39 1 1 
-12 0 0 -39 0 0 56 1 1 
-11 0 0 -58 0 0 -35 0 0 
64 1 0 135 1 0 -20 0 0 
42 1 0 -3 0 0 75 1 -1 
-29 0 1 4 0 0 -12 0 0 
-59 0 0 -63 0 0 64 1 0 
5 0 0 -23 0 0 -22 0 0 
-31 0 0 -96 0 0 -5 0 0 
6 0 0 84 1 0 -26 0 0 
-53 0 0 67 1 0 -3 0 0 
127 1 0 4 0 0 -9 0 0 
-50 0 0 49 1 0 -18 0 0 
7 0 -1 -89 0 1 -28 0 0 
56 1 -1 53 1 0 70 1 1 
55 1 0 -79 0 -1 69 1 1 
-42 0 0 -15 0 0 -41 0 0 
4 0 0 -10 0 0 2 0 0 
6 0 -1 -29 0 0 1 0 0 
0 0 0 -51 0 0 16 0 0 
73 1 0 -23 0 0 56 1 0 
-34 0 0 -9 0 0 -16 0 0 
25 0 0 -14 0 0 3 0 0 
-52 0 0 -32 0 0 95 1 0 
70 1 0 111 1 0 -5 0 0 
-84 -1 0 -34 0 0 -20 0 0 
-62 0 1 99 1 0 51 1 0 
4 0 -1 -45 0 0 -77 0 0 
-42 0 0 -76 0 0 -16 0 0 
55 1 0 -12 0 0 -4 0 0 
-9 0 0 -34 0 0 -17 0 0 
-7 0 0 -62 0 0 -39 0 0 
78 1 -1 -68 0 0 129 1 0 
-24 0 -1 -41 0 0 93 1 0 
-53 0 1 -99 0 1 -18 0 0 
-141 -1 -1 63 1 -1 -26 0 0 
54 1 0 -6 0 0 -58 0 0 
23 1 -1 -6 0 0 93 1 0 
-36 0 0 -38 0 0 -19 0 -1 
-6 0 0 -29 0 0 -88 -1 0 
-12 0 0 -35 0 0 84 1 0 
-32 0 0 -23 0 0 -16 0 -1 
1 0 -1 -19 0 0 -43 0 0 
-14 0 0 2 0 -1 3 0 0 
-66 0 -1 -31 0 0 -6 0 -1 
-44 0 -1 -34 0 -1 -15 0 0 
-40 0 0 25 0 -1 -17 0 0 
12 0 0 3 0 0 -32 0 -1 
-58 0 0 -8 0 -1 -20 0 0 
68 0 0 74 0 0 -49 -1 1 
-54 -1 1 69 0 0 12 0 0 
26 0 0 5 0 0 5 0 0 
72 0 1 -75 -1 1 -58 -1 1 
-3 0 1 0 0 1 72 0 1 
15 0 0 98 0 0 38 0 0 
-13 0 0 -46 -1 0 -66 -1 1 
-83 -1 0 34 0 1 4 0 0 
11 0 0 8 0 0 51 0 0 
17 0 0 8 0 1 1 0 0 
8 0 1 60 0 0 1 0 1 
22 0 0 -71 -1 0 4 0 0 
-69 -1 0 -134 -1 0 -5 0 1 
39 0 0 10 0 1 73 0 0 
23 0 0 -69 -1 1 3 0 0 
32 0 1 5 0 0 -51 -1 0 
24 0 1 -20 0 0 0 0 0 
30 0 0 -20 0 0 41 0 0 
23 0 0 -3 0 0 78 0 0 
76 0 1 -99 -1 0 52 0 0 
28 0 0 41 0 0 2 0 0 
13 0 0 -39 -1 1 5 0 0 
27 0 0 34 0 0 34 0 0 
66 0 0 26 0 0 53 0 -1 
40 0 0 -8 0 1 40 0 0 
63 0 1 33 0 0 78 0 1 
-50 -1 0 18 0 0 9 0 0 
11 0 0 37 0 0 15 0 0 
26 0 0 20 0 1 6 0 1 
7 0 0 73 0 1 -91 -1 -1 
9 0 0 44 0 1 -13 0 0 
35 0 0 20 0 0 -17 0 0 
40 0 0 5 0 0 22 0 0 
29 0 0 -13 0 0 17 0 0 
9 0 0 -37 -1 1 -63 -1 0 
30 0 0 0 0 0 -5 0 0 
24 0 0 -7 0 0 21 0 0 
54 0 1 29 0 0 20 0 0 
65 0 0 33 0 0 5 0 0 
-113 -1 0 -63 -1 0 21 0 0 
70 0 0 12 0 0 33 0 0 
30 0 0 8 0 -1 25 0 0 
-14 0 0 22 0 0 26 0 0 
-99 -1 -1 -122 -1 -1 19 0 -1 
31 0 -1 56 0 -1 7 0 0 
32 0 0 69 0 0 25 0 0 
20 0 0 25 0 -1 53 0 0 
-3 0 0 45 0 0 16 0 0 
47 0 0 6 0 0 6 0 0 
-2 0 -1 13 0 0 19 0 0 
60 0 0 7 0 0 8 0 0 
11 0 0 18 0 0 33 0 0 
-69 -1 0 -66 -1 -1 -50 0 0 
18 0 -1 21 0 0 26 0 0 
16 0 0 5 0 0 16 0 -1 
30 0 0 35 0 0 16 0 0 
15 0 0 42 0 -1 22 0 0 
39 0 0 39 0 0 27 0 -1 
43 0 0 62 0 0 37 0 -1 
38 0 0 27 0 0 11 0 -1 
23 0 -1 60 0 0 -81 -1 0 
-1 0 0 65 0 0 52 0 0 
5 0 0 53 0 0 6 0 0 
30 0 -1 5 0 0 -81 -1 0 
-1 0 0 65 0 0 16 0 0 
8 0 0 -100 -1 0 46 0 -1 
35 0 0 -65 -1 -1 33 0 0 
-63 -1 -2 38 0 -1 19 0 0 
-95 -1 0 54 0 -1 8 0 0 
75 0 0 5 0 0 65 0 -1 
14 0 0 24 0 0 18 0 -1 
-84 -1 0 -1 0 0 14 0 0 
7 0 0 21 0 -1 -73 -1 0 
-8 0 -1 51 0 0 5 0 0 
33 0 -1 -14 0 -1 -6 0 0 
29 0 0 6 0 0 -18 0 -1 
49 0 0 -58 -1 0 20 0 -1 
-32 -1 -1 -57 -1 0 -98 -1 0 
35 0 0 92 0 -1 72 0 0 
70 0 0 -67 -1 0 -7 0 -1 
-107 -1 -1 -22 0 -1 6 0 -1 
6 0 0 75 0 0 -2 0 -1 
39 0 0 11 0 -1 -62 -1 0 
0 0 0 22 0 0 -54 -1 0 
63 0 -1 6 0 -1 33 0 -1 
24 0 0 
v 3 1000 double
-100.50708765 -3.4066035148 11.951875027 -373.39804078 -3.737641914 5.6508770685 -167.79492012 -0.22905145748 -7.9371066541 
-288.00722332 -32.309886352 -17.196954682 -335.11655055 -3.0714923052 -5.1923071168 -328.75751172 15.802633539 4.8488242542 
-447.59252612 -8.9741105022 -5.6679679644 -369.18242095 -22.879158972 18.30257456 -150.24275835 -22.951558984 -2.5091865898 
-381.08695343 22.087338729 18.657598926 -216.38589099 -18.09937256 22.029046863 -334.82496098 6.3780479017 1.2954913418 
-246.02366889 6.8815494402 11.87545572 -258.70867891 -13.521179944 3.3594804593 -398.78783896 -9.8735869574 -14.204143395 
-195.56893523 -32.197208662 10.100712415 -315.44681282 7.7641613126 -15.141346252 -291.74591352 -17.643361105 9.1319989065 
-143.93303386 -15.238904911 19.958493117 -193.55190759 4.7659725842 -1.4660840576 -366.63118609 3.0884198445 -0.31690917107 
-224.88591356 -11.30303498 -1.886291319 -432.76388972 -31.516906018 13.615560728 -68.585124102 -5.4334337733 10.456858568 
-70.764292393 -2.729969283 -9.3921659668 -64.17925729 -7.1598763832 14.168197605 -189.14666892 2.013523889 -1.4026802023 
-174.11853053 3.6909332913 -22.802361561 -109.86230846 -3.9444254402 -7.0613609771 -277.56243188 -3.6806625707 35.013777534 
-463.54102876 9.2012398237 27.811247486 -442.78958411 13.33224504 -10.442592237 -441.38376181 0.67021997005 20.454456045 
-103.14269865 31.727836346 7.0944002174 -387.17682502 3.7760122443 -19.715418036 -97.545823235 13.572089215 -13.080181222 
-377.15557117 5.4445775483 -16.321118108 -74.154835532 -4.9049257298 -1.3560425137 -153.19624522 5.3974128639 8.4531902189 
-236.32138827 -11.035056664 13.918472667 -117.06389247 6.6795599458 -12.915336308 -75.183812843 10.045579833 3.3910134255 
-27.984170165 6.2212227985 -18.454256712 -185.71492811 4.2418772274 22.459056167 -162.36550797 -4.3886325898 -3.1904852134 
-28.575166487 22.824755175 7.34280927 -219.87007959 -10.040938434 -39.302757845 -82.938954557 -13.075145118 -4.8836851706 
-81.348655915 12.338976891 7.3648162713 -301.48123363 10.965697419 2.6447492453 -323.62720408 5.7278167825 9.7373189812 
-203.55802425 -25.019048755 8.5092145416 -454.61169793 -17.140881912 6.0426893692 -13.960917498 1.6032438978 7.1484277784 
-474.99294721 13.622146336 -3.849733094 -366.84179772 24.062196347 -10.632993786 -496.72579571 9.3549464274 -10.953394726 
-239.13400106 -24.21500163 -20.994359233 -360.52830063 -10.860786427 10.596455398 -184.04262388 -22.181299829 -22.377999673 
-364.67742469 2.7780621562 -2.1571395027 -490.80508933 3.6421800183 17.929274235 -296.44540307 -0.95561170857 0.30916426759 
-386.6975718 1.1892030387 -0.11654019986 -188.02821254 -12.183255666 4.2628993137 -312.21689011 -15.339665905 -2.6276044527 
-368.90882044 -3.4107901669 -28.785108056 -199.8276268 -14.828706512 10.834269788 -136.07629699 6.346206249 4.294013231 
-75.84217209 -13.780485155 -16.246763895 -520.57134359 -11.896518839 13.479852596 -205.42268425 1.0686969314 -1.950038356 
-456.68117989 -0.77643925037 -20.023700134 -208.46368908 -5.2102196611 -6.3522647643 -133.07010033 0.80235227599 7.1062015017 
-122.86784459 -2.2788804772 0.89753227278 -186.81616618 -6.5860951744 -20.041264201 -451.82937059 -10.983230249 14.818845603 
-277.61739482 -5.7841552853 28.686543275 -446.30531067 8.0278976613 -12.938692086 -52.99304409 7.2160481001 19.649382444 
-376.36139969 13.261797861 18.135629555 -101.98894453 -10.120752076 10.685006651 -140.7846437 3.6875038201 15.991530711 
-22.021501473 16.768112406 -8.7516960727 -43.175010771 -1.676827715 -6.6526489573 -208.95905608 -8.8944376923 22.872007332 
-84.469865753 6.1662655262 9.6221629006 -156.54684328 22.093816702 7.4907232291 -52.599085968 1.2799020012 4.8184114199 
13.267308145 -1.6757168736 20.765429605 -104.19525823 -9.2511871583 7.9027426134 -364.60712058 -27.444421481 -0.98275831752 
-92.415913896 -21.512280356 6.7770673215 -421.50357912 -17.023058312 22.296944052 -295.75041707 8.0846539022 8.4950934859 
-251.97851152 -19.326980515 -12.139885478 -257.15863012 -12.777312333 30.604917584 -92.39366132 26.064194767 12.054583672 
-18.957451927 0.80389934267 -19.015657838 -251.84112377 3.9020426707 4.4351774522 -302.23463647 -14.497874701 -21.770358326 
-21.290649438 -3.588150201 0.18951534658 -208.7074081 -17.514281394 8.8160310154 -100.26643725 -10.810990222 8.8205247592 
-52.183439058 8.490358192 -4.3109337493 -99.441212627 -3.1003773132 -9.6790878875 -435.00745571 -24.186364957 19.859698815 
-516.51317491 10.991912012 -7.5859925876 -43.226291735 -14.22793675 -12.86163656 -387.90175821 13.055246027 31.417190226 
-211.31956518 24.139486063 -21.638995643 -174.2549769 21.159385211 3.2603870935 -186.19895382 -12.554910687 -19.45157666 
-470.13597914 3.6624222463 7.3831281399 -108.58730648 -0.60279281919 -4.8127403916 -256.81892693 -10.902086127 -7.4737021958 
-443.60431476 13.299532827 10.852459402 -115.58217598 -0.80483473673 -1.3534436867 -402.52540447 7.462369225 16.953932858 
-471.63700457 2.1378164219 5.7198218172 -512.42618455 11.008316468 -0.8937279647 -208.10424236 7.9740877606 -13.503688884 
-274.13536061 -1.0889458198 24.919963187 -32.871725189 -7.536312028 -7.2021803793 -140.7472625 -4.5880138728 10.683149503 
-220.03385882 -26.508137091 33.306549592 -404.15906941 -2.8366538752 -4.0323236641 -94.987873943 27.920043777 -39.681214836 
-20.935235087 -20.036260204 23.915469591 -258.59034972 4.0393839862 -20.187777048 -35.88611993 12.227970067 -15.952233427 
-282.76041954 14.627784228 18.012806012 -166.71326487 -4.6339824476 12.118482593 -176.15843735 -29.306566504 -14.74221496 
-263.52516109 -16.377489249 -6.1176954509 19.515669215 -6.4783471011 -4.0565029788 -521.59516901 -3.7498724783 -17.641291064 
-73.309760907 -7.7642279149 -4.4167411947 -42.733736138 17.971718982 -7.8511597114 -335.00024094 2.0133084904 47.413813837 