# vtk DataFile Version 4.2
Generated by LIGGGHTS
ASCII
DATASET POLYDATA
POINTS 1000 float
0.599945 0.443859 1.98741 2.82939 3.10949 0.488565 2.57126 4.75965 0.891547 
4.57968 1.26022 0.661498 1.26452 1.02986 0.578544 1.93982 3.19802 0.124342 
2.64898 3.96911 0.605369 1.93378 2.57146 1.12765 4.96081 2.98752 1.73381 
1.6761 3.96449 0.285437 0.844316 2.22443 0.753692 2.74229 0.712667 0.279393 
0.390083 1.4933 1.23632 0.150949 0.594727 1.29368 0.890819 0.582848 1.19305 
1.29371 1.81294 0.542293 2.48444 1.01694 1.82667 0.0234078 1.88016 1.90882 
1.01104 3.03485 0.395294 4.20914 0.300863 1.27406 1.822 1.20426 1.73454 
2.08243 0.890213 0.924298 1.69547 3.40328 1.20619 0.0136894 1.30881 0.111325 
3.35535 4.82216 1.26153 1.22693 1.71225 1.52198 4.61582 2.10796 0.27761 
0.347192 2.46963 1.29247 1.33432 0.0242271 1.39003 1.06267 4.7507 1.63032 
0.0557166 3.13686 1.5427 0.712769 3.26082 0.992951 4.79136 1.95165 1.29709 
3.0075 2.85654 1.73072 3.0513 1.96381 1.98808 3.60545 4.11396 0.775334 
3.0204 0.650041 1.86058 3.82008 0.507418 0.114624 1.1351 3.8166 1.89195 
1.62603 4.90536 0.768493 3.11341 0.361278 1.03541 0.226246 4.18329 0.198942 
0.61349 4.02388 1.06391 3.83728 3.28952 1.1096 3.81782 0.707371 1.95166 
0.582294 4.9572 0.837215 4.30641 2.64456 0.925149 0.0845174 2.32596 0.0523691 
3.84182 1.78922 1.41897 0.179533 4.37729 1.66243 1.61072 4.18325 1.17945 
3.64044 2.04077 0.253097 3.19136 4.96627 0.105243 4.15595 4.39788 1.5682 
4.15807 3.60814 1.92686 4.62888 3.97207 0.459714 4.84962 3.5621 1.19868 
2.85879 4.86836 3.89403 2.58819 1.21948 2.73482 0.0320874 2.04729 3.91941 
2.85786 2.47638 2.77569 0.933599 2.46543 2.67494 0.817236 2.92323 3.24366 
1.75616 0.906568 3.05847 4.22897 4.58792 3.17136 1.08252 1.66057 3.42106 
1.71685 0.00574776 3.41735 4.32474 0.536378 3.42302 1.74814 3.08881 3.05223 
1.79923 2.31907 3.54122 2.19822 1.6618 3.42809 1.55641 3.81681 3.57074 
2.55939 3.29348 2.98435 2.17058 4.6107 3.18385 2.43016 4.00602 3.89363 
0.474555 1.04953 2.13917 1.37966 0.499577 3.75122 0.586844 2.01939 3.59059 
1.34303 0.207363 2.75395 0.590237 4.89276 3.37055 2.07266 3.41063 2.18327 
2.71441 0.745053 3.47085 1.37995 1.06836 2.45146 1.42113 1.88175 2.644 
0.722036 1.95019 2.01517 1.51428 1.32753 3.99485 2.2953 0.237209 2.58069 
3.53041 1.97073 2.74427 1.48417 3.90035 2.71833 -0.0163609 3.68121 2.69792 
4.10103 2.38739 3.96062 4.13795 2.72299 2.22926 0.579106 3.10661 2.32434 
4.02204 3.54801 2.9504 2.77182 3.99815 2.38868 4.39279 3.32337 3.65513 
1.45994 2.80801 3.952 4.40754 1.59815 2.07682 3.59279 4.82259 2.1789 
1.40815 4.7085 3.22412 3.31332 3.98765 3.41625 4.39133 2.58745 3.07564 
1.97189 4.97062 3.99521 3.61569 4.06537 2.49477 0.842688 4.42638 2.53848 
0.0499701 4.7187 2.56275 3.4675 0.882619 2.89992 2.93639 4.73361 2.97326 
0.126263 3.04717 3.84345 3.01555 3.03536 3.68696 0.654274 3.792 3.28001 
4.084 1.47728 3.7696 4.15469 1.63109 2.92442 4.94071 3.42244 2.61502 
2.08867 4.3818 2.00105 4.8695 3.26112 4.5679 0.343766 0.151574 4.21622 
2.57649 1.00129 4.2759 4.75976 1.68624 4.78475 3.85901 2.26736 4.94592 
2.63127 2.33736 4.58113 3.4909 4.36076 5.56709 2.37727 1.66149 5.47834 
0.946473 1.63045 5.19924 2.65806 3.68663 5.16829 1.30311 0.850384 4.83826 
1.17878 2.88392 5.06948 1.50299 3.56829 4.39185 2.4049 1.70395 4.42182 
2.96843 0.252524 4.16198 2.25765 0.741709 5.17478 0.687652 1.02032 4.22167 
3.93754 3.39818 4.07167 1.54795 2.1067 4.4853 3.49168 2.42325 5.80131 
2.33094 3.14197 4.1115 1.54287 2.80967 5.87569 2.36408 2.78133 5.07231 
0.0397769 1.88715 5.25703 4.59145 0.40412 4.32432 1.70693 3.89703 5.16485 
0.483806 3.47197 4.95447 3.15961 0.949575 4.85295 3.35541 2.55405 4.09662 
0.303727 4.28922 5.86153 3.30142 4.45209 4.49051 0.45246 4.70312 4.91082 
4.04997 0.884545 4.84036 0.759945 4.09588 4.18639 4.04975 4.47758 4.92717 
4.19939 4.97614 4.00807 3.24964 0.310709 5.47478 2.6848 4.53892 5.67282 
4.63859 3.44603 5.54861 0.989613 3.47195 5.90001 4.69185 2.4061 4.65144 
4.51123 1.46156 5.64934 4.44483 4.40775 5.70144 2.5983 4.83932 4.80157 
1.04124 4.35524 5.48057 3.23491 0.924967 5.9431 1.67216 4.71461 4.79619 
4.8302 0.625994 5.65092 3.88072 3.14922 4.90662 3.93383 1.55575 5.42196 
3.91606 4.09845 4.16391 2.00003 2.70718 6.88278 1.85041 2.06889 6.24382 
2.57718 3.62221 7.20422 2.31606 1.78079 6.60524 4.50904 0.449128 7.48485 
4.32308 1.99531 7.3061 1.36192 3.34515 7.88978 2.55939 1.14184 6.27515 
2.7974 0.614266 7.6516 1.03739 1.91981 6.6434 1.16823 2.77606 7.12887 
3.90316 3.1945 7.55271 2.15611 3.98334 6.42084 4.8043 3.11598 7.92812 
1.98575 4.11483 7.58498 2.10863 2.86919 7.89791 1.97329 0.801875 7.69804 
3.48258 0.469969 7.93467 1.50323 1.85931 7.51879 0.671851 1.03905 6.05385 
4.65993 1.28739 7.47547 0.46875 2.5042 6.07199 0.599316 2.43314 7.88131 
3.83718 4.09772 7.18801 3.07837 3.03134 6.70667 3.42941 1.81264 7.4349 
4.38945 2.80322 6.82833 2.86098 4.91525 6.62209 1.36284 4.48061 7.91983 
0.337613 4.73599 7.10934 3.72333 4.99537 7.4656 3.01017 2.91449 7.72905 
1.34211 4.16903 6.80177 3.77475 4.74078 6.42715 3.72395 0.54108 7.00963 
0.462211 3.66656 6.53968 2.97074 3.72563 6.06186 4.07947 3.75424 6.35396 
0.33742 3.08028 7.27018 0.722555 3.942 7.43509 4.09963 0.726794 6.13721 
4.77613 4.88143 6.78654 4.86745 2.12659 6.57036 4.08736 0.408012 8.17315 
2.09813 4.24142 8.76134 4.36866 3.20683 9.55915 2.3561 4.00969 9.66165 
1.68545 0.714988 8.53642 4.78378 0.935992 9.9488 2.33442 1.12418 9.25893 
2.50577 1.97394 8.9688 2.18319 3.47066 8.59502 2.15945 2.66709 9.44714 
0.695811 0.0683673 8.85911 0.987071 1.68643 8.25512 1.47571 2.60563 8.82253 
2.53299 4.83457 9.3101 3.95541 1.24127 9.1629 1.88915 2.04224 8.34619 
1.06994 1.66525 9.36237 1.14667 3.1015 9.56167 2.49377 0.269837 9.49555 
0.970338 0.772911 9.68774 4.66084 0.681271 8.90785 4.01445 3.4672 8.77302 
3.63701 1.31294 8.21961 0.710667 2.90437 8.72943 3.24547 4.2601 9.87739 
0.560694 3.64541 9.42156 4.36737 4.12173 8.0183 1.46447 3.95372 9.30103 
3.01572 0.8374 8.67896 3.39487 4.90743 9.10014 3.75941 3.72481 9.76168 
3.20601 1.37366 9.66084 0.366348 4.46744 8.1004 0.851318 3.83091 8.48794 
1.2377 2.36732 9.88121 1.13867 4.6086 9.91176 1.36079 4.72591 8.79643 
3.02581 3.52165 9.11967 0.44482 4.59089 9.27844 2.81746 4.50506 8.167 
4.34583 2.49859 8.94642 3.45986 4.05696 8.38379 4.96178 2.33098 8.38418 
4.48823 5.73853 1.35704 3.75734 8.1683 0.970548 3.26049 9.50142 0.95126 
2.41407 6.3217 0.610669 -0.0372479 9.13689 1.67157 0.698538 8.60527 0.700223 
4.3322 7.19268 1.39298 1.78197 6.36889 1.55881 2.04869 5.18975 1.56163 
0.0650249 7.4837 0.733301 1.97247 8.50772 0.121008 2.67796 5.99127 1.42798 
0.714699 6.51195 0.192287 4.28201 9.96607 0.460618 0.0586732 8.41317 1.52843 
2.32436 7.6647 0.0898032 3.03268 6.94203 1.15562 2.94633 5.35157 1.90276 
0.13637 9.36962 0.558147 3.03555 5.65181 0.692737 3.7811 7.53183 0.805049 
1.62191 9.9558 0.246443 2.29574 7.67753 1.58644 4.05943 6.16106 1.92336 
0.418597 9.73252 1.20061 3.63819 6.62627 0.531231 4.79405 6.00626 0.285744 
3.61914 5.85245 0.108908 0.0528155 6.06709 1.19638 1.5869 6.67061 0.447826 
3.58592 8.74039 1.28694 1.57467 5.56166 0.267386 3.1955 7.32072 0.117618 
4.4616 6.47618 0.913264 4.76031 5.1218 1.04288 0.325452 5.39396 1.80751 
1.06931 7.25258 1.17102 4.02965 5.06384 0.496131 1.15608 5.63554 1.26395 
0.890076 7.64746 0.223897 2.41719 5.25674 0.0838684 0.582738 7.98619 1.50498 
1.36324 9.18294 1.84674 4.67363 9.15351 0.182767 4.77118 8.92168 1.18944 
4.75061 8.14974 1.42771 4.8957 5.05964 0.105789 3.0589 6.26753 2.18197 
1.11034 5.84452 2.58967 4.19003 5.37133 2.69334 2.6831 6.91195 3.22258 
0.851632 9.48655 2.343 4.78543 7.33419 3.10687 3.50613 5.42733 3.40993 
-0.0637921 8.9821 3.95417 0.67525 9.80642 3.88087 0.676434 8.49415 3.23129 
4.17523 6.97103 2.30903 0.20087 6.23395 2.65556 4.25307 7.80288 2.81726 
0.443231 6.01305 3.49773 3.25065 7.41684 2.041 3.04638 9.97779 2.66713 
1.03005 8.65067 3.97672 1.97488 8.1426 3.88766 2.64799 5.62227 3.47408 
3.6403 6.01974 2.7246 4.8069 6.30201 2.47343 2.9069 8.64667 2.5276 
2.02987 9.34725 3.82848 0.289388 9.29881 3.11427 4.37882 5.68144 3.53955 
3.75116 7.0296 3.34748 4.2734 6.4423 3.30224 0.302496 9.76608 2.32048 
2.24212 9.10707 2.00324 1.76762 5.59391 3.28492 1.39311 6.3534 3.69001 
1.53859 5.19197 2.3339 0.233542 7.59013 2.9564 2.32686 5.35173 2.55796 
1.48711 8.31622 2.9632 2.0223 6.24569 2.5198 1.4107 9.24606 2.94077 
3.49575 6.1716 3.96987 4.90971 8.56895 2.94279 1.85703 9.83829 5.15691 
1.08751 9.42906 4.06188 1.67791 7.78654 4.9465 4.20951 6.24634 4.31921 
0.170701 8.34623 4.0952 4.00433 6.97324 5.51056 1.0821 7.86333 4.1038 
0.753428 9.79708 5.17664 2.53598 5.71071 4.94904 0.236529 6.28669 5.59752 
4.64802 5.23095 5.13706 -0.0169527 8.41861 5.57967 3.50111 9.96948 4.93382 
4.72784 5.7472 4.44637 1.83597 9.14138 5.74724 3.73684 5.35224 4.52437 
2.9714 8.31069 5.71722 0.302625 8.94241 4.97719 2.95511 9.41542 5.62126 
3.84146 9.33555 4.37293 1.19167 9.06436 4.86073 2.51025 8.68305 5.14418 
3.23394 6.5492 4.83516 1.41916 7.09762 5.74182 0.209293 9.96178 5.24402 
1.1616 6.00494 5.28808 1.86118 7.13202 4.27468 3.81843 9.03804 5.88369 
3.75772 6.0297 5.20728 0.595263 5.15831 5.74509 3.8761 5.232 5.63297 
0.282967 5.32534 4.11925 0.929271 6.84262 4.93108 1.69461 5.89746 4.50539 
4.24922 7.14543 4.0775 1.92693 8.79537 4.7223 3.32917 7.19473 5.78689 
3.45549 8.04325 4.98069 0.299232 6.12822 4.58614 1.46362 5.27211 5.38137 
2.01238 6.52912 5.82399 0.887478 6.91211 4.01585 0.581287 7.99264 5.46759 
1.06962 5.00446 4.23278 4.60954 7.67581 5.85427 4.61243 6.98553 4.9143 
2.12182 7.52199 7.1202 3.56196 5.78613 6.31323 4.27564 5.93102 7.61644 
-0.0333742 8.08807 7.12085 2.98139 6.35934 6.42824 3.32485 8.47588 7.63875 
2.06821 9.27823 6.64001 2.38829 9.7663 7.61755 1.49657 8.96434 7.57995 
3.81715 7.04649 6.61703 2.55457 7.40385 6.17092 1.94167 8.0645 6.17522 
2.95821 7.11711 6.98896 2.75275 5.84013 7.25666 1.35671 9.45726 6.46481 
2.08736 5.0086 6.04007 2.72491 5.04785 7.54452 0.752832 5.94772 6.20552 
[...]
POINT_DATA 1000
FIELD FieldData 7
id 1 1000 int
559 772 494 279 258 373 359 400 587 
674 916 797 784 224 848 761 775 531 
974 821 21 16 759 293 600 806 672 
136 302 990 361 756 787 731 431 130 
33 642 941 763 357 96 982 641 196 
605 495 583 323 627 157 585 626 907 
430 903 529 214 228 19 865 413 519 
654 682 716 20 200 773 523 543 366 
106 95 439 798 539 507 704 690 868 
107 490 525 362 644 804 392 257 854 
15 389 530 405 555 151 930 249 91 
675 250 636 925 512 5 528 777 158 
546 304 918 895 899 973 328 689 147 
346 216 921 518 348 995 502 646 12 
594 737 487 271 38 201 314 944 839 
23 908 225 533 837 318 900 852 280 
459 149 340 548 573 933 913 277 683 
396 783 714 956 395 939 935 498 876 
67 117 236 522 299 123 237 399 741 
649 568 437 247 924 372 152 824 232 
500 774 851 241 606 992 718 190 255 
563 217 222 43 80 315 448 65 524 
358 161 790 816 428 343 572 838 332 
331 863 463 344 86 7 736 120 776 
384 506 134 515 406 480 588 643 270 
771 623 920 733 823 661 722 597 104 
574 835 89 129 308 138 10 618 310 
434 119 567 760 598 802 233 351 226 
44 286 726 791 426 64 438 288 370 
281 182 624 397 125 712 305 663 891 
617 752 906 388 105 98 26 355 745 
442 333 321 126 590 483 78 881 883 
254 622 996 994 71 420 984 655 542 
949 30 419 833 390 880 290 122 893 
454 826 3 552 404 165 153 63 337 
189 691 961 904 166 991 160 496 154 
58 723 213 545 457 447 796 892 616 
401 696 576 988 297 469 45 952 922 
976 70 945 385 436 188 322 211 253 
890 968 936 303 218 194 799 433 68 
417 131 549 180 440 676 472 28 926 
112 178 955 55 414 221 29 452 374 
705 940 170 746 192 978 474 53 88 
850 49 295 948 1 877 987 728 550 
834 630 751 929 312 215 715 657 121 
124 694 173 611 2 296 721 557 580 
468 349 735 478 732 536 197 830 59 
551 181 336 460 504 966 934 664 252 
402 294 326 97 703 870 87 220 651 
238 648 829 375 709 986 825 979 669 
607 801 83 482 639 140 947 73 128 
150 967 812 912 831 972 963 577 191 
54 844 176 604 673 860 32 975 861 
93 311 330 350 278 84 964 444 484 
803 381 650 754 410 755 239 633 828 
425 6 485 13 274 231 261 747 11 
517 203 135 872 382 758 770 896 264 
864 316 99 621 638 659 273 873 18 
380 139 364 101 795 514 965 256 393 
620 90 371 882 538 910 629 886 905 
172 898 680 260 767 204 734 435 768 
142 717 36 369 867 647 668 205 943 
144 928 262 14 456 416 171 858 510 
423 39 94 383 697 461 820 807 276 
25 427 999 667 212 575 708 527 805 
409 283 291 365 856 937 187 243 47 
408 786 766 234 503 313 678 446 778 
725 246 894 513 289 298 740 4 418 
62 909 229 488 827 429 679 127 240 
263 914 817 743 411 931 509 146 251 
445 901 554 52 449 511 813 911 335 
505 951 888 653 69 656 352 317 540 
564 819 265 148 245 750 66 845 762 
223 789 855 8 658 155 35 584 727 
242 613 320 206 116 516 640 329 307 
591 822 565 869 681 60 342 570 662 
42 862 508 764 360 368 195 832 526 
569 840 842 387 327 619 272 61 637 
378 267 56 596 566 579 284 40 609 
27 1000 110 108 235 379 269 677 670 
376 354 363 79 846 259 100 814 665 
871 859 17 849 227 467 544 145 285 
275 853 266 132 970 808 133 578 631 
532 800 92 866 75 541 983 377 341 
923 492 874 219 407 248 394 889 403 
599 950 769 113 815 957 719 167 985 
960 292 473 592 489 109 878 102 82 
857 582 794 441 788 386 887 453 199 
164 993 85 810 780 179 319 175 729 
209 556 980 938 919 497 159 301 367 
958 713 687 470 699 391 765 455 162 
174 707 885 465 309 879 534 841 422 
792 208 884 553 915 421 458 698 917 
207 37 932 443 902 785 244 103 897 
586 971 610 450 466 353 615 462 31 
730 345 836 493 412 169 476 521 324 
959 193 163 701 48 671 168 602 942 
700 477 969 720 744 186 684 875 415 
927 981 184 471 962 601 710 338 432 
652 695 210 686 156 268 50 547 693 
114 603 692 757 479 666 724 424 111 
998 398 645 843 451 818 954 137 230 
685 953 198 356 300 562 486 811 74 
688 34 632 143 287 51 481 749 334 
946 558 475 185 781 589 177 202 46 
57 72 520 614 595 24 141 608 738 
501 339 989 706 560 464 81 118 635 
9 306 809 115 634 742 711 593 753 
612 977 491 325 847 537 571 793 660 
22 702 77 997 499 782 581 347 183 
535 625 748 628 779 76 282 739 41 
561 
type 1 1000 int
2 2 1 1 1 1 1 1 2 
2 2 2 2 1 2 2 2 2 
2 2 1 1 2 1 2 2 2 
1 1 2 1 2 2 2 1 1 
1 2 2 2 1 1 2 2 1 
2 1 2 1 2 1 2 2 2 
1 2 2 1 1 1 2 1 2 
2 2 2 1 1 2 2 2 1 
1 1 1 2 2 2 2 2 2 
1 1 2 1 2 2 1 1 2 
1 1 2 1 2 1 2 1 1 
2 1 2 2 2 1 2 2 1 
2 1 2 2 2 2 1 2 1 
1 1 2 2 1 2 2 2 1 
2 2 1 1 1 1 1 2 2 
1 2 1 2 2 1 2 2 1 
1 1 1 2 2 2 2 1 2 
1 2 2 2 1 2 2 1 2 
1 1 1 2 1 1 1 1 2 
2 2 1 1 2 1 1 2 1 
1 2 2 1 2 2 2 1 1 
2 1 1 1 1 1 1 1 2 
1 1 2 2 1 1 2 2 1 
1 2 1 1 1 1 2 1 2 
1 2 1 2 1 1 2 2 1 
2 2 2 2 2 2 2 2 1 
2 2 1 1 1 1 1 2 1 
1 1 2 2 2 2 1 1 1 
1 1 2 2 1 1 1 1 1 
1 1 2 1 1 2 1 2 2 
2 2 2 1 1 1 1 1 2 
1 1 1 1 2 1 1 2 2 
1 2 2 2 1 1 2 2 2 
2 1 1 2 1 2 1 1 2 
1 2 1 2 1 1 1 1 1 
1 2 2 2 1 2 1 1 1 
1 2 1 2 1 1 2 2 2 
1 2 2 2 1 1 1 2 2 
2 1 2 1 1 1 1 1 1 
2 2 2 1 1 1 2 1 1 
1 1 2 1 1 2 1 1 2 
1 1 2 1 1 1 1 1 1 
2 2 1 2 1 2 1 1 1 
2 1 1 2 1 2 2 2 2 
2 2 2 2 1 1 2 2 1 
1 2 1 2 1 1 2 2 2 
1 1 2 1 2 2 1 2 1 
2 1 1 1 2 2 2 2 1 
1 1 1 1 2 2 1 1 2 
1 2 2 1 2 2 2 2 2 
2 2 1 1 2 1 2 1 1 
1 2 2 2 2 2 2 2 1 
1 2 1 2 2 2 1 2 2 
1 1 1 1 1 1 2 1 1 
2 1 2 2 1 2 1 2 2 
1 1 1 1 1 1 1 2 1 
2 1 1 2 1 2 2 2 1 
2 1 1 2 2 2 1 2 1 
1 1 1 1 2 2 2 1 1 
2 1 1 2 2 2 2 2 2 
1 2 2 1 2 1 2 1 2 
1 2 1 1 2 2 2 1 2 
1 2 1 1 1 1 1 2 2 
1 1 1 1 2 1 2 2 1 
1 1 2 2 1 2 2 2 2 
1 1 1 1 2 2 1 1 1 
1 2 2 1 2 1 2 1 2 
2 1 2 2 1 1 2 1 1 
1 2 1 1 2 1 2 1 1 
1 2 2 2 1 2 2 1 1 
1 2 2 1 1 2 2 2 1 
2 2 2 2 1 2 1 1 2 
2 2 1 1 1 2 1 2 2 
1 2 2 1 2 1 1 2 2 
1 2 1 1 1 2 2 1 1 
2 2 2 2 2 1 1 2 2 
1 2 2 2 1 1 1 2 2 
2 2 2 1 1 2 1 1 2 
1 1 1 2 2 2 1 1 2 
1 2 1 1 1 1 1 2 2 
1 1 1 1 2 1 1 2 2 
2 2 1 2 1 1 2 1 1 
1 2 1 1 2 2 1 2 2 
2 2 1 2 1 2 2 1 1 
2 1 2 1 1 1 1 2 1 
2 2 2 1 2 2 2 1 2 
2 1 1 2 1 1 2 1 1 
2 2 2 1 2 1 2 1 1 
1 2 1 2 2 1 1 1 2 
1 2 2 2 2 1 1 1 1 
2 2 2 1 2 1 2 1 1 
1 2 2 1 1 2 2 2 1 
2 1 2 2 2 1 1 2 2 
1 1 2 1 2 2 1 1 2 
2 2 2 1 1 1 2 1 1 
2 1 2 1 1 1 1 2 1 
2 1 1 2 1 2 1 2 2 
2 1 2 2 2 1 2 2 1 
2 2 1 1 2 2 2 1 1 
2 2 1 2 1 1 1 2 2 
1 2 2 2 1 2 2 1 1 
2 1 2 2 1 2 2 1 1 
2 2 1 1 1 2 1 2 1 
2 1 2 1 1 1 1 2 1 
2 2 1 1 2 2 1 1 1 
1 1 2 2 2 1 1 2 2 
2 1 2 2 2 1 1 1 2 
1 1 2 1 2 2 2 2 2 
2 2 1 1 2 2 2 2 2 
1 2 1 2 1 2 2 1 1 
2 2 2 2 2 1 1 2 1 
2 
i 3 1000 int
-29 0 1 -5 0 1 1 0 0 
53 1 0 -10 0 1 -4 0 0 
-3 0 0 -3 0 0 -6 0 1 
1 0 0 -6 0 0 36 1 0 
-12 0 1 -15 0 1 -17 0 1 
-11 0 0 -19 0 0 -6 0 0 
56 1 1 20 1 0 -28 0 0 
-14 0 0 -6 0 0 -23 0 0 
1 0 1 -24 0 0 -7 0 0 
-8 0 0 11 1 1 0 0 0 
-2 0 0 -3 0 1 -14 0 1 
45 1 0 -6 0 0 -5 0 0 
28 1 0 -27 0 1 -2 0 0 
1 0 1 -11 0 1 -2 0 1 
0 0 0 -2 0 0 32 1 0 
2 0 0 -3 0 1 -5 0 1 
-5 0 0 1 0 0 -1 0 0 
-2 0 1 -1 0 0 0 0 0 
-3 0 0 0 0 0 -3 0 0 
0 0 0 -25 0 1 -11 0 0 
-5 0 0 -18 0 0 -3 0 0 
-19 0 1 -3 0 0 -12 0 0 
-38 0 0 -26 0 0 -4 0 0 
-12 0 1 -12 0 0 -2 0 0 
-5 0 0 -1 0 0 -1 0 0 
-12 0 0 -13 0 0 -9 0 0 
25 1 0 0 0 0 -4 0 1 
-13 0 0 -13 0 0 -11 0 0 
-4 0 0 42 1 0 -38 0 0 
-4 0 0 -3 0 0 -2 0 0 
-9 0 1 -4 0 0 -3 0 1 
-4 0 0 -4 0 0 -3 0 0 
-4 0 0 -11 0 1 0 0 0 
0 0 0 -3 0 0 -12 0 1 
-1 0 0 -3 0 0 -1 0 0 
0 0 0 -16 0 0 0 0 0 
-3 0 0 -5 0 0 -2 0 0 
-25 0 0 -9 0 0 -4 0 0 
0 0 0 -14 0 0 -22 0 0 
14 1 0 -14 0 0 -5 0 0 
-6 0 0 -3 0 0 -10 0 0 
-11 0 0 -3 0 0 -16 0 0 
-6 0 0 -2 0 0 -18 0 0 
-21 0 0 -13 0 0 -11 0 0 
-3 0 0 -10 0 0 -9 0 0 
-8 0 0 -5 0 0 -4 0 0 
31 1 -1 -19 0 0 -2 0 0 
-3 0 0 -19 0 0 -9 0 0 
1 0 0 0 0 0 -3 0 0 
-10 0 0 -2 0 0 0 0 0 
-1 0 0 -22 0 1 0 0 0 
-1 0 0 -7 0 0 38 1 0 
-14 0 0 -1 0 0 0 0 0 
0 0 0 38 1 0 0 0 0 
26 1 0 -8 0 0 -8 0 0 
-3 0 0 -7 0 0 -12 0 0 
-3 0 0 -11 0 -1 -35 0 0 
-5 0 0 -1 0 0 -14 0 0 
-21 0 0 -2 0 0 -2 0 0 
-2 0 0 -1 0 0 -6 0 0 
-2 0 0 -4 0 0 -8 0 0 
31 1 0 -3 0 0 -21 0 0 
-6 0 0 -5 0 0 -3 0 0 
-1 0 0 -4 0 0 41 1 0 
-3 0 0 0 0 0 0 0 0 
1 0 0 1 0 0 -5 0 0 
-1 0 0 -1 0 0 -4 0 0 
-1 0 0 -2 0 0 -1 0 0 
-3 0 0 0 0 0 -10 0 0 
1 0 0 -6 0 0 18 1 0 
0 0 0 -5 0 0 -1 0 0 
-17 0 0 -13 0 -1 -7 0 0 
-5 0 0 -5 0 -1 -5 0 0 
-21 0 -1 -6 0 0 -4 0 0 
0 0 0 -10 0 0 -5 0 0 
-9 0 -1 -1 0 0 -12 0 0 
34 1 -1 36 1 -1 -2 0 -1 
-9 0 0 -2 0 0 -1 0 0 
0 0 0 -2 0 0 -1 0 0 
-11 0 0 1 0 0 -3 0 0 
-6 0 0 0 0 0 -1 0 0 
-8 0 -1 -2 0 -1 1 0 0 
-3 0 0 0 0 0 0 0 0 
-3 0 0 0 0 0 -6 0 0 
3 0 0 22 0 0 23 0 1 
4 0 0 10 0 0 13 0 0 
4 0 0 5 0 0 -1 0 0 
7 0 0 7 0 0 2 0 0 
3 0 0 -18 -1 1 9 0 0 
9 0 0 11 0 1 -1 0 0 
13 0 1 1 0 0 6 0 0 
-11 -1 1 4 0 0 0 0 0 
21 0 0 2 0 1 3 0 1 
5 0 0 1 0 0 4 0 0 
7 0 0 3 0 0 5 0 0 
3 0 1 1 0 0 1 0 0 
3 0 0 -1 0 0 2 0 0 
7 0 0 0 0 1 5 0 0 
11 0 1 -36 -1 1 -28 -1 1 
19 0 1 0 0 1 1 0 0 
2 0 0 2 0 0 12 0 0 
27 0 0 7 0 0 1 0 0 
15 0 0 16 0 0 18 0 1 
12 0 0 3 0 0 8 0 0 
5 0 0 11 0 0 20 0 0 
6 0 0 5 0 0 2 0 0 
5 0 0 3 0 0 10 0 0 
9 0 0 32 0 1 0 0 0 
12 0 0 3 0 0 20 0 0 
21 0 0 2 0 0 2 0 0 
6 0 0 8 0 0 0 0 0 
6 0 0 4 0 0 23 0 0 
15 0 0 17 0 0 10 0 0 
15 0 0 6 0 0 1 0 0 
6 0 0 4 0 0 5 0 0 
-33 -1 0 1 0 0 5 0 0 
1 0 0 8 0 0 -23 -1 0 
1 0 0 25 0 0 -1 0 0 
4 0 0 11 0 0 -34 -1 0 
26 0 0 23 0 -1 6 0 0 
2 0 0 8 0 0 -28 -1 0 
1 0 0 4 0 0 16 0 -1 
3 0 0 -1 0 0 2 0 0 
0 0 0 3 0 0 3 0 0 
7 0 0 10 0 0 7 0 0 
9 0 0 4 0 0 -1 0 0 
3 0 0 2 0 0 8 0 0 
0 0 0 3 0 0 6 0 0 
4 0 0 2 0 0 1 0 0 
7 0 0 3 0 0 11 0 0 
11 0 0 -30 -1 -1 38 0 0 
4 0 0 3 0 0 8 0 0 
4 0 0 7 0 0 18 0 0 
0 0 0 0 0 0 2 0 0 
32 0 0 1 0 0 28 0 0 
27 0 0 -29 -1 0 20 0 0 
0 0 0 0 0 0 6 0 -1 
23 0 0 5 0 0 25 0 0 
2 0 0 6 0 0 6 0 0 
3 0 0 -33 -1 1 -24 -1 -1 
7 0 0 14 0 -1 3 0 0 
0 0 0 1 0 0 15 0 0 
2 0 0 0 0 0 3 0 0 
3 0 0 4 0 0 36 0 0 
-20 -1 0 10 0 0 2 0 0 
-1 0 0 -13 -1 0 0 0 0 
2 0 0 27 0 0 4 0 -1 
-17 -1 0 17 0 0 1 0 0 
2 0 -1 16 0 0 8 0 0 
13 0 -1 6 0 0 -38 -1 0 
0 0 0 -35 -1 -1 8 0 0 
8 0 0 11 0 0 25 0 0 
2 0 0 1 0 0 2 0 0 
8 0 -1 21 0 -1 6 0 0 
7 0 -1 9 0 0 4 0 -1 
5 0 0 19 0 -1 19 0 0 
1 0 0 4 0 0 3 0 0 
2 0 0 6 0 -1 3 0 0 
38 0 -1 21 0 0 1 0 0 
2 0 -1 2 0 0 4 0 -1 
3 0 0 27 0 -1 18 0 0 
5 0 -1 3 0 0 4 0 0 
7 0 -1 1 0 0 -2 0 0 
-4 0 1 -2 0 0 -10 0 0 
-26 0 1 -14 0 1 -5 0 1 
-10 0 0 -4 0 0 -20 0 1 
-14 0 0 -12 0 0 -9 0 1 
-2 0 1 -30 0 1 -3 0 0 
-7 0 0 -11 0 0 -3 0 0 
-1 0 0 -7 0 0 -7 0 0 
-8 0 0 -1 0 0 -1 0 0 
-2 0 1 -22 0 0 0 0 0 
0 0 0 -1 0 0 -1 0 0 
-16 0 1 -5 0 0 -3 0 0 
-5 0 1 -2 0 1 -1 0 0 
0 0 0 -15 0 0 -6 0 0 
-4 0 0 -4 0 0 -5 0 0 
-1 0 0 -1 0 0 -2 0 0 
-1 0 0 24 1 0 -10 0 0 
-11 0 0 32 1 0 -3 0 0 
-22 0 0 -2 0 0 -6 0 0 
-31 0 0 -8 0 0 -35 0 0 
-5 0 0 -1 0 0 -9 0 -1 
-9 0 0 -17 0 0 -23 0 0 
-3 0 0 -16 0 0 -7 0 0 
-1 0 0 -33 0 0 -4 0 0 
-3 0 0 -2 0 0 -18 0 0 
-2 0 0 -1 0 0 -5 0 0 
-2 0 0 0 0 0 -3 0 0 
-20 0 0 -18 0 0 -5 0 0 
-2 0 0 -4 0 0 17 1 0 
-8 0 0 -1 0 0 -13 0 1 
-19 0 0 0 0 0 -5 0 0 
-23 0 0 32 1 0 29 1 0 
-22 0 0 0 0 0 -13 0 0 
43 1 0 -21 0 0 -7 0 0 
-23 0 0 -8 0 0 -3 0 0 
-11 0 0 -4 0 0 -16 0 0 
-1 0 0 -14 0 1 -3 0 0 
-5 0 0 -7 0 0 -10 0 0 
-2 0 0 -2 0 0 -34 0 1 
0 0 0 38 1 0 0 0 0 
-6 0 0 -31 0 -1 -18 0 0 
-5 0 0 -26 0 -1 -2 0 0 
-2 0 0 0 0 0 -5 0 0 
-30 0 1 -3 0 0 -8 0 0 
-1 0 0 -3 0 0 -18 0 0 
-4 0 0 -1 0 0 -2 0 0 
-7 0 0 -7 0 0 0 0 0 
-11 0 0 0 0 0 -2 0 0 
-2 0 0 -5 0 0 -7 0 0 
36 1 0 -2 0 0 -4 0 -1 
34 1 0 -34 0 -1 -11 0 0 
-5 0 0 0 0 0 34 1 0 
26 1 0 -9 0 0 -10 0 0 
-3 0 0 -3 0 0 -31 0 0 
-1 0 0 -2 0 0 -3 0 0 
-3 0 0 -9 0 0 -13 0 0 
-2 0 0 -4 0 0 -21 0 -1 
-4 0 -1 -23 0 0 -19 0 0 
-6 0 0 -1 0 0 -1 0 0 
-13 0 0 -2 0 0 -15 0 0 
-21 0 0 0 0 0 -3 0 0 
-7 0 0 -2 0 0 -29 0 0 
-14 0 0 -5 0 0 18 1 0 
-15 0 0 -3 0 0 -2 0 0 
-6 0 0 -1 0 0 0 0 0 
-2 0 0 -13 0 0 -1 0 0 
-11 0 0 -13 0 0 -21 0 0 
-12 0 0 -12 0 0 -2 0 -1 
-7 0 0 -3 0 -1 -8 0 0 
35 1 -1 -2 0 0 -6 0 0 
-15 0 -1 1 0 0 -1 0 0 
-25 0 -1 -23 0 0 -5 0 0 
-5 0 0 -25 0 0 -3 0 0 
-11 0 0 22 1 0 0 0 -1 
-29 0 0 -2 0 0 -1 0 -1 
-10 0 0 -6 0 -1 -1 0 0 
-5 0 0 -4 0 0 -2 0 0 
-17 0 0 -1 0 0 -2 0 0 
-4 0 -1 -2 0 0 1 0 -1 
0 0 0 -2 0 0 -13 0 -1 
-1 0 -1 -12 0 0 0 0 0 
-2 0 -1 -5 0 0 -12 0 0 
-2 0 0 -7 0 0 31 1 0 
-2 0 0 12 0 0 18 0 0 
-4 0 0 0 0 0 -21 -1 0 
16 0 1 34 0 0 8 0 0 
10 0 1 4 0 0 1 0 0 
18 0 0 33 0 0 0 0 1 
0 0 0 3 0 1 6 0 0 
3 0 0 -28 -1 1 6 0 0 
5 0 0 -29 -1 1 7 0 0 
3 0 0 6 0 0 -31 -1 1 
1 0 0 -1 0 0 2 0 0 
1 0 0 4 0 0 9 0 0 
0 0 0 4 0 0 10 0 0 
14 0 0 11 0 0 4 0 1 
19 0 1 -31 -1 0 3 0 0 
2 0 0 7 0 0 1 0 0 
11 0 0 1 0 0 2 0 0 
1 0 0 8 0 0 25 0 0 
5 0 1 7 0 0 3 0 0 
9 0 0 2 0 0 -38 -1 0 
5 0 0 4 0 0 8 0 1 
14 0 0 -33 -1 0 16 0 0 
3 0 0 2 0 0 24 0 1 
-21 -1 0 10 0 0 20 0 1 
2 0 0 0 0 0 19 0 0 
13 0 0 10 0 0 7 0 0 
18 0 0 -23 -1 1 3 0 0 
7 0 0 1 0 0 1 0 0 
17 0 0 2 0 0 12 0 0 
9 0 0 -46 -1 0 1 0 0 
2 0 0 4 0 0 21 0 1 
2 0 0 12 0 0 -37 -1 0 
5 0 0 2 0 0 9 0 0 
-36 -1 1 1 0 0 10 0 0 
0 0 0 2 0 0 3 0 0 
21 0 1 -37 -1 0 0 0 0 
3 0 0 5 0 0 34 0 0 
-45 -1 0 -2 0 0 0 0 0 
12 0 0 11 0 0 1 0 0 
-1 0 0 5 0 0 16 0 0 
23 0 0 29 0 0 12 0 0 
-21 -1 0 10 0 0 18 0 0 
25 0 0 -34 -1 0 16 0 0 
2 0 0 0 0 0 3 0 0 
13 0 0 9 0 0 14 0 0 
1 0 0 9 0 0 1 0 0 
0 0 0 10 0 0 3 0 0 
2 0 0 2 0 0 9 0 0 
0 0 0 8 0 0 6 0 0 
12 0 0 9 0 0 1 0 0 
1 0 0 10 0 0 5 0 0 
5 0 0 1 0 0 2 0 0 
13 0 0 4 0 0 1 0 0 
0 0 0 5 0 0 15 0 0 
4 0 0 13 0 0 0 0 0 
3 0 0 23 0 0 6 0 0 
-31 -1 0 8 0 0 10 0 0 
25 0 0 9 0 0 4 0 0 
-26 -1 0 0 0 0 2 0 0 
-28 -1 0 5 0 0 4 0 0 
1 0 0 1 0 0 14 0 0 
9 0 0 -28 -1 0 17 0 0 
2 0 0 4 0 0 -1 0 0 
2 0 0 19 0 -1 5 0 0 
9 0 0 -1 0 0 9 0 0 
1 0 0 28 0 0 4 0 -1 
1 0 0 19 0 0 2 0 0 
11 0 -1 -35 -1 0 2 0 0 
2 0 0 1 0 0 4 0 0 
0 0 0 17 0 0 6 0 0 
10 0 0 18 0 0 20 0 0 
20 0 0 6 0 0 4 0 0 
2 0 0 7 0 0 29 0 -1 
3 0 0 -1 0 0 27 0 0 
0 0 0 0 0 0 9 0 0 
8 0 0 3 0 0 1 0 0 
2 0 0 21 0 0 -18 -1 0 
31 0 -1 12 0 -1 12 0 -1 
1 0 -1 8 0 -1 3 0 -1 
9 0 0 1 0 0 15 0 0 
3 0 0 6 0 0 2 0 -1 
6 0 -1 0 0 0 19 0 0 
3 0 0 16 0 -1 7 0 0 
7 0 -1 30 0 0 14 0 0 
0 0 0 3 0 0 13 0 -1 
2 0 0 1 0 0 0 0 -1 
19 0 0 0 0 -1 15 0 -1 
2 0 0 0 0 -1 5 0 0 
15 0 -1 2 0 0 -15 -1 -1 
6 0 0 
v 3 1000 double
-474.34104349 4.2449590497 13.234602529 -110.88283907 -11.281791144 3.7192170532 -7.5222068782 -0.78862764561 12.698241677 
-274.46163132 -17.495873558 29.739683413 -336.0565409 -11.658704269 -19.66524576 -114.18270826 -15.581848357 5.7542553744 
-49.559714707 -14.628667107 5.4674870805 -145.0622979 -20.694999807 -9.0422194898 -142.41093705 -8.3237940702 10.372459238 
-65.386647146 13.191226044 -3.5357338953 -200.8000549 -3.3725186776 2.3762552812 -351.90990531 5.6475021984 -3.7083833614 
-285.14674999 -16.98761188 -9.2636148226 -399.60726866 -2.6435637477 8.1074169543 -413.23772732 25.416573408 -9.8162875077 
-239.10556043 -0.17599934335 -8.1601782271 -365.94129129 10.057835192 -8.1097306451 -245.13273025 -28.872044065 -1.3059923585 
-120.9359983 7.581374146 -2.3411628215 -441.24392147 0.25757066655 -25.818277328 -343.39081617 3.9610256765 -3.9760497977 
-370.1969626 -1.3925548426 -10.487293863 -88.073094606 -13.281900903 2.5100286353 -270.1636891 12.416970124 -5.2783543886 
-8.8679895417 13.170124988 2.8872482162 -292.78841145 20.009460032 -6.5255257035 -175.91403272 -0.99310092881 -19.561293969 
-178.4964299 -12.963558472 -8.1649214836 -470.9887753 -1.5425324707 23.670945332 -16.281740297 8.0769745647 6.4935770546 
-108.72080075 -4.9672700998 -1.1247425393 -96.5204973 -1.2194744837 5.9934099995 -218.37026154 -4.5837122302 7.6502403975 
-132.94129627 3.1220862399 -19.782184163 -209.49122518 -19.711388701 -9.8902931132 -41.774174503 -2.9420889474 -17.791045937 
-394.45641377 -21.112369322 7.1192627831 -349.51619869 -14.273838977 10.959677905 -48.474319439 -29.26320264 -15.154974567 
-3.5111405618 -1.9110927301 -4.3542976768 -440.5141751 -0.65164375554 -0.48645194427 -47.171481736 8.1036516831 -8.6256869714 
-37.00448937 17.677529691 -5.6673104772 -76.426409025 -13.320704147 -18.658031863 -393.62881672 13.412708845 17.059325069 
-5.2165415586 10.339134817 10.845527769 -144.2194794 3.079696424 -9.9098470522 -158.99185585 0.00095851365484 23.832302998 
-220.9651482 -10.947917174 -15.920353447 -16.182947725 -9.2026756945 33.640535355 -29.707394364 0.31978389145 4.6001686369 
-185.59805242 -6.7516580287 -2.1520062336 -3.7258737558 14.666582854 -8.8871472319 -22.514098345 10.782461023 -26.21757957 
-86.683229357 -2.808281743 -12.711383793 -90.796470592 31.96386089 -34.230682164 -109.92185677 25.523757589 -12.959205224 
-2.0040069353 4.6377372781 -2.4282431022 -341.08184136 18.019482374 -15.306249425 -222.36386287 -1.9189388448 5.3261699852 
-180.13957513 -5.3166729063 14.043792599 -222.80649956 7.4613381142 -6.662019851 -132.21976452 -1.5924311836 38.642121017 
-347.89616476 6.3185486543 26.976815515 -61.447266074 8.3818315692 -19.456817141 -234.84909615 -21.279581903 -17.598885431 
-559.09848463 5.6048723631 0.17904065511 -414.35604341 2.4451213376 -11.349260549 -133.13428875 -16.766434958 -5.1695804509 
-235.87624211 11.348104467 -15.829784676 -303.28830152 7.3988251583 -8.2267440541 -82.518159287 11.235680181 19.870063967 
-127.81627704 25.85823482 -4.3546276955 -19.416789434 -4.591774672 -2.49036638 -74.00388994 14.751588433 10.09361794 
-370.44226812 26.711191844 18.440545014 -438.76290825 6.9802796989 36.138196284 -223.73527208 12.695478774 -6.6781612795 
-531.70593247 -4.2706644859 -18.651949964 -30.603442343 -0.86060644439 -3.5031689781 -86.893765533 -19.821919026 -12.612912389 
-386.84211094 -10.749980077 -14.838702182 -345.23038801 -10.085111043 -14.848961988 -242.2496656 10.276023458 -11.995910003 
-257.68139195 16.130752523 5.138011081 -288.3203871 -6.8350048864 11.845733206 -532.41681258 1.7019958762 -9.940200207 
-234.87973071 -5.339546814 19.354832314 -52.656855123 -0.70376281474 4.6496135879 -86.58349679 14.750710772 5.2598179495 
-212.62862718 12.387750802 9.0041188402 -157.38563833 -17.303479433 -5.922019171 -101.73090204 4.4906240252 3.1075682257 
-104.41913987 -8.2280886575 -16.732596851 -87.237047479 3.5846172722 -13.53584258 -118.08346013 -1.0115135303 -4.7891127619 
-166.07348261 4.5303830912 -0.4318890663 -215.1913004 -21.382400059 9.4085024257 -15.624307866 11.938765189 5.5359559526 
-27.40931092 7.8966527507 4.9780173813 -77.725332803 -0.82609053003 0.9696388233 -208.57127072 5.7778230731 19.593993822 
-7.5115154253 5.2972720535 -3.4148977528 -86.825422945 17.128112287 -8.260051156 -19.359409061 -2.7255169379 -5.2380974517 
-19.904673912 -8.030681391 -9.6210131995 -344.8649232 -12.818481733 11.079791695 -12.249660782 22.06561525 -14.232758428 
-139.22201241 21.838354431 6.7259334473 -141.86489258 24.304852102 -19.113231729 -74.165009058 14.210145602 -6.9847105076 
-265.20960367 -29.498508781 31.390009518 -238.6191793 -18.429706643 23.944600698 -152.24978956 17.131755814 3.6964918653 
-50.190047589 15.2194874 19.216309107 -124.90441026 29.651274676 4.3054337421 -475.9699277 -0.20919452783 8.9747610341 
-396.71458926 -2.5723340344 -8.3098373224 -262.98022212 -18.833407099 -18.269119555 -213.65984463 -3.4935564375 -16.618979526 
-203.00135055 11.040258878 0.26925290691 -27.804070085 -12.315487164 0.47436730612 -272.41767291 13.621765779 -1.2412773459 
-309.78642711 19.293873431 34.051559134 -102.69809694 10.879320442 -9.988332856 -351.28894073 -14.46008174 5.9849599542 
-113.50390935 -15.949577591 -7.7749068085 -89.343639523 -1.3701891828 19.044619707 -332.62604475 0.79164336328 -0.71774899373 
-443.88381647 -24.835240361 -4.1708069444 -367.05806783 -1.8201636989 2.1994245246 -299.90400716 -11.631820227 -4.3924595013 
-130.11781827 -28.327213766 3.9256704519 -205.56157622 -8.8698651791 27.476003514 -180.70670408 0.76142311362 21.766591724 
-144.8053651 -6.3063805363 18.516048021 -163.81332261 4.9102342529 7.3835371243 -171.24094934 17.137379483 29.744875451 
-207.04171625 -18.918121584 9.1796437567 -433.15694822 -8.9233527011 -0.93678323891 -39.065894749 -17.371877334 19.887933651 
-89.958441173 3.7305001863 -3.1338705212 -393.72297042 20.036041257 4.9126138224 -209.76667349 0.36459848455 16.165220047 
-45.787822843 0.87813896105 -4.964386213 -31.804619109 -9.9666677816 13.184984834 -3.0715058114 -4.8234823491 -11.034538059 
-419.0026277 8.0681037019 -11.724952619 -83.479875272 17.866759069 -7.2876406145 -10.623861846 12.662095263 2.219104633 
-4.2048646122 -3.9202495985 3.780829195 -440.26416556 -9.0157952143 20.062030145 -28.732554562 -5.8863636535 1.5197291287 
-80.988426787 -18.766692878 -11.110572194 -109.64036257 5.3976974543 -9.3099540779 -209.36297429 22.493565733 -2.9080264018 