ITEM: TIMESTEP
48000
ITEM: NUMBER OF ATOMS
1000
ITEM: BOX BOUNDS xy xz yz pp pp pp
0 10 0
0 10 0
-0 10 0
ITEM: ATOMS id type type x y z ix iy iz vx vy vz fx fy fz omegax omegay omegaz radius 
309 1 1 2.3007 1.74555 1.90981 132 1 0 -315.885 -11.4372 -5.56648 3482.87 -1230.88 -1502.87 0 0 0 0.5 
868 2 2 2.23517 0.0729419 0.546523 -118 0 2 -466.853 -7.36389 30.2585 -6198.69 4904.03 -730.589 0 0 0 0.5 
22 1 1 0.887609 1.16477 0.281824 208 1 0 -393.221 19.3721 -42.158 677.352 429.58 967.357 0 0 0 0.5 
19 1 1 0.884946 0.633533 0.965108 -164 0 0 -458.665 -1.85884 -21.2036 -220.313 232.808 -598.511 0 0 0 0.5 
440 1 1 1.02924 1.25113 1.8562 -41 0 0 -365.407 -15.7915 -2.20513 823.433 -461.508 738.957 0 0 0 0.5 
25 1 1 1.97323 1.87788 1.00759 -165 0 0 -312.913 -8.17142 6.92635 2341.76 1364.06 1276.77 0 0 0 0.5 
530 2 2 2.24191 2.97443 1.97986 -89 0 2 -216.334 7.71766 44.3711 688.148 2791.08 -1763.3 0 0 0 0.5 
147 1 1 1.42377 2.28886 0.309543 -144 0 0 -317.324 3.36742 8.3558 933.074 1665.53 1918.8 0 0 0 0.5 
912 2 2 0.760623 2.95783 1.81896 0 0 0 -189.746 -0.215721 -3.51787 -2463.48 1409.08 -637.832 0 0 0 0.5 
947 2 2 1.07361 1.68725 1.10156 -28 0 1 -317.583 -9.26907 -13.0327 1515.91 -1958.92 -426.888 0 0 0 0.5 
741 2 2 3.36799 4.85582 1.19867 -123 0 0 6.73207 -0.913727 -7.91868 -4889.76 1597.37 1631.47 0 0 0 0.5 
217 1 1 4.45594 0.157104 0.458332 -101 0 0 -474.235 -6.9157 -0.517335 -1218.17 504.944 612.968 0 0 0 0.5 
568 2 2 4.49899 3.06886 1.45782 -92 0 0 -176.882 -12.6066 0.483315 -1431.89 2494.62 987.123 0 0 0 0.5 
130 1 1 0.213156 2.76205 0.986715 -79 0 0 -244.094 33.9198 11.0421 -750.742 1886.99 275.703 0 0 0 0.5 
509 2 2 0.492178 2.06072 0.884246 -136 0 0 -323.391 -5.40143 15.4802 -1325.84 -327.584 -1105.26 0 0 0 0.5 
386 1 1 2.8013 4.95688 0.401801 113 0 0 -35.2553 10.4817 6.98947 368.402 1174.48 1910.36 0 0 0 0.5 
443 1 1 2.06034 1.30193 0.410924 176 1 0 -374.299 -21.3901 0.143471 -2466.03 1966.87 -132.827 0 0 0 0.5 
637 2 2 1.37794 0.473579 1.62323 -157 0 2 -452.224 -8.18256 0.816173 1416.81 -3564.97 -787.184 0 0 0 0.5 
284 1 1 2.50707 2.56858 1.49166 -121 0 0 -238.033 2.23288 10.7514 -974.629 -1678.7 1288 0 0 0 0.5 
90 1 1 2.13709 4.18824 1.6175 47 0 0 -110.201 31.227 3.82646 242.937 3204.93 287.494 0 0 0 0.5 
735 2 2 1.62456 3.45286 1.13582 49 0 0 -114.614 17.2728 6.99933 1696.22 652.823 270.697 0 0 0 0.5 
695 2 2 0.315532 0.52799 1.64104 137 1 0 -456.049 -0.346407 6.65803 372.097 2126.75 -1824.18 0 0 0 0.5 
547 2 2 1.47994 2.71107 1.76674 49 0 0 -195.394 5.50484 -3.28201 -124.655 1508.75 -2347.27 0 0 0 0.5 
39 1 1 2.54702 3.57199 1.58069 -117 0 0 -121.649 2.31927 -1.72118 -1962.96 -962.545 2182.3 0 0 0 0.5 
999 2 2 4.56669 4.27653 1.01241 -48 0 0 -111.956 29.4575 19.3952 3710.78 -1234.05 -215.395 0 0 0 0.5 
383 1 1 2.17235 4.01457 0.326237 -95 0 1 -113.865 4.91349 17.2138 816.809 -1774.82 -245.165 0 0 0 0.5 
214 1 1 3.45749 3.84829 0.212007 -30 0 0 -143.194 2.4259 10.3112 -532.614 -657.88 -1277.1 0 0 0 0.5 
556 2 2 3.43818 0.895727 1.20091 173 1 -1 -390.652 -12.9025 -18.5438 1163.87 -200.756 506.01 0 0 0 0.5 
483 1 1 4.25788 0.680969 1.379 219 1 0 -387.886 -7.69806 5.51815 -454.27 -3071.64 -644.631 0 0 0 0.5 
268 1 1 1.88948 2.71163 0.967423 35 0 0 -194.819 -0.961401 -17.0894 -1952.63 -437.85 -3459.75 0 0 0 0.5 
711 2 2 0.0260967 1.21848 0.535 186 1 0 -384.646 -9.41772 28.277 181.545 -2114.3 377.063 0 0 0 0.5 
687 2 2 2.41482 3.13395 0.281654 219 1 1 -157.298 -14.1638 -5.35812 179.004 -396.38 -84.7706 0 0 0 0.5 
1000 2 2 3.52984 1.61947 1.86056 -127 0 0 -348.83 4.03896 -19.7097 3.29136 123.67 -542.314 0 0 0 0.5 
881 2 2 1.23475 3.80539 0.327465 -17 0 0 -110.471 -17.7204 -16.1198 2237.31 -2904.82 -2089.93 0 0 0 0.5 
427 1 1 0.798139 4.29264 0.666959 -32 0 0 -26.1958 -9.70398 11.0576 -2598.09 3706.29 -151.121 0 0 0 0.5 
502 2 2 0.20005 4.14915 1.64717 -155 0 1 -99.4162 7.28358 -10.6194 -1245.6 779.635 567.083 0 0 0 0.5 
738 2 2 3.64897 1.46093 0.127448 261 1 1 -382.349 18.1244 -3.28532 -1080.99 1234.35 -487.258 0 0 0 0.5 
465 1 1 3.89621 2.98487 0.769325 -41 0 1 -169.162 -6.99715 -4.63798 -2287.15 -480.48 -23.6808 0 0 0 0.5 
742 2 2 1.90788 4.78968 0.753694 2 0 -1 -29.9628 9.16617 20.1046 -638.715 1385.33 327.705 0 0 0 0.5 
699 2 2 0.898283 3.71211 1.32928 22 0 -1 -110.178 5.16261 -10.1622 -926.882 -2077.24 2317.44 0 0 0 0.5 
899 2 2 2.92988 2.1261 1.08866 -171 0 0 -298.545 4.1989 -13.664 1542.52 -2144.39 -2028.42 0 0 0 0.5 
372 1 1 2.91678 1.22507 0.700089 -176 0 1 -375.348 0.93887 8.11282 -1139.03 1037.53 -1503.15 0 0 0 0.5 
80 1 1 3.39131 3.6121 1.90452 -67 0 1 -119.068 -13.1868 -8.42531 37.5723 -182.038 -1816.77 0 0 0 0.5 
62 1 1 3.03698 3.25546 0.924027 -57 0 0 -161.284 0.567338 13.4897 968.635 -742.995 -1831.57 0 0 0 0.5 
549 2 2 3.79265 4.03147 1.01337 -164 0 0 -111.087 -24.6942 -2.75498 1130.49 -1114.14 855.341 0 0 0 0.5 
126 1 1 3.92041 4.53978 1.6833 267 1 -1 -28.3384 3.02037 3.12206 -1587.07 1602.02 3315.53 0 0 0 0.5 
221 1 1 3.95679 4.79248 0.424728 100 0 1 -49.9126 21.2961 26.4653 1275.59 162.162 -3177.97 0 0 0 0.5 
339 1 1 4.22632 0.862496 0.33647 -90 0 1 -411.782 -1.60417 -2.23173 -727.462 1544.41 -57.4511 0 0 0 0.5 
23 1 1 4.2728 3.78207 1.8159 -151 0 1 -99.969 3.18049 22.7675 94.4187 -1689.59 985.115 0 0 0 0.5 
787 2 2 4.77279 1.59616 1.09451 -89 0 1 -350.323 -5.59983 -5.04409 -1428.29 2128.78 197.159 0 0 0 0.5 
582 2 2 4.73106 2.1536 0.13775 -23 0 0 -284.561 -13.2727 7.49695 -1593.6 620.279 -466.638 0 0 0 0.5 
361 1 1 4.80805 3.02554 0.480457 -74 0 0 -213.636 5.79155 0.102249 2882.89 -191.597 293.404 0 0 0 0.5 
797 2 2 4.85488 2.44499 1.16519 241 1 0 -258.164 -9.63324 8.86621 -892.327 -1187.62 797.455 0 0 0 0.5 
58 1 1 3.05351 4.11529 3.79359 38 0 -1 -65.5988 -6.339 13.0341 -1548.06 1108.32 -1827.28 0 0 0 0.5 
620 2 2 1.50743 1.55843 3.46238 -47 0 0 -305.613 -11.7467 3.10562 151.145 -340.068 512.871 0 0 0 0.5 
196 1 1 3.38152 4.63194 3.09749 309 1 0 -1.20469 0.691221 -2.98322 -2204.69 1951.28 2107.43 0 0 0 0.5 
593 2 2 1.46619 1.52631 2.69885 -4 0 1 -313.858 2.57819 -3.65968 309.339 -1301.46 -2277.02 0 0 0 0.5 
38 1 1 1.97481 3.86787 3.9718 -76 0 1 -112.892 25.5946 -22.9915 -1079.43 -827.244 158.57 0 0 0 0.5 
182 1 1 0.842751 1.9783 2.9869 30 0 -1 -301.021 11.4227 12.476 -632.902 -984.464 -51.8574 0 0 0 0.5 
828 2 2 0.021856 1.64904 3.10976 -80 0 1 -307.134 -29.5782 4.63277 -162.953 -1536.71 -1777.1 0 0 0 0.5 
833 2 2 0.720424 1.86134 2.02641 -40 0 0 -268.826 0.0979835 -14.1805 -1428.87 3647.76 1650.25 0 0 0 0.5 
267 1 1 0.537911 0.583052 2.83204 -194 0 0 -429.284 6.67095 15.2804 14.1113 131.797 247.877 0 0 0 0.5 
79 1 1 2.54406 1.39093 2.72978 -136 0 1 -334.271 -8.38795 -7.85147 -791.824 2053.45 741.48 0 0 0 0.5 
416 1 1 2.70422 1.00781 3.49305 -123 0 0 -357.391 -18.8962 17.8231 -510.098 -179.604 -1240.31 0 0 0 0.5 
186 1 1 2.52668 3.77883 2.64961 247 1 0 -121.653 10.7473 8.96163 -947.701 1842.33 260.416 0 0 0 0.5 
816 2 2 0.925139 3.17243 3.02542 -23 0 0 -154.611 -16.1214 -6.34512 759.675 -2124.18 53.8154 0 0 0 0.5 
597 2 2 3.9049 0.312081 2.36834 -162 0 1 -474.819 -1.9121 31.5008 -436.175 1097.53 59.9727 0 0 0 0.5 
333 1 1 0.481242 0.631039 3.74957 -57 0 0 -468.194 -3.32698 22.8899 289.104 997.009 273.965 0 0 0 0.5 
533 2 2 0.632202 2.5614 2.60148 350 1 0 -230.579 -0.620688 -4.04891 -1748.84 2342.5 -1448.85 0 0 0 0.5 
612 2 2 4.31786 0.359796 3.41812 -62 0 1 -439.737 -8.67002 -8.33272 -218.135 -1523.88 2535.56 0 0 0 0.5 
133 1 1 1.45907 0.781983 2.426 186 1 1 -395.082 -25.3757 29.9435 557.493 262.269 -707.204 0 0 0 0.5 
288 1 1 1.66359 2.14154 2.11671 -62 0 -1 -260.541 -2.10426 15.9395 -2555.75 445.869 1617.29 0 0 0 0.5 
647 2 2 2.52756 0.0230654 3.46975 -124 0 0 -475.167 -10.6994 -11.774 -2739.95 1212.72 1221.44 0 0 0 0.5 
551 2 2 2.15126 1.52419 3.86263 69 1 0 -315.841 16.7569 31.6095 3419.44 -2629.01 1023.03 0 0 0 0.5 
956 2 2 3.73548 1.90237 2.85904 -121 0 1 -306.584 -10.0485 11.6244 618.574 231.151 378.565 0 0 0 0.5 
783 2 2 3.47604 1.22705 3.90184 -108 0 1 -355.422 4.47967 5.31675 -585.705 230.061 -565.463 0 0 0 0.5 
673 2 2 3.4645 2.33503 3.62487 198 1 -1 -265.188 9.96631 16.5615 256.913 582.219 -1564.76 0 0 0 0.5 
806 2 2 1.58626 2.2813 3.84276 -114 0 0 -210.341 -2.72323 23.7689 -849.221 3565.31 13.096 0 0 0 0.5 
65 1 1 1.56106 3.07754 3.48535 -92 0 0 -158.745 4.61599 12.71 1246.28 -865.929 -843.104 0 0 0 0.5 
418 1 1 2.49239 2.73488 3.76715 -163 0 1 -198.267 -7.14293 -5.13287 436.492 -118.304 -1660.86 0 0 0 0.5 
142 1 1 0.746621 1.47786 3.72824 -112 0 -1 -321.201 -7.68298 -17.2408 427.017 -2797.24 1471.35 0 0 0 0.5 
598 2 2 2.19849 2.86948 2.93373 -101 0 1 -196.549 -13.3519 -3.14226 -1607.32 1282.58 618.965 0 0 0 0.5 
472 1 1 1.06937 4.2503 2.14535 12 0 1 -68.8654 10.1321 -23.3953 22.2725 70.0617 106.236 0 0 0 0.5 
128 1 1 3.45296 0.698471 2.0859 102 1 1 -422.295 9.20527 -29.6666 -2014.68 1193.57 -698.194 0 0 0 0.5 
931 2 2 1.043 3.56025 3.91569 21 0 0 -130.302 -6.72403 6.34384 -1065.57 1746.03 336.819 0 0 0 0.5 
700 2 2 0.197515 2.77209 3.94485 178 1 1 -209.05 -2.15017 -17.9994 -1481.2 -309.591 -1528.02 0 0 0 0.5 
399 1 1 4.4667 3.02654 3.92274 -136 0 -1 -168.622 -16.5073 7.17081 -573.853 -704.514 1092.21 0 0 0 0.5 
307 1 1 3.77117 2.44266 2.21692 281 1 -1 -253.267 -9.00768 -14.8861 -2646.29 2551.11 -965.528 0 0 0 0.5 
927 2 2 0.911781 4.47881 3.92545 3 0 0 -57.0253 15.7462 -2.17691 -410.566 -101.341 -734.748 0 0 0 0.5 
503 2 2 4.67921 2.76547 2.33997 64 1 0 -245.527 6.31781 17.0213 3901.17 -2337.66 52.2109 0 0 0 0.5 
939 2 2 3.44133 3.39719 3.45916 -60 0 0 -64.345 -47.6514 -3.53606 127.267 1515.36 1262 0 0 0 0.5 
603 2 2 4.15389 1.23633 3.09146 253 1 0 -338.827 -27.4493 -4.8456 558.659 647.775 -1769.29 0 0 0 0.5 
481 1 1 0.449795 4.25337 3.07002 55 0 -1 -92.8925 9.10338 -0.452314 -1380.1 2216.71 1001.36 0 0 0 0.5 
993 2 2 0.503506 4.94142 3.01287 34 0 1 -8.07098 23.5121 7.73262 334.348 -233.958 110.482 0 0 0 0.5 
744 2 2 2.93432 2.98637 2.53759 233 1 0 -174.514 7.87737 -2.73143 1547.06 -1971.02 255.41 0 0 0 0.5 
213 1 1 3.15902 4.40663 2.1788 341 1 1 -32.4326 -2.95416 6.4768 -5.81044 1224.36 1568.68 0 0 0 0.5 
896 2 2 3.83316 3.91423 2.80634 -24 0 -1 -98.7089 15.2276 1.73503 1458.51 -1926.96 -1298.38 0 0 0 0.5 
480 1 1 3.09091 0.693147 2.86637 -139 0 2 -374.362 -9.05565 -1.83048 1801.38 -2388.75 -63.6747 0 0 0 0.5 
542 2 2 2.90995 2.23419 2.91622 -243 0 1 -261.209 -16.092 15.4666 -1807.5 -1370.7 -726.637 0 0 0 0.5 
894 2 2 3.82879 3.16538 2.42583 7 0 0 -164.962 3.88775 25.0318 -1432.96 862.44 626.852 0 0 0 0.5 
640 2 2 4.48043 3.75544 3.44003 -143 0 0 -101.617 -7.49287 -5.91301 5.66869 966.94 1001.11 0 0 0 0.5 
562 2 2 0.658175 3.73753 3.05716 119 0 1 -124.286 -5.79009 -10.1494 31.2577 -491.527 310.822 0 0 0 0.5 
207 1 1 4.43718 1.79354 2.31638 239 1 1 -342.432 2.21383 -0.119664 3745.14 -3399.46 -148.005 0 0 0 0.5 
930 2 2 4.44071 2.18745 3.47284 -70 0 0 -278.119 3.2376 -14.0698 622.971 251.06 -588.088 0 0 0 0.5 
760 2 2 4.62765 4.9922 2.3695 -59 0 1 6.73104 9.50222 -27.1357 867.421 -216.54 -87.1933 0 0 0 0.5 
917 2 2 4.65116 4.64367 3.83087 37 0 0 -30.1557 2.27753 5.42915 -867.472 -433.441 -34.3233 0 0 0 0.5 
697 2 2 4.39849 1.35869 3.99242 -51 0 -1 -365.768 27.3445 -15.792 1164.38 51.8848 1419.32 0 0 0 0.5 
820 2 2 0.563121 0.00190194 2.18627 -188 0 0 -499.207 6.96424 -6.78949 -9.65785 -3418.51 2293.63 0 0 0 0.5 
980 2 2 4.90068 3.95886 2.62755 226 1 2 -84.4057 -13.2236 4.35592 72.8951 681.601 775.021 0 0 0 0.5 
510 2 2 1.66043 2.71517 5.07471 -72 0 -1 -219.415 8.28618 -11.589 -1176.6 2283.16 2184.18 0 0 0 0.5 
400 1 1 0.289909 1.60782 5.83166 -153 0 0 -259.939 -10.6383 12.568 -2643.33 735.43 -984.129 0 0 0 0.5 
667 2 2 3.09304 2.83785 5.93023 -61 0 0 -220.329 17.1264 21.8152 3350.87 -2662.92 -765.687 0 0 0 0.5 
871 2 2 4.76786 4.96364 5.36056 -10 0 0 44.3851 -10.625 27.3201 -1552.11 -2052.17 993.301 0 0 0 0.5 
357 1 1 1.40094 1.36265 4.43096 -283 0 1 -341.581 0.560395 2.17507 60.6424 245.251 -262.844 0 0 0 0.5 
658 2 2 2.6413 0.848779 4.35003 -90 0 0 -348.925 -21.5571 9.30637 702.411 -643.573 -204.802 0 0 0 0.5 
454 1 1 2.18029 3.88415 5.20947 281 1 0 -88.9146 -3.38853 11.3635 662.668 -1502.38 -732.206 0 0 0 0.5 
848 2 2 0.790489 2.34973 4.08587 -244 0 1 -213.858 -20.2297 4.90977 -90.581 -999.838 475.217 0 0 0 0.5 
616 2 2 2.2522 2.64899 5.72536 -61 0 0 -221.299 -13.083 7.35557 3160.07 -1709.22 -741.66 0 0 0 0.5 
278 1 1 1.8191 1.73346 5.82838 261 1 -1 -297.359 4.12236 -3.3487 1768.66 -674.271 -205.761 0 0 0 0.5 
674 2 2 1.06092 1.87295 5.38369 -73 0 0 -272.456 5.25003 -20.9586 -22.6368 196.887 -14.5331 0 0 0 0.5 
693 2 2 1.45305 0.957519 5.24963 95 1 -1 -404.429 -1.47685 7.82163 -639.711 434.312 173.056 0 0 0 0.5 
492 1 1 1.45128 3.76611 4.74879 -158 0 0 -95.5308 -34.7192 -4.69778 1074.78 -1468.56 -200.721 0 0 0 0.5 
86 1 1 1.7124 3.29738 5.86796 -43 0 1 -145.816 -10.9469 -1.79953 -1225.74 2408.06 -196.135 0 0 0 0.5 
889 2 2 4.3314 4.0971 5.43191 1 0 0 -70.1017 5.12572 -5.41315 -878.012 2912.11 -370.807 0 0 0 0.5 
459 1 1 0.19392 1.49544 4.23061 -6 0 0 -324.301 -14.0986 4.49238 -785.32 -260.436 774.698 0 0 0 0.5 
565 2 2 2.54137 0.261407 4.96593 -144 0 0 -481.134 5.44473 6.11342 625.341 -111.85 1568.16 0 0 0 0.5 
875 2 2 2.65337 2.93716 4.75334 -69 0 1 -178.478 2.48716 25.5777 -450.051 1152.59 2408.27 0 0 0 0.5 
270 1 1 2.89231 0.985855 5.53937 -132 0 1 -386.019 -2.86071 -18.9405 -243.86 -120.41 -159.357 0 0 0 0.5 
626 2 2 0.0328493 0.0694863 4.53419 -86 0 -1 -510.277 -4.52942 3.92345 -1327.79 1019.63 -1670.89 0 0 0 0.5 
608 2 2 0.77515 2.86219 4.81919 -58 0 0 -192.431 8.84793 -8.16329 -1984.59 706.598 -58.5263 0 0 0 0.5 
624 2 2 3.82134 3.92336 4.18886 6 0 -1 -90.9135 18.9805 1.11817 1594.07 -2468.63 1063.77 0 0 0 0.5 
168 1 1 4.40324 0.949834 5.33737 118 1 0 -385.984 -10.131 23.1245 -1071.86 276.055 159.9 0 0 0 0.5 
24 1 1 0.219123 1.9678 4.98022 239 1 -1 -268.549 -0.542665 7.25778 1237.04 -3597.18 -900.418 0 0 0 0.5 
763 2 2 0.406135 0.956898 5.23588 141 1 1 -394.224 -13.3821 -18.0477 267.104 -613.554 -202.755 0 0 0 0.5 
327 1 1 2.03178 3.04364 4.28504 -70 0 0 -185.18 0.313212 12.5907 -1419.54 1606.79 395.77 0 0 0 0.5 
71 1 1 0.463775 0.00577674 5.91623 124 1 0 -471.044 -9.07272 -11.3414 -161.122 -268.216 781.58 0 0 0 0.5 
782 2 2 2.10254 2.14143 4.88175 58 0 -1 -268.244 3.81444 -0.362861 2238.15 1654.87 -800.255 0 0 0 0.5 
656 2 2 2.40576 1.52799 4.81079 -127 0 1 -312.017 -19.8667 22.1712 1120.37 -1572.56 1107.91 0 0 0 0.5 
714 2 2 1.81854 0.256398 4.86098 503 2 0 -467.877 -24.8561 -22.7624 -2770.88 -729.916 -848.448 0 0 0 0.5 
5 1 1 0.112529 4.91685 5.59556 21 0 -1 23.66 4.09024 12.739 -2055.75 1986.78 -1050.89 0 0 0 0.5 
364 1 1 3.03016 2.33523 4.3905 -73 0 0 -254.76 -20.8512 1.13491 503.785 -2754.35 1285.83 0 0 0 0.5 
352 1 1 -0.0100125 4.6835 4.4551 -105 0 0 19.5518 -15.6717 -10.59 453.053 -2317.83 1469.47 0 0 0 0.5 
949 2 2 2.04145 4.81152 5.09553 97 0 1 -25.6575 10.7829 -18.9473 1758.76 -435.443 -2031.32 0 0 0 0.5 
935 2 2 1.60779 4.14838 5.85679 -83 0 0 -58.3945 -0.293441 -15.0387 -502.189 -148.908 1559 0 0 0 0.5 
970 2 2 3.30947 4.11477 5.72967 211 0 -1 -51.9058 -7.49251 -5.63764 1072.86 -631.274 -357.001 0 0 0 0.5 
961 2 2 4.128 2.10512 5.11724 -35 0 0 -286.545 -1.48265 19.2021 195.596 -238.241 330.489 0 0 0 0.5 
445 1 1 3.13861 4.63085 4.59776 -51 0 0 -8.04238 8.73026 28.5761 58.0039 280.484 -1147.36 0 0 0 0.5 
748 2 2 0.819889 3.22838 5.63654 284 1 -1 -144.566 10.1702 7.48649 -581.16 -693.438 195.152 0 0 0 0.5 
785 2 2 4.00617 2.27193 4.32996 347 1 1 -258.21 0.778276 5.86262 1672.04 1115.6 -965.306 0 0 0 0.5 
666 2 2 3.39479 0.200433 5.1737 -17 0 0 -508.547 18.2666 14.1522 1042.49 27.2767 1548.54 0 0 0 0.5 
53 1 1 0.667431 4.2311 5.85036 79 0 0 -55.5733 -8.41048 10.838 1443.01 -2022.43 513.629 0 0 0 0.5 
484 1 1 3.56314 3.21014 4.64959 22 0 0 -161.044 -12.0172 7.06399 2394.87 -1177.75 -1544.2 0 0 0 0.5 
40 1 1 0.10585 3.60001 4.05445 -50 0 0 -136.639 14.9898 -7.8806 -202.271 1147.04 -179.784 0 0 0 0.5 
575 2 2 2.97984 3.7853 4.86534 218 1 -1 -88.6584 16.0146 -2.56946 -2010.96 -161.908 515.217 0 0 0 0.5 
61 1 1 4.82719 1.84313 5.51942 -160 0 0 -281.134 -24.2356 -8.86148 -289.174 2418.84 1359.97 0 0 0 0.5 
860 2 2 2.53683 4.6489 5.7809 -35 0 1 -39.6848 -4.81079 0.827508 -173.573 -737.02 -351.975 0 0 0 0.5 
798 2 2 3.31776 2.3829 5.271 -190 0 0 -285.463 3.22735 4.30605 -612.149 -297.864 34.1043 0 0 0 0.5 
50 1 1 -0.0324537 3.33321 5.83691 35 0 0 -157.835 -12.0605 8.52917 -605.802 -844.669 -258.716 0 0 0 0.5 
231 1 1 1.03772 4.35109 4.91818 -41 0 1 -53.4241 7.04464 13.1791 -862.226 2375.13 316.984 0 0 0 0.5 
923 2 2 4.58168 0.66703 4.36844 196 1 0 -427.791 0.869177 10.9095 -1619.29 -2056.48 2427.09 0 0 0 0.5 
614 2 2 3.74128 1.05743 4.78727 191 1 0 -366.827 -9.25438 -0.324795 -736.335 -4.50108 40.9396 0 0 0 0.5 
743 2 2 4.93409 3.84752 5.03476 -74 0 0 -74.2675 -12.0322 -14.951 1565.03 -66.5964 -1061.32 0 0 0 0.5 
441 1 1 4.19853 0.677107 7.32326 23 0 0 -428.776 -3.62644 9.08582 570.692 -318.725 -531.119 0 0 0 0.5 
491 1 1 1.74973 0.202483 7.36568 130 1 -1 -525.195 -7.27966 11.4072 2589.7 -1041.73 3594.96 0 0 0 0.5 
237 1 1 1.10787 0.545195 6.91839 -153 0 0 -411.811 -19.213 -5.49761 -3377.94 324.945 -2739.27 0 0 0 0.5 
253 1 1 0.775439 1.29604 6.96802 -230 0 0 -357.205 0.536076 3.02475 -99.554 -588.224 -47.8629 0 0 0 0.5 
277 1 1 1.17016 2.12211 7.85841 -161 0 0 -293.127 -21.3698 16.8006 -3058.28 130.063 1158.49 0 0 0 0.5 
766 2 2 2.86718 4.2889 6.56616 -73 0 0 -30.0984 -9.2733 5.04923 863.569 -2113.75 443.528 0 0 0 0.5 
180 1 1 1.11801 1.94106 6.29603 -20 0 0 -301.177 -20.1506 4.73574 1344.68 -2032.23 202.575 0 0 0 0.5 
369 1 1 4.89885 4.58943 6.62483 -26 0 0 -65.5542 16.9086 -18.8797 -1158.26 1121.78 -188.227 0 0 0 0.5 
199 1 1 4.33677 3.67742 6.07062 -238 0 -1 -82.7556 -12.1996 1.9829 -129.01 821.606 176.926 0 0 0 0.5 
31 1 1 1.36558 1.56311 7.43711 216 1 0 -370.306 15.6698 1.64201 710.957 1234.24 -1249.24 0 0 0 0.5 
184 1 1 2.60796 3.38254 6.24295 54 0 0 -147.627 17.2387 -16.717 -3194.52 3201.33 1159.65 0 0 0 0.5 
685 2 2 3.29355 4.57015 7.9113 34 0 1 -38.4476 0.0711371 4.83533 -213.022 -836.585 140.771 0 0 0 0.5 
433 1 1 2.16942 3.74327 7.47595 288 1 -1 -78.5751 -9.61086 -5.46441 -1466.85 1692.79 2452.1 0 0 0 0.5 
389 1 1 1.86512 1.08193 7.39073 -118 0 -1 -400.599 -1.92103 4.85185 1509.51 -2709.78 -234.659 0 0 0 0.5 
155 1 1 1.91426 2.32332 6.586 27 0 0 -281.582 25.6465 -20.2963 1511.07 -4143.48 -559.654 0 0 0 0.5 
572 2 2 0.219339 1.72287 6.69622 -111 0 0 -323.45 20.7376 0.247961 997.387 -471.193 -1433.37 0 0 0 0.5 
43 1 1 4.11527 1.80285 7.20911 -166 0 0 -307.049 1.06691 3.93648 0 0 0 0 0 0 0.5 
84 1 1 1.72229 2.44869 7.46405 99 0 0 -273.498 24.9106 0.371475 1329.33 -2508.96 509.672 0 0 0 0.5 
992 2 2 2.71819 3.09207 7.12812 -146 0 0 -163.724 5.06138 -15.987 1929.65 -4055.95 -378.576 0 0 0 0.5 
208 1 1 0.787095 0.965798 6.11528 -58 0 1 -374.926 -3.72893 -9.53478 267.479 -3990.25 848.356 0 0 0 0.5 
751 2 2 0.331785 0.267731 7.69306 219 1 1 -574.378 48.4015 4.50622 1678.49 1741.63 -1558.7 0 0 0 0.5 
225 1 1 1.78217 0.906397 6.16818 -155 0 0 -413.452 -9.39689 -3.68087 -1948.25 703.779 -739.96 0 0 0 0.5 
148 1 1 0.880394 2.8252 7.7862 -46 0 0 -213.982 7.8976 15.1306 -3857.75 3981.31 1164.17 0 0 0 0.5 
621 2 2 1.59586 3.23088 6.81452 -2 0 0 -134.233 -3.11025 3.72565 -1583.54 1398.43 1336.6 0 0 0 0.5 
606 2 2 1.15498 2.45502 6.94865 -159 0 -2 -273.473 -8.67758 10.1681 1040.54 -963.828 -1376.06 0 0 0 0.5 
241 1 1 3.29795 2.15045 7.67688 373 1 1 -296.167 4.89745 11.3144 1837.47 -436.317 373.766 0 0 0 0.5 
356 1 1 0.558351 2.51598 6.20528 17 0 0 -253.152 6.76086 -5.49186 -519.376 1878.72 -1350.63 0 0 0 0.5 
661 2 2 3.597 1.01306 7.88308 -98 0 -1 -433.649 6.60968 6.32122 -63.6407 107.024 -120.947 0 0 0 0.5 
112 1 1 2.53914 0.250943 7.88839 41 1 0 -524.53 15.6012 3.98752 2014.58 -3333.44 -2268.63 0 0 0 0.5 
767 2 2 1.7799 4.14391 6.84197 -112 0 0 -37.5515 -0.403032 -15.1218 2450.28 -1786.11 -1147.51 0 0 0 0.5 
125 1 1 2.45993 2.34945 7.50642 -364 -1 0 -282.088 -6.05261 -1.74627 1443.17 426.553 -1614.25 0 0 0 0.5 
586 2 2 1.0014 4.29013 7.23608 327 1 0 1.03547 -19.2193 18.1436 -1805.16 667.505 500.562 0 0 0 0.5 
276 1 1 0.207561 3.62137 7.67584 -295 -1 0 -101.12 -8.08927 8.17966 -209.972 182.265 274.147 0 0 0 0.5 
910 2 2 0.70812 3.18687 7.0223 -65 0 1 -142.491 4.95918 -39.9111 -3077.24 3529.99 670.501 0 0 0 0.5 
532 2 2 4.46416 2.99307 6.35883 53 0 0 -146.369 -27.2804 10.3968 -4224.64 2370.76 -693.184 0 0 0 0.5 
249 1 1 3.44478 3.7687 7.46917 -97 0 1 -95.2241 -19.5962 -15.8392 121.851 178.464 42.7421 0 0 0 0.5 
245 1 1 1.37577 4.70118 6.44089 -24 0 0 -19.5933 4.79207 -1.50354 -69.2854 2361.56 2266.99 0 0 0 0.5 
747 2 2 2.53601 0.727289 6.48387 -223 0 0 -472.606 15.7885 -1.34408 4167 -1276.11 1539.04 0 0 0 0.5 
737 2 2 3.74855 1.71247 6.25145 -94 0 0 -308.42 -3.26604 -4.56076 -75.2803 9.92431 -16.8927 0 0 0 0.5 
346 1 1 2.78415 1.83961 6.03504 293 1 0 -311.381 3.24202 2.95461 813.413 -236.563 -9.53867 0 0 0 0.5 
464 1 1 4.8448 2.41472 6.06323 10 0 0 -215.876 -14.0775 0.978807 2325.16 355.482 -1081.53 0 0 0 0.5 
264 1 1 4.41322 2.84946 7.20453 -25 0 -1 -168.336 -28.4617 4.60781 -3137.21 612.078 416.738 0 0 0 0.5 
840 2 2 2.31426 4.99142 6.55018 -6 0 0 7.48456 1.97895 18.0621 278.469 1021.05 -807.07 0 0 0 0.5 
879 2 2 4.42235 3.75991 7.3125 170 0 1 -89.8382 -9.999 -15.3493 515.642 173.187 369.737 0 0 0 0.5 
415 1 1 4.60551 4.68245 7.53201 -8 0 -1 -37.3101 4.23561 -9.39254 -1693.99 10.6969 -1720.65 0 0 0 0.5 
945 2 2 2.67343 1.20296 7.22115 124 1 -1 -397.362 33.6703 -2.60117 1112.04 195.7 -184.166 0 0 0 0.5 
764 2 2 2.7164 4.96797 7.48072 -47 0 0 4.50773 17.7545 -45.6784 890.221 578.773 -1445.97 0 0 0 0.5 
580 2 2 3.91665 4.18046 6.64542 258 1 -1 -77.8301 10.3253 9.74587 -997.265 909.993 -722.963 0 0 0 0.5 
156 1 1 4.98727 0.597441 6.03026 94 1 0 -399.851 -20.7757 -3.68893 -305.91 3086.96 3645.83 0 0 0 0.5 
854 2 2 2.23211 0.753835 8.43693 50 1 -1 -415.767 -10.1307 13.0862 -305.206 748.161 4556.26 0 0 0 0.5 
595 2 2 4.5003 1.5851 8.77289 161 1 0 -319.488 -22.7322 -22.3954 653.395 -1306.66 -2503.39 0 0 0 0.5 
954 2 2 2.56588 0.701931 9.95334 240 1 -1 -409.736 -21.9912 43.9341 1357.01 -1915.83 -3483.35 0 0 0 0.5 
971 2 2 3.38867 4.69816 9.81453 45 0 0 -39.4241 12.546 -0.349219 429.668 -1163.56 -389.471 0 0 0 0.5 
211 1 1 0.591226 0.422219 8.75266 221 1 0 -470.032 18.0361 4.42065 2195.33 468.786 -304.025 0 0 0 0.5 
524 2 2 2.09812 2.09421 9.8528 -109 0 1 -306.214 11.907 13.8115 764.067 344.54 993.83 0 0 0 0.5 
402 1 1 3.04505 1.2435 8.59288 -240 0 0 -419.667 19.1567 9.80627 -1083.74 778.236 -582.59 0 0 0 0.5 
756 2 2 0.76894 1.29085 8.15105 -142 0 1 -383.689 -15.0011 -1.5843 1184.98 -202.264 -1323.86 0 0 0 0.5 
601 2 2 4.20766 1.93313 9.35022 156 1 0 -258.54 -39.2118 5.88437 22.1929 -1493.24 789.528 0 0 0 0.5 
132 1 1 1.70011 2.20414 8.38958 28 0 0 -304.199 17.78 6.9355 3524.85 -2939.22 -958.226 0 0 0 0.5 
809 2 2 1.2133 1.1761 9.07219 235 1 -1 -355.276 -32.4966 -5.36254 -973.31 -578.797 1380.04 0 0 0 0.5 
290 1 1 1.69404 1.36395 8.33261 235 1 0 -387.39 3.0359 1.36154 236.076 1292.91 -1050.52 0 0 0 0.5 
219 1 1 1.75563 4.09028 9.23349 21 0 -1 -89.2842 9.42749 4.21342 -2189.5 2027.52 27.428 0 0 0 0.5 
717 2 2 0.025769 0.737076 8.60462 -128 0 0 -466.822 4.92977 -2.4575 -2847.97 -961.701 2008.89 0 0 0 0.5 
859 2 2 2.13382 0.25365 9.24615 -262 0 1 -498.151 -4.95323 43.7873 706.062 730.221 -798.293 0 0 0 0.5 
354 1 1 4.62564 3.12072 9.62974 -80 0 0 -217.705 7.8347 5.9371 -481.868 -217.431 452.883 0 0 0 0.5 
645 2 2 0.451327 1.95629 8.48259 177 1 -1 -323.797 20.6822 1.53124 111.848 549.073 2502.34 0 0 0 0.5 
550 2 2 1.69567 3.02002 9.74201 47 0 0 -190.582 -4.21765 17.2521 398.703 2839.4 1119.09 0 0 0 0.5 
977 2 2 2.26969 3.6371 9.24271 192 1 -1 -92.8653 0.457933 19.5098 -2985.93 1386.2 2008.88 0 0 0 0.5 
373 1 1 2.55267 1.43513 9.45212 -181 0 -1 -354.782 -1.94126 15.971 995.841 -1044.92 -1188.86 0 0 0 0.5 
408 1 1 2.36305 3.03713 8.16173 -48 0 -1 -185.362 -0.277858 -13.0694 1463.84 -1409.73 51.8424 0 0 0 0.5 
479 1 1 2.30242 3.94719 8.32683 83 0 0 -49.2735 -19.5727 5.89904 -111.528 1854.51 841.567 0 0 0 0.5 
863 2 2 0.125749 1.3346 9.18981 -80 0 0 -361.896 0.616544 28.7743 3936.08 -4701.36 -608.859 0 0 0 0.5 
644 2 2 2.61215 3.13474 9.1873 393 1 0 -194.635 -13.8414 9.44568 -78.5238 -5716.68 472.025 0 0 0 0.5 
537 2 2 1.05032 2.58273 8.93039 181 1 0 -280.856 16.2609 -10.4835 -2726.43 1307.28 -18.4194 0 0 0 0.5 
660 2 2 0.62464 2.31577 9.99141 -34 0 0 -321.619 2.84686 3.23456 -753.485 -148.222 -535.995 0 0 0 0.5 
287 1 1 1.92033 2.518 9.10328 243 1 0 -286.071 26.571 -5.94765 1380.36 79.0211 908.486 0 0 0 0.5 
171 1 1 4.71192 4.88523 8.86183 -14 0 -1 -39.063 13.3945 5.14799 799.343 -2290.2 -59.0248 0 0 0 0.5 
485 1 1 1.52023 3.1815 8.38197 -130 0 1 -175.932 -2.97047 -1.02962 -247.384 -1109.3 1338.06 0 0 0 0.5 
665 2 2 3.35863 2.99768 9.84668 193 1 0 -206.087 -5.34215 5.79244 -1302.1 1364.3 227.647 0 0 0 0.5 
858 2 2 1.27968 1.97245 9.42548 -5 0 -1 -299.78 -21.6912 9.02839 73.5338 997.321 -669.903 0 0 0 0.5 
926 2 2 4.58201 2.92671 8.64775 226 1 0 -228.014 8.35605 2.99849 -276.457 2093.03 -272.392 0 0 0 0.5 
772 2 2 2.46411 4.72474 8.4785 -57 0 1 29.8934 0.917663 -13.0761 4.39826 -687.282 -1587.74 0 0 0 0.5 
115 1 1 4.29347 0.666984 8.93441 197 1 -1 -499.455 21.2698 -12.1895 -854.714 -702.624 571.553 0 0 0 0.5 
554 2 2 3.37722 3.8832 9.24234 -292 -1 -1 -109.222 -17.7912 0.748234 412.407 -1702.5 1573.92 0 0 0 0.5 
403 1 1 2.91776 4.51347 9.10683 -9 0 -1 -32.4009 -2.9332 0.0277882 -640.905 2086.6 734.028 0 0 0 0.5 
305 1 1 1.01996 3.82151 8.31617 64 0 -1 -101.17 12.3054 6.32954 -2257.98 2888.65 -296.953 0 0 0 0.5 
349 1 1 3.83777 4.87058 9.01853 82 0 0 -21.1337 3.28526 14.6864 -839.332 -1580.71 -479.234 0 0 0 0.5 
587 2 2 0.714121 4.82651 9.93327 -10 0 0 13.5314 -15.4916 -0.785674 -466.813 260.379 -373.776 0 0 0 0.5 
672 2 2 4.27535 2.78311 8.04637 -23 0 -1 -205.644 -22.0712 -9.1377 -2972.69 -1350.11 -904.184 0 0 0 0.5 
670 2 2 4.65534 0.0821966 9.60212 -138 0 0 -486.828 17.3964 -25.5864 -896.981 -1322.82 186.599 0 0 0 0.5 
861 2 2 2.59039 2.14883 8.84432 -83 0 0 -294.43 11.3065 -12.6182 1464.78 -1599.7 74.1505 0 0 0 0.5 
438 1 1 2.06324 4.6881 9.83462 13 0 -1 -28.5829 18.0755 -4.44732 1872.14 -1024.99 907.651 0 0 0 0.5 
865 2 2 4.24875 3.94586 9.27001 -129 0 -1 -123.334 7.79951 15.7894 -304.273 3137.04 159.538 0 0 0 0.5 
431 1 1 3.32162 0.783244 9.41692 -156 0 -1 -437.684 16.2713 -14.4937 -346.003 81.6827 898.491 0 0 0 0.5 
391 1 1 3.28257 3.00579 8.86137 -16 0 -1 -206.084 -2.83334 -5.57043 3395.87 134.521 -1829.8 0 0 0 0.5 
1 1 1 3.84112 0.212205 9.67614 -237 0 -1 -467.548 -17.702 16.3922 -2169.54 256.414 -1025.42 0 0 0 0.5 
877 2 2 3.89406 2.48077 9.57848 261 1 0 -213.342 -14.4637 -2.33845 -82.9779 1854.89 567.167 0 0 0 0.5 
281 1 1 3.8379 3.59337 8.3327 -13 0 -1 -115.86 -19.066 0.54438 -1489.87 2455.78 1468.17 0 0 0 0.5 
107 1 1 4.0906 4.52502 8.25091 -302 -1 1 -38.6104 -0.735153 -0.294641 -1351.81 258.787 637.889 0 0 0 0.5 
298 1 1 4.6967 3.81803 8.19913 -164 0 -1 -103.865 6.15814 -16.8579 -1520.75 -525.335 1001.64 0 0 0 0.5 
198 1 1 4.66493 4.62137 9.83469 -13 0 0 -48.4797 -9.00643 8.1194 -2717.3 3361.13 -293.098 0 0 0 0.5 
579 2 2 4.91031 3.6773 8.9912 -65 0 -1 -122.553 -2.10902 -4.37191 217.18 -2031.25 262.241 0 0 0 0.5 
997 2 2 2.95056 9.0216 1.36066 72 0 1 389.599 8.65326 -4.53534 907.66 -1206.99 659.822 0 0 0 0.5 
212 1 1 2.66991 5.02645 1.71167 212 0 0 2.23594 8.29182 11.3952 -2201.78 -735.397 -820.629 0 0 0 0.5 
135 1 1 3.27686 7.77715 0.700644 20 0 0 298.36 -3.62733 -15.1401 -615.409 266.905 76.8386 0 0 0 0.5 
681 2 2 4.14538 6.9532 1.43838 39 0 1 194.285 5.15192 19.4604 1698.81 -686.127 237.262 0 0 0 0.5 
696 2 2 4.14127 7.40226 0.592716 53 0 0 293.557 -16.8991 21.1213 -1801.77 4022.91 -1833.17 0 0 0 0.5 
704 2 2 3.17397 6.18992 1.7373 138 0 -1 138.745 -4.60391 -1.30252 -910.645 1107.55 259.482 0 0 0 0.5 
664 2 2 0.141708 8.92404 1.39226 145 0 0 359.159 26.0235 -3.20495 7.04493 -283.331 -1212.77 0 0 0 0.5 
946 2 2 1.62688 6.64584 0.0815682 111 0 0 165.716 -0.257261 15.1082 499.608 -74.298 -182.367 0 0 0 0.5 
310 1 1 0.738032 9.06035 0.465958 130 0 1 415.806 -1.97843 7.38604 102.033 50.9545 1358.12 0 0 0 0.5 
202 1 1 3.87936 8.76147 1.55571 135 0 0 379.087 -1.77845 -3.89524 -397.642 250.737 978.107 0 0 0 0.5 
713 2 2 2.64429 9.61651 0.644607 -240 -1 1 428.359 13.3422 6.54394 4033.13 -3049.86 186.103 0 0 0 0.5 
160 1 1 3.36012 7.22732 1.68091 102 0 0 189.912 13.1692 -10.4706 1545.76 1123.49 163.964 0 0 0 0.5 
109 1 1 4.25793 9.72318 1.71601 97 0 1 486.384 -12.8993 16.5688 -933.905 2326.29 -1755.87 0 0 0 0.5 
370 1 1 2.81215 6.82839 0.924413 -6 0 0 208.372 -9.18996 -28.8069 -2382.1 1059.15 386.151 0 0 0 0.5 
317 1 1 -0.00280133 6.51788 1.27938 -2 0 1 178.314 7.03564 13.7014 1695.34 1282.48 -583.61 0 0 0 0.5 
12 1 1 4.67689 5.67785 1.37728 -97 0 0 69.1529 6.54337 -4.38565 2272.16 -1440.04 2196.99 0 0 0 0.5 
920 2 2 0.0147426 8.14829 1.00555 -241 -1 1 300.418 18.937 -6.17986 116.789 125.638 251.389 0 0 0 0.5 
323 1 1 0.99034 9.68035 1.20643 -315 -1 0 460.906 -5.49661 4.69904 776.73 142.041 521.066 0 0 0 0.5 
701 2 2 0.247748 9.84077 0.640763 139 0 0 464.941 9.82376 14.5289 -910.443 1519.43 1673.72 0 0 0 0.5 
412 1 1 3.98721 6.25309 0.105353 -298 -1 1 150.201 -14.7201 -20.6008 -1813.53 456.921 -556.373 0 0 0 0.5 
451 1 1 2.40436 7.00412 1.74561 56 0 1 253.222 -21.3248 9.10918 -2078.98 -845.302 1050.47 0 0 0 0.5 
468 1 1 0.527989 5.04904 1.22387 5 0 1 23.1549 -6.76313 7.77349 897.645 378.2 -106.487 0 0 0 0.5 
261 1 1 0.726662 5.79751 0.241468 9 0 0 54.8119 -0.759995 -18.8611 974.17 -545.523 -86.6461 0 0 0 0.5 
141 1 1 4.63647 8.52869 1.05624 -142 -1 1 356.544 -8.83064 -10.0996 -760.268 -445.809 784.902 0 0 0 0.5 
404 1 1 2.2988 5.90116 1.39389 26 0 1 161.122 -23.0629 -15.7904 -628.135 -186.35 -278.039 0 0 0 0.5 
96 1 1 2.17014 9.5223 1.39091 -132 -1 0 405.756 15.8851 -8.97498 -1679.9 751.903 261.784 0 0 0 0.5 
285 1 1 1.58138 5.82273 0.344381 52 0 -1 64.3775 -4.65961 4.05364 691.938 -957.896 402.716 0 0 0 0.5 