# vtk DataFile Version 4.2
Generated by LIGGGHTS
ASCII
DATASET POLYDATA
POINTS 1000 float
2.86593 2.25447 1.99754 2.03889 1.5504 0.291214 2.25434 2.42307 1.21505 
0.178316 2.02045 1.33483 0.373296 1.33787 1.30497 3.17899 4.80669 0.144053 
0.463415 1.78942 0.318276 2.16301 3.13322 1.65992 1.98781 0.562875 1.181 
1.06387 1.27059 1.4495 1.53909 0.635096 0.437816 0.480462 0.461474 0.0283942 
1.62076 2.11818 0.557538 2.57299 3.75031 0.791561 2.46025 4.55082 1.26713 
0.614064 0.491781 1.29242 2.38149 4.52083 0.271403 2.58359 0.320196 1.62964 
1.75112 1.38091 1.18951 2.79465 1.94778 0.846067 0.339947 0.0830168 0.484784 
3.65457 3.17999 1.8854 1.0134 1.18926 0.570179 0.603361 4.18274 1.05731 
0.736117 3.07815 0.774656 1.04487 4.9428 1.62762 3.59051 1.93391 0.418595 
3.36405 1.93992 1.51972 0.0333374 2.78298 1.84379 3.92322 1.76127 1.12505 
0.983302 4.08904 0.245494 4.39505 2.93149 1.82782 4.44402 4.18371 1.74505 
3.85938 0.000617015 0.0485818 1.55112 4.44355 0.977488 3.46903 1.03663 1.74756 
1.57455 2.92094 0.0789512 4.19758 1.40347 0.518663 1.14466 2.06602 1.99909 
1.1663 3.64602 1.45583 3.15291 3.85932 0.184782 0.197398 4.50502 1.89125 
3.3879 0.27718 0.381441 3.45008 4.34036 1.09912 3.17292 2.85527 0.551669 
4.47923 0.798908 0.570154 3.29044 3.43393 1.1195 4.06435 4.00926 0.413824 
4.39046 2.8156 0.896122 4.72227 0.272303 0.79036 4.80524 2.03883 1.1765 
4.89855 3.59727 0.189206 4.93687 2.68206 1.74425 1.06998 1.24109 2.20459 
3.58737 4.32177 2.02516 2.59166 1.13298 2.04494 1.92618 3.92051 3.97236 
1.87115 3.81555 2.99625 1.60891 2.71325 2.53931 1.78196 1.26509 2.25447 
0.618931 0.184759 3.68275 2.66234 4.00018 2.08326 4.57693 3.99673 3.66331 
1.2901 1.61028 3.40788 0.943352 2.5915 3.55183 2.30272 0.104581 3.17225 
3.69863 3.89934 3.75635 2.79408 3.93529 3.39259 4.86974 1.51843 3.68522 
2.293 3.09808 3.0095 0.213099 0.445857 2.20084 2.1692 2.0813 2.60496 
1.56084 0.689492 3.27266 3.1339 4.65263 2.73291 4.42929 3.52283 2.43505 
0.291968 1.64932 3.73905 4.39366 2.07047 2.84457 0.49116 1.40266 2.82009 
2.25625 1.40018 3.80075 2.99165 2.93878 2.53578 3.78566 3.79437 2.69006 
3.93743 2.05981 2.0448 3.59036 2.39991 2.64806 3.79792 3.14208 3.16052 
3.29299 0.499617 3.59545 3.67615 1.70967 3.2158 1.2804 3.97498 2.3055 
3.175 2.35386 3.50314 1.27567 4.86895 2.52578 1.51181 4.58923 3.42414 
4.20334 4.60091 3.0634 3.16826 0.960729 2.75841 4.53992 1.64755 2.03727 
4.73364 2.97526 3.59395 3.97521 1.41552 3.87347 4.89678 2.25761 3.43095 
2.95603 3.22592 3.91226 0.669612 2.67518 2.61317 0.51102 3.43796 3.65794 
4.39692 0.0922106 3.9334 3.07127 1.90781 5.66652 1.74111 2.71429 5.51899 
2.21571 2.25735 4.89998 1.17873 3.31872 5.47726 1.83906 0.372801 5.78309 
1.43322 0.163144 4.8924 1.026 1.8426 4.23653 0.0164426 0.296577 4.86772 
2.62475 2.77493 5.64423 2.31782 1.39298 5.16813 0.0815096 1.22393 5.36315 
2.11748 0.0782856 4.19251 0.136302 4.64045 5.3415 1.06584 0.781288 5.46279 
2.27525 4.51682 4.90661 2.06264 3.64154 5.16524 4.08201 0.546451 5.5059 
3.68754 0.153788 4.70315 2.72258 2.10011 4.29137 2.58462 3.14995 4.78247 
1.0577 2.03602 5.01263 3.67019 4.86205 5.00071 0.392656 0.848122 4.0931 
1.64104 2.60465 4.42375 1.26479 1.02752 4.5047 1.52408 1.66874 5.5733 
4.773 0.832427 4.69619 4.91686 2.78345 4.76026 0.981977 4.38184 4.24084 
3.6344 4.00739 4.68495 3.13736 3.57825 5.91227 0.00671645 3.76176 4.58409 
4.28142 2.71968 5.71918 3.02203 0.682928 5.0453 2.92302 4.39405 5.95429 
4.35621 0.798383 4.07667 2.29941 4.92916 4.00871 4.38807 3.68555 5.10037 
3.95721 3.06178 4.07573 0.903955 3.42162 4.49503 1.06119 4.83295 5.43992 
0.0789285 3.32093 5.44262 1.31329 4.12319 5.48647 3.82067 3.38295 5.98933 
2.84196 0.932235 4.18058 3.7425 4.81747 4.01648 2.7687 4.08012 4.33805 
4.17844 2.20223 4.30901 4.11736 4.34633 5.72177 4.40894 1.45376 4.73877 
4.94199 0.293586 4.73608 3.91183 3.66613 6.93637 2.47827 3.57644 6.73526 
0.646519 1.08569 6.98645 1.68361 3.87731 6.3764 3.03861 2.66702 7.41578 
1.29883 1.92663 6.73109 2.68387 2.74647 6.61161 1.89253 2.13145 7.87591 
1.45541 3.27418 7.2221 2.71926 0.81559 7.1635 1.2075 1.21448 6.29441 
1.16074 1.26662 7.82253 0.583043 2.02459 6.36672 1.55585 0.656678 6.63144 
2.18946 1.47305 7.19586 3.07963 3.67767 7.48993 1.18058 2.93766 6.34822 
2.47081 3.00105 7.91699 0.512775 0.36125 7.16759 2.07475 4.17608 7.35322 
2.1855 2.00739 6.22646 0.114664 1.48368 7.35806 4.5168 4.64956 6.57764 
3.86405 0.584889 7.2 0.37154 0.872324 6.05222 0.559085 2.37874 7.26881 
0.695131 2.93541 7.82213 3.68972 2.49047 6.82853 1.04895 4.02256 7.29074 
2.31031 4.73774 6.58979 4.57302 4.63417 7.69051 3.96988 0.911211 6.3668 
0.179933 3.84906 6.95216 4.13858 0.0870958 6.3933 0.595612 4.75014 7.31761 
0.271614 2.79054 6.48382 3.01064 0.156184 7.73724 3.44028 1.3732 6.67043 
3.72293 2.67579 7.79142 4.57275 2.72123 7.52173 0.586878 4.7303 6.32422 
3.74217 4.52268 7.14918 2.7483 4.92385 7.43478 4.49869 2.25602 6.48136 
3.81227 1.49681 7.84835 0.368753 3.63546 7.91757 1.22888 4.59508 7.99971 
2.95355 0.10961 7.02757 0.74093 3.73139 6.21902 3.25845 0.00417392 6.27638 
4.46262 4.17771 9.39763 1.34195 0.481652 8.67547 2.56531 1.30505 8.97278 
1.95095 0.0635921 8.27108 1.52604 2.84708 8.10578 1.65639 1.33113 9.47851 
2.52301 2.92188 9.96201 3.22375 2.92187 8.54792 4.84101 0.589584 8.923 
2.5927 1.82634 8.11961 2.15339 3.69883 8.15028 2.26512 0.893638 9.80268 
2.68005 2.26557 9.18933 2.95824 0.428344 9.44339 0.121188 0.939402 9.99007 
2.2516 3.28356 9.05754 1.36353 0.469016 9.5616 1.94745 1.83964 8.77956 
0.737762 0.900711 8.65147 0.782494 1.95961 8.22357 1.32437 2.463 8.95941 
1.87674 3.99029 9.63066 4.73312 2.47786 9.32545 2.48638 0.921382 8.04374 
1.37458 2.06118 9.71568 4.25467 2.96833 8.41298 0.251096 3.79729 9.46069 
2.45065 4.85426 9.31396 4.29421 4.68654 8.63646 3.37605 4.44707 9.00962 
1.7014 4.10913 8.69719 0.71573 2.56532 9.5908 3.12967 3.58374 9.3616 
0.966609 3.43475 8.63868 2.80948 4.49904 8.19323 3.70457 2.1169 8.95229 
4.35208 3.34995 9.14313 3.33665 3.8159 8.35432 3.71988 1.34865 9.02723 
1.8718 4.99932 8.59365 0.280477 2.53476 8.56164 4.03826 0.286019 9.07739 
3.4571 0.36346 8.6903 1.09126 3.50387 9.53126 0.895474 4.40581 8.8961 
4.25278 3.76986 8.20958 0.0449868 4.39594 8.47652 4.65307 2.29341 8.39311 
3.46822 2.80502 9.41273 0.798928 4.85651 9.69936 3.41497 1.91292 8.03826 
3.90092 0.832249 9.70547 3.09412 2.1276 9.93103 3.93287 4.73445 9.76531 
4.22713 1.32005 8.35147 4.19488 0.757553 8.06263 0.157722 8.44501 0.688642 
4.0712 9.01413 0.694557 1.04856 7.81581 1.23005 3.7878 9.74973 0.938287 
2.76704 5.34346 0.866284 4.81739 5.29098 1.91076 -0.0696861 9.50943 0.84913 
1.70467 7.1643 0.688126 2.8502 8.67939 0.919809 3.91847 7.93336 0.313956 
0.661889 8.47635 1.28293 3.20922 7.07746 0.102714 3.13001 6.31969 1.0287 
2.31226 5.98492 0.530839 0.76331 9.82345 1.05403 3.52023 7.98967 1.12223 
3.14517 8.02909 0.247163 4.12773 7.9233 1.32692 2.94919 7.92087 1.6441 
3.05239 7.10864 1.44669 4.60287 8.06085 0.606953 -0.0574656 8.31922 1.95275 
1.44383 8.92892 0.388714 0.593383 6.07345 1.4951 0.0224792 7.00307 0.630656 
2.0135 5.09266 1.90168 1.32329 5.84667 1.13379 3.79564 5.1682 1.56935 
2.21773 5.99802 1.76162 4.30794 7.12204 0.682847 1.73419 7.91075 0.512134 
1.21911 5.56279 0.246545 1.75892 6.45434 0.505637 3.69375 5.51719 0.639691 
4.37389 8.84246 1.58775 3.38535 5.96954 1.867 1.79854 5.06451 0.18578 
0.494746 6.81165 1.28837 0.433716 5.13181 0.522474 0.79962 6.31813 0.430934 
0.0711916 7.52648 1.49321 4.54329 7.25984 1.56946 1.36447 7.12876 1.59325 
-0.0240597 5.92661 0.802133 2.19778 7.01222 1.33171 0.678726 7.93126 0.35213 
4.57465 6.39192 0.86641 4.60955 5.62565 1.00924 0.669543 9.92 2.04737 
4.34103 8.8394 2.6594 0.21772 9.11617 2.53071 3.18194 5.63859 2.75876 
3.77435 6.45684 2.51996 0.380883 5.43286 2.11791 2.93981 8.15015 2.47549 
0.838988 6.17034 2.65892 3.42135 7.01977 3.18447 4.14098 7.21665 2.36243 
0.353843 5.0239 3.88155 3.52696 7.87549 2.94051 2.60531 6.83575 2.76117 
2.42571 7.28633 2.19739 1.13682 6.65927 3.5607 3.95414 8.57172 3.49571 
3.08888 8.62122 3.29792 0.329601 9.45564 3.65442 4.5957 9.96151 3.27779 
2.50104 7.03068 3.73079 3.62664 7.50776 2.2579 4.40531 6.43975 3.08208 
4.35974 7.77219 3.60791 4.61624 8.41243 2.29963 4.24199 5.51876 3.45044 
0.0976096 6.25338 2.20128 4.63845 9.33533 3.20795 3.69644 8.94142 2.25156 
4.1455 5.64215 2.46451 2.03022 7.93693 2.10462 3.59063 7.83806 3.77217 
0.476157 6.99669 2.88302 1.52055 5.71215 2.5586 4.14554 6.97205 3.83478 
1.45703 6.92266 2.57412 1.08607 8.47788 3.47664 2.50092 7.68409 3.15123 
1.7528 7.61396 3.55415 2.28576 5.66079 3.08638 0.938484 5.72778 3.44928 
0.067189 6.06498 3.19563 1.71814 6.47363 2.00336 4.77863 6.40129 3.96759 
4.79875 6.59136 2.1064 4.87169 8.62816 3.30776 4.89547 8.02028 2.53214 
0.406635 5.00048 2.94015 1.59995 5.476 4.04889 4.2524 5.8566 5.46308 
3.91003 7.79888 4.58244 2.06416 9.41383 5.02237 3.76679 6.59225 4.71955 
0.656783 8.65655 5.68792 0.505483 9.71388 4.71998 3.30208 9.04769 5.08267 
1.21606 7.40002 5.75759 2.74784 7.38905 4.49235 2.67167 6.54914 5.95374 
3.20044 5.66744 5.13245 2.59656 8.14712 4.02236 2.90519 5.81544 4.05178 
2.64752 9.84381 5.51087 2.2791 7.40155 5.30856 2.32248 8.67388 5.52707 
1.63248 9.47751 5.92465 0.632612 8.7523 4.74549 4.5042 6.65848 5.8936 
1.78166 5.23554 4.85654 2.80913 6.41973 4.85043 1.0143 7.17747 4.32936 
1.78347 5.10977 5.93122 1.81372 5.98671 5.38474 0.845241 8.21165 4.28774 
1.81619 6.35806 4.00543 2.00772 6.6862 4.90788 0.832486 5.26715 4.6738 
3.55929 6.48846 5.67885 0.656181 6.21046 5.38481 1.99778 7.97816 5.92226 
0.386284 6.84204 5.12336 2.16183 7.98151 4.86134 4.58574 9.66426 5.49876 
1.291 8.40794 5.58459 4.76342 8.08878 4.53164 1.43117 6.96805 4.87886 
3.79058 7.42779 5.44875 0.339642 7.38215 5.64608 1.4733 7.97558 4.21761 
0.339215 7.84206 5.09722 2.60051 9.05175 4.86006 0.691227 6.10076 4.31936 
2.54047 9.37546 4.03805 4.4866 9.53981 4.60381 1.01506 5.56584 5.66317 
1.60205 8.48675 4.86011 4.02008 8.62165 5.12536 3.22215 9.375 5.74629 
[...]
POINT_DATA 1000
FIELD FieldData 7
id 1 1000 int
362 755 323 413 231 626 770 759 21 
798 703 848 587 529 990 239 882 886 
485 434 282 512 249 659 130 627 784 
382 11 13 650 416 157 726 638 654 
530 258 680 135 18 807 425 982 27 
633 495 96 754 125 787 261 517 423 
370 490 522 103 697 228 266 872 898 
523 142 778 905 928 786 999 747 531 
107 675 144 313 865 716 543 519 456 
94 734 773 200 899 383 921 5 746 
95 879 276 682 52 15 546 409 943 
209 992 740 518 318 852 240 19 12 
554 429 201 488 679 260 251 225 67 
298 280 737 304 939 283 513 172 437 
644 190 408 827 127 263 594 508 929 
785 925 340 930 646 374 900 445 245 
502 214 678 995 935 509 346 116 152 
640 565 718 839 317 869 237 591 216 
862 750 498 762 40 572 480 242 66 
944 467 161 547 38 222 255 743 846 
838 802 17 343 307 448 320 956 888 
774 524 658 312 951 399 856 677 618 
732 584 721 89 35 247 877 372 643 
756 134 61 360 379 9 227 388 357 
138 120 649 269 384 506 871 10 129 
859 86 760 588 381 574 670 108 849 
661 870 596 233 354 722 861 265 267 
241 139 564 544 110 195 974 598 863 
224 272 622 387 851 292 133 85 207 
600 394 248 769 991 957 126 75 321 
857 37 808 634 160 132 441 541 63 
285 473 578 616 102 91 631 532 660 
592 397 99 980 833 71 791 494 254 
712 815 407 403 309 64 590 853 213 
337 586 391 288 98 545 404 687 244 
112 719 696 707 153 174 493 20 262 
452 341 792 902 841 458 453 575 496 
885 949 988 440 455 534 723 576 552 
169 699 465 390 610 180 624 301 122 
690 890 268 945 402 978 998 795 345 
744 892 478 962 45 671 708 170 710 
137 210 70 876 417 55 459 701 163 
50 178 936 934 700 481 728 969 385 
433 186 192 666 156 58 48 958 940 
205 549 181 602 218 516 684 704 322 
443 875 415 780 194 692 432 51 830 
724 451 781 466 60 80 177 287 557 
632 735 948 72 536 595 968 414 803 
471 46 611 688 65 946 476 53 615 
295 664 987 850 749 757 482 88 986 
966 685 356 813 535 197 334 111 49 
31 927 604 59 73 168 486 375 77 
829 989 145 967 176 559 347 831 593 
648 115 964 308 702 994 751 330 306 
844 567 972 599 753 325 121 398 349 
83 614 669 607 694 484 128 76 22 
794 34 355 711 118 109 860 489 612 
625 739 281 566 979 305 302 92 373 
970 393 264 136 100 896 380 361 771 
731 371 761 274 410 569 797 279 431 
6 672 916 90 674 514 119 881 378 
621 907 256 368 400 620 868 629 858 
777 328 41 359 903 642 772 821 364 
366 910 389 806 867 246 641 909 151 
277 14 717 973 854 636 316 171 430 
196 405 510 250 965 271 889 158 941 
891 573 392 668 106 555 525 257 439 
369 647 507 275 837 895 39 212 36 
775 25 16 450 689 147 901 123 229 
783 449 435 332 548 766 505 411 187 
533 918 203 291 820 767 314 23 289 
299 937 914 714 817 418 117 913 768 
805 428 149 539 487 503 713 396 933 
365 424 148 395 461 4 741 908 776 
653 606 234 47 358 500 662 570 819 
329 526 463 811 335 924 62 284 206 
790 43 920 814 155 727 822 232 217 
656 8 315 243 789 446 69 816 310 
665 824 236 42 352 97 348 845 681 
270 198 504 342 855 683 637 238 511 
376 235 873 563 585 104 273 339 832 
733 293 608 597 230 764 223 864 842 
840 758 828 779 583 56 623 568 823 
835 344 226 259 30 609 79 1 351 
1000 406 7 736 579 333 975 44 33 
729 159 101 617 874 983 742 542 878 
182 996 763 167 538 105 800 290 782 
377 26 605 319 809 219 906 491 165 
492 183 752 801 442 984 582 765 78 
912 915 788 950 635 663 420 113 651 
386 887 82 221 971 556 748 3 166 
422 799 923 993 883 179 667 146 297 
826 897 401 528 438 917 427 880 804 
208 199 114 884 866 931 796 419 698 
693 553 904 447 932 162 938 893 919 
204 462 367 421 426 175 810 211 686 
436 497 695 730 457 184 294 922 527 
955 959 353 188 164 336 961 954 469 
725 550 926 454 253 324 470 952 521 
976 652 720 894 836 981 193 154 691 
705 942 613 472 645 338 28 303 2 
551 220 520 475 474 601 580 477 603 
818 202 460 173 657 124 143 715 29 
834 812 331 630 68 911 185 412 191 
706 468 581 464 843 189 847 350 589 
326 215 74 953 131 363 561 676 709 
560 639 57 24 479 286 278 540 32 
84 655 571 558 141 947 628 501 300 
793 673 483 515 87 311 444 562 619 
745 150 54 738 577 140 499 296 327 
93 960 825 985 81 997 977 963 252 
537 
type 1 1000 int
1 2 1 1 1 2 2 2 1 
2 2 2 2 2 2 1 2 2 
1 1 1 2 1 2 1 2 2 
1 1 1 2 1 1 2 2 2 
2 1 2 1 1 2 1 2 1 
2 1 1 2 1 2 1 2 1 
1 1 2 1 2 1 1 2 2 
2 1 2 2 2 2 2 2 2 
1 2 1 1 2 2 2 2 1 
1 2 2 1 2 1 2 1 2 
1 2 1 2 1 1 2 1 2 
1 2 2 2 1 2 1 1 1 
2 1 1 1 2 1 1 1 1 
1 1 2 1 2 1 2 1 1 
2 1 1 2 1 1 2 2 2 
2 2 1 2 2 1 2 1 1 
2 1 2 2 2 2 1 1 1 
2 2 2 2 1 2 1 2 1 
2 2 1 2 1 2 1 1 1 
2 1 1 2 1 1 1 2 2 
2 2 1 1 1 1 1 2 2 
2 2 2 1 2 1 2 2 2 
2 2 2 1 1 1 2 1 2 
2 1 1 1 1 1 1 1 1 
1 1 2 1 1 2 2 1 1 
2 1 2 2 1 2 2 1 2 
2 2 2 1 1 2 2 1 1 
1 1 2 2 1 1 2 2 2 
1 1 2 1 2 1 1 1 1 
2 1 1 2 2 2 1 1 1 
2 1 2 2 1 1 1 2 1 
1 1 2 2 1 1 2 2 2 
2 1 1 2 2 1 2 1 1 
2 2 1 1 1 1 2 2 1 
1 2 1 1 1 2 1 2 1 
1 2 2 2 1 1 1 1 1 
1 1 2 2 2 1 1 2 1 
2 2 2 1 1 2 2 2 2 
1 2 1 1 2 1 2 1 1 
2 2 1 2 1 2 2 2 1 
2 2 1 2 1 2 2 1 2 
1 1 1 2 1 1 1 2 1 
1 1 2 2 2 1 2 2 1 
1 1 1 2 1 1 1 2 2 
1 2 1 2 1 2 2 2 1 
1 2 1 2 1 2 1 1 2 
2 1 2 1 1 1 1 1 2 
2 2 2 1 2 2 2 1 2 
1 1 2 2 1 2 1 1 2 
1 2 2 2 2 2 1 1 2 
2 2 1 2 2 1 1 1 1 
1 2 2 1 1 1 1 1 1 
2 2 1 2 1 2 1 2 2 
2 1 2 1 2 2 2 1 1 
2 2 2 2 2 1 1 1 1 
1 2 2 2 2 1 1 1 1 
2 1 1 2 1 1 2 1 2 
2 2 1 2 2 1 1 1 1 
2 1 1 1 1 2 1 1 2 
2 1 2 1 1 2 2 1 1 
1 2 2 1 2 2 1 2 1 
2 2 1 1 1 2 2 2 2 
2 1 1 1 2 2 2 2 1 
1 2 1 2 2 1 2 2 1 
1 1 2 2 2 2 1 1 1 
1 1 2 1 2 1 2 1 2 
2 2 1 2 1 2 2 1 1 
1 2 2 1 2 2 1 1 1 
2 1 1 1 2 1 2 1 1 
2 1 1 1 2 2 2 1 1 
2 2 1 1 2 2 1 1 1 
1 2 2 2 2 1 1 2 2 
2 1 1 2 1 2 2 1 2 
1 1 1 1 1 1 2 2 2 
2 2 1 1 1 1 2 2 2 
1 2 1 2 1 2 1 1 1 
2 1 2 2 1 2 2 1 1 
2 1 1 1 2 1 1 2 1 
2 2 1 1 1 1 1 2 2 
1 1 2 1 2 2 2 1 2 
1 1 2 2 2 1 1 1 2 
2 1 2 2 1 2 1 2 2 
2 2 2 2 2 1 2 2 2 
2 1 1 1 1 2 1 1 1 
2 1 1 2 2 1 2 1 1 
2 1 1 2 2 2 2 2 2 
1 2 2 1 2 1 2 1 2 
1 1 2 1 2 1 2 1 1 
1 1 2 2 1 2 2 2 1 
2 2 2 2 2 2 1 1 2 
1 2 1 1 2 2 2 1 1 
1 2 2 2 2 1 2 1 1 
2 2 1 2 1 2 1 2 2 
1 1 1 2 2 2 2 1 2 
2 2 2 1 2 1 2 2 2 
1 1 1 1 1 1 2 1 2 
1 1 2 2 1 1 1 2 2 
2 2 1 1 1 1 2 2 1 
2 2 2 1 1 1 1 2 2 
2 2 2 2 2 2 1 1 2 
2 2 2 1 2 1 1 1 1 
2 1 2 1 1 2 2 1 2 
2 1 1 1 2 1 1 2 1 
2 2 1 2 1 2 1 1 1 
2 1 2 1 2 1 2 1 2 
1 1 1 2 1 1 2 2 2 
2 2 1 1 1 1 1 2 1 
1 2 2 2 1 2 2 2 1 
2 2 1 2 1 1 1 2 2 
2 1 1 2 2 1 1 1 1 
1 2 2 2 1 2 2 2 1 
2 
i 3 1000 int
-2 0 0 -7 0 0 -3 0 0 
-16 0 0 -5 0 1 -1 0 0 
-5 0 0 -5 0 0 -24 0 0 
-9 0 0 -9 0 1 -13 0 1 
-4 0 1 -2 0 0 0 0 0 
-21 0 1 0 0 0 27 1 0 
-17 0 1 -6 0 0 11 1 0 
-2 0 0 -8 0 1 0 0 0 
-4 0 0 1 0 0 -10 0 1 
-4 0 0 -1 0 0 -11 0 0 
-1 0 0 -3 0 0 -1 0 0 
18 1 1 0 0 0 -16 0 1 
-2 0 1 -7 0 1 -3 0 0 
-1 0 0 -2 0 0 0 0 0 
-6 0 0 0 0 0 -8 0 1 
-10 0 1 -2 0 1 -2 0 1 
-2 0 1 -13 0 1 -12 0 1 
-1 0 1 -5 0 0 -16 0 0 
-1 0 0 -10 0 0 -2 0 0 
-1 0 0 -2 0 0 -22 0 1 
-16 0 0 0 0 0 -1 0 0 
-9 0 1 -6 0 0 -29 0 1 
-2 0 0 -1 0 0 -11 0 1 
-3 0 0 -25 0 1 -4 0 0 
-9 0 0 0 0 0 -2 0 0 
-7 0 0 -3 0 0 -9 0 0 
-9 0 0 -2 0 0 0 0 0 
-3 0 0 -3 0 0 -3 0 0 
-22 0 0 -6 0 0 -1 0 0 
-3 0 0 -1 0 0 0 0 0 
-1 0 0 15 1 1 -10 0 1 
-2 0 0 30 1 0 -7 0 1 
-2 0 0 35 1 0 -2 0 0 
-16 0 0 -18 0 0 -3 0 0 
-4 0 0 -1 0 0 -15 0 0 
-13 0 0 -9 0 0 -12 0 0 
-5 0 0 -5 0 0 -8 0 0 
-25 0 1 0 0 0 -27 0 0 
-1 0 0 -3 0 0 20 1 0 
-13 0 0 -7 0 0 -1 0 0 
-3 0 0 0 0 0 -17 0 0 
-4 0 0 -18 0 0 -11 0 0 
35 1 0 -4 0 0 0 0 0 
-2 0 0 -2 0 0 -2 0 0 
-5 0 0 -16 0 0 0 0 0 
29 1 0 -1 0 0 -3 0 0 
-3 0 0 -2 0 0 -1 0 0 
-2 0 0 -1 0 0 -8 0 0 
-8 0 0 0 0 0 -1 0 0 
-8 0 0 0 0 0 -8 0 0 
8 1 0 -1 0 0 -1 0 0 
-10 0 0 -1 0 0 -4 0 0 
-7 0 0 -1 0 0 -4 0 0 
-2 0 0 -11 0 0 -11 0 0 
-9 0 0 -10 0 0 32 1 0 
-18 0 -1 -1 0 0 -2 0 0 
-3 0 0 -16 0 0 -1 0 0 
-8 0 0 25 1 0 -1 0 0 
18 1 0 -9 0 0 33 1 0 
-2 0 0 -5 0 0 -1 0 0 
0 0 0 0 0 0 -8 0 0 
0 0 0 13 1 0 1 0 0 
-1 0 0 -10 0 0 27 1 0 
-3 0 0 -4 0 0 0 0 0 
0 0 0 1 0 0 -9 0 -1 
-5 0 0 0 0 0 0 0 0 
-28 0 1 -1 0 0 18 1 0 
-1 0 0 -8 0 0 -18 0 0 
33 1 0 -1 0 0 -7 0 0 
-2 0 0 -4 0 0 -19 0 0 
-9 0 0 -1 0 0 25 1 -1 
-5 0 0 -7 0 0 -7 0 0 
-2 0 0 -9 0 -1 -3 0 0 
-13 0 0 -3 0 0 -4 0 -1 
-1 0 -1 -4 0 0 -8 0 0 
-2 0 0 -4 0 0 -2 0 0 
0 0 0 1 0 0 0 0 0 
-1 0 0 -3 0 0 -1 0 0 
-1 0 -1 0 0 0 -9 0 0 
-2 0 0 -1 0 0 -6 0 0 
1 0 0 -1 0 0 -21 0 0 
25 1 0 -1 0 0 0 0 0 
-1 0 0 0 0 0 -5 0 0 
47 1 0 0 0 0 -4 0 0 
-12 0 0 -22 0 -1 -1 0 -1 
-12 0 -1 -5 0 0 -23 -1 0 
6 0 1 6 0 1 17 0 1 
1 0 1 1 0 0 -24 -1 1 
8 0 0 7 0 0 8 0 0 
4 0 0 2 0 1 3 0 0 
1 0 0 -30 -1 0 6 0 0 
6 0 0 6 0 0 14 0 1 
4 0 1 4 0 0 9 0 0 
15 0 0 3 0 0 3 0 0 
0 0 0 1 0 0 0 0 0 
1 0 0 17 0 0 5 0 1 
2 0 0 2 0 0 0 0 0 
16 0 1 1 0 0 0 0 1 
3 0 0 1 0 0 2 0 0 
7 0 0 3 0 0 5 0 0 
2 0 0 3 0 0 11 0 0 
2 0 0 0 0 0 16 0 0 
16 0 0 9 0 0 1 0 0 
4 0 0 0 0 0 18 0 0 
2 0 0 2 0 0 -36 -1 0 
0 0 0 12 0 0 3 0 0 
-37 -1 0 4 0 0 6 0 0 
22 0 0 -32 -1 0 -13 -1 0 
3 0 0 5 0 0 4 0 0 
3 0 0 10 0 0 0 0 0 
2 0 0 25 0 0 28 0 1 
1 0 0 17 0 1 13 0 0 
3 0 0 2 0 0 1 0 0 
2 0 0 20 0 0 10 0 0 
15 0 0 1 0 0 2 0 0 
2 0 0 1 0 0 0 0 0 
1 0 0 7 0 0 5 0 0 
0 0 0 1 0 0 0 0 0 
3 0 0 -14 -1 0 5 0 0 
-21 -1 0 -9 -1 0 7 0 0 
7 0 0 6 0 0 2 0 0 
1 0 0 12 0 0 1 0 0 
-18 -1 0 6 0 0 10 0 0 
-22 -1 0 12 0 0 3 0 0 
0 0 0 1 0 0 6 0 0 
1 0 0 1 0 0 12 0 0 
3 0 0 2 0 0 -1 0 0 
2 0 0 2 0 0 9 0 -1 
2 0 0 7 0 0 -28 -1 0 
20 0 -1 4 0 0 2 0 0 
3 0 0 12 0 0 10 0 0 
7 0 0 15 0 0 1 0 0 
-27 -1 0 -23 -1 0 1 0 0 
7 0 0 8 0 0 -24 -1 0 
10 0 0 20 0 0 1 0 0 
2 0 0 7 0 0 1 0 0 
-26 -1 0 -28 -1 0 6 0 0 
1 0 0 2 0 0 10 0 -1 
-20 -1 0 1 0 0 15 0 0 
4 0 0 0 0 0 0 0 0 
8 0 0 17 0 0 3 0 0 
3 0 -1 4 0 0 8 0 0 
4 0 0 -19 -1 -1 6 0 0 
21 0 0 7 0 0 5 0 -1 
4 0 0 16 0 0 0 0 0 
1 0 0 1 0 0 2 0 0 
2 0 0 2 0 0 20 0 0 
8 0 0 3 0 0 3 0 0 
5 0 0 -27 -1 0 23 0 0 
7 0 0 1 0 0 6 0 0 
3 0 0 2 0 0 2 0 0 
30 0 0 16 0 0 5 0 0 
2 0 0 2 0 0 2 0 0 
9 0 0 1 0 0 1 0 0 
2 0 0 0 0 0 0 0 0 
6 0 0 1 0 -1 10 0 0 
1 0 0 7 0 0 9 0 -1 
17 0 -1 2 0 0 -24 -1 0 
1 0 0 6 0 0 1 0 0 
12 0 0 1 0 -1 3 0 -1 
1 0 0 26 0 0 5 0 -1 
14 0 0 3 0 -1 9 0 -1 
3 0 0 1 0 0 3 0 -1 
1 0 -1 13 0 0 5 0 -1 
26 0 0 4 0 0 5 0 0 
6 0 0 1 0 0 -31 -1 0 
0 0 0 -24 -1 0 3 0 0 
2 0 0 4 0 0 6 0 -1 
22 0 -1 26 0 0 1 0 0 
7 0 0 17 0 0 1 0 -1 
2 0 0 6 0 -1 3 0 0 
0 0 -1 2 0 0 5 0 -1 
17 0 0 5 0 0 7 0 -1 
7 0 0 0 0 0 -3 0 0 
28 1 0 -3 0 0 -1 0 0 
-7 0 0 -1 0 0 -1 0 0 
-4 0 1 -2 0 0 -7 0 0 
36 1 0 -1 0 0 -9 0 0 
-8 0 0 -1 0 0 27 1 0 
29 1 0 45 1 0 -5 0 0 
-3 0 0 -6 0 0 -5 0 0 
-1 0 0 1 0 0 -5 0 0 
-2 0 0 1 0 0 -4 0 1 
0 0 0 0 0 0 -3 0 0 
-1 0 0 -2 0 0 -1 0 0 
-4 0 1 -8 0 0 0 0 0 
-12 0 0 0 0 0 -11 0 0 
-3 0 0 0 0 0 -24 0 1 
-4 0 1 14 1 0 -1 0 0 
-2 0 0 -8 0 0 -3 0 0 
-21 0 0 -14 0 0 32 1 0 
-2 0 0 0 0 0 -2 0 0 
-18 0 1 -2 0 0 -15 0 0 
-3 0 0 -2 0 0 -10 0 1 
-19 0 0 -1 0 0 -2 0 0 
26 1 0 -3 0 0 -2 0 0 
-3 0 0 -3 0 0 -17 0 0 
-1 0 0 0 0 0 -2 0 0 
-1 0 0 -2 0 0 -3 0 0 
-1 0 0 -4 0 0 -4 0 0 
-9 0 0 -3 0 0 -1 0 0 
-2 0 0 -5 0 0 -8 0 0 
-4 0 0 -15 0 0 -22 0 0 
-15 0 0 26 1 0 -21 0 0 
-16 0 0 -17 0 0 -10 0 0 
-1 0 0 -13 0 0 -18 0 0 
-3 0 0 -10 0 0 -4 0 0 
-6 0 0 -1 0 0 -1 0 0 
-7 0 0 -6 0 0 -2 0 0 
-3 0 0 -6 0 0 -8 0 0 
23 1 -1 -2 0 0 -8 0 0 
-5 0 0 -5 0 0 -7 0 0 
-2 0 0 -7 0 0 -27 0 -1 
-6 0 0 -2 0 0 -1 0 0 
30 1 0 -1 0 0 -1 0 0 
-7 0 0 -1 0 0 -7 0 -1 
-10 0 0 -2 0 0 0 0 0 
-10 0 0 -15 0 0 -5 0 0 
-18 0 1 -1 0 0 0 0 0 
-19 0 0 0 0 0 -2 0 0 
-1 0 0 12 1 0 -21 0 -1 
-31 0 0 -4 0 0 -5 0 0 
20 1 0 -2 0 0 -3 0 0 
-13 0 0 -1 0 0 -2 0 0 
-1 0 0 -10 0 0 -1 0 0 
-3 0 0 -6 0 0 12 1 0 
-1 0 0 -8 0 0 -1 0 0 
-1 0 0 -25 0 0 -5 0 0 
-2 0 0 -2 0 0 -9 0 0 
-9 0 0 -1 0 0 -11 0 0 
-3 0 0 -5 0 0 -3 0 0 
-8 0 0 -5 0 0 0 0 0 
-3 0 0 -19 0 0 -1 0 0 
-7 0 0 -1 0 0 -1 0 0 
0 0 0 -1 0 0 -6 0 0 
-8 0 0 -2 0 0 -1 0 0 
-3 0 0 -3 0 0 -1 0 0 
-4 0 0 -1 0 0 -1 0 0 
-1 0 0 -16 0 0 0 0 0 
-3 0 0 -14 0 0 -3 0 -1 
-3 0 -1 -3 0 0 -3 0 -1 
-1 0 0 -1 0 0 -1 0 0 
-12 0 0 0 0 0 -2 0 -1 
27 1 -1 -21 0 -1 -1 0 0 
-2 0 0 12 1 0 -9 0 0 
-3 0 -1 -1 0 0 -4 0 0 
-1 0 0 -5 0 -1 -3 0 0 
0 0 -1 -4 0 0 -2 0 0 
-1 0 0 -1 0 0 29 1 -1 
-2 0 0 0 0 0 -5 0 0 
-11 0 -1 0 0 0 -1 0 -1 
0 0 0 -27 0 -1 0 0 0 
-4 0 -1 -5 0 0 -1 0 0 
-15 0 0 0 0 -1 0 0 0 
16 0 1 2 0 0 22 0 0 
19 0 1 9 0 0 0 0 0 
9 0 1 5 0 0 2 0 0 
2 0 0 -22 -1 1 8 0 0 
4 0 0 1 0 0 0 0 1 
8 0 0 19 0 0 2 0 0 
28 0 0 23 0 0 9 0 0 
-22 -1 1 15 0 0 1 0 0 
2 0 0 8 0 0 2 0 0 
4 0 0 1 0 0 5 0 0 
-24 -1 1 0 0 0 0 0 0 
-29 -1 0 4 0 0 7 0 1 
7 0 0 13 0 0 2 0 1 
4 0 0 1 0 0 5 0 0 
3 0 0 -13 -1 1 9 0 1 
3 0 0 0 0 0 2 0 0 
2 0 0 7 0 0 1 0 0 
5 0 0 10 0 0 8 0 0 
12 0 0 14 0 1 2 0 0 
-30 -1 0 21 0 0 4 0 0 
3 0 0 0 0 0 12 0 0 
-18 -1 0 0 0 0 13 0 0 
11 0 0 0 0 0 3 0 0 
-1 0 0 2 0 0 2 0 0 
0 0 0 9 0 0 -33 -1 0 
1 0 0 -32 -1 0 -23 -1 0 
7 0 0 0 0 0 0 0 0 
5 0 0 0 0 0 1 0 0 
5 0 0 -31 -1 1 4 0 0 
1 0 0 0 0 0 10 0 0 
2 0 0 0 0 0 0 0 0 
-30 -1 0 25 0 0 5 0 0 
7 0 0 6 0 0 1 0 0 
11 0 0 5 0 0 3 0 0 
0 0 0 15 0 0 3 0 0 
-16 -1 0 1 0 0 3 0 0 
7 0 0 0 0 0 0 0 0 
2 0 0 9 0 0 12 0 0 
3 0 0 4 0 0 13 0 0 
1 0 0 6 0 0 6 0 0 
0 0 0 5 0 0 1 0 0 
11 0 0 -18 -1 0 2 0 0 
5 0 0 4 0 0 0 0 0 
3 0 0 0 0 0 0 0 0 
0 0 0 13 0 0 9 0 0 
6 0 0 -1 0 0 3 0 0 
2 0 0 2 0 0 0 0 0 
2 0 0 3 0 0 3 0 0 
-2 0 0 2 0 0 -1 0 0 
-1 0 0 22 0 0 2 0 0 
3 0 0 2 0 0 1 0 0 
21 0 0 1 0 0 5 0 0 
10 0 0 15 0 0 1 0 0 
15 0 0 0 0 0 21 0 0 
0 0 0 28 0 0 7 0 0 
2 0 0 5 0 0 1 0 0 
5 0 0 3 0 0 -29 -1 -1 
0 0 0 -27 -1 0 15 0 0 
5 0 0 1 0 0 1 0 0 
1 0 0 1 0 0 3 0 0 
0 0 0 2 0 0 4 0 0 
1 0 0 1 0 0 8 0 0 
3 0 0 6 0 0 1 0 -1 
4 0 0 12 0 -1 12 0 0 
2 0 0 7 0 0 15 0 0 
25 0 -1 7 0 0 19 0 -1 
22 0 -1 -27 -1 0 33 0 -1 
13 0 0 -31 -1 0 2 0 0 
0 0 0 2 0 0 1 0 0 
1 0 0 0 0 0 15 0 -1 
12 0 -1 3 0 -1 3 0 -1 
-17 -1 -1 1 0 0 1 0 0 
2 0 0 3 0 0 -1 0 0 
2 0 0 5 0 -1 0 0 0 
22 0 0 16 0 -1 19 0 0 
2 0 0 4 0 -1 1 0 0 
1 0 -1 15 0 0 9 0 -1 
3 0 0 1 0 0 0 0 0 
4 0 0 3 0 0 31 0 0 
16 0 0 
v 3 1000 double
-193.84293352 3.7660544341 4.9840796877 -254.95087583 10.872654111 -0.92629271062 -188.83502421 4.3581720791 -0.66495821479 
-180.79523467 22.799182185 0.01593767279 -290.58378147 -11.780520408 -4.6945646319 -21.108284186 10.817418118 7.6344572573 
-239.18391797 20.770248606 -24.237975113 -75.074069391 1.5654284886 8.0706312537 -391.13400464 -26.319257088 -10.837851637 
-299.84893197 3.5191709178 4.231999118 -327.01434988 -21.461322884 -9.113197407 -353.75630964 9.9829592895 -22.214594732 
-232.46230615 34.118955301 42.432315361 -60.279884177 -23.939354116 -3.6498068774 6.379463982 -5.4648857129 1.0556187217 
-397.77651449 -0.45083760702 13.39925174 -10.242149749 -23.071495123 -3.1307362224 -402.38887525 -33.662225837 24.850496867 
-311.74551001 31.870467834 -7.2238059499 -206.49580715 -12.880481423 -27.456611405 -492.63254757 6.2922652284 9.8375779216 
-99.63442533 2.0301759692 4.907981925 -294.07247994 3.3566922746 -12.701154109 -15.158226308 -2.3426568215 13.319268338 
-119.5706116 -4.6347726532 -7.9129918913 0.099228649696 -8.8151826137 10.49449729 -212.7329736 8.7422284869 -33.25437915 
-227.73311187 -1.4891534548 -13.28041866 -117.54382624 0.59629708262 1.1575659542 -239.17803855 -1.1658534873 2.1483916912 
-30.173260966 -6.7388202142 6.7777615519 -162.53928719 6.7859853449 -4.8270948037 -19.668026744 -5.0257361433 -15.859825816 
-503.05656067 4.3350688008 37.817993201 -3.6223483565 -10.690113375 -0.74682721369 -337.77328666 -20.289344502 -0.27955985947 
-119.87934123 10.366845597 18.411624391 -296.11179271 3.9731352412 -26.536952848 -211.94334634 30.628952735 -3.1867173067 
-53.22475535 -13.520965494 -0.16672276838 -58.667868708 3.6890487959 -7.0470824001 -5.6268981202 13.984299277 14.3769758 
-411.32012258 1.5895008606 14.213231894 -43.535161518 23.893717 -9.6163044703 -116.45599628 -3.7202019415 8.4605930815 
-363.42588732 -4.1230936465 1.7007761985 -81.249055933 14.267491868 15.847693998 -65.693192977 14.03289152 2.276111924 
-123.99793104 9.6540623635 -18.580071684 -433.11336333 -23.001938706 30.447094331 -248.72967109 -3.2716802906 -16.422322998 
-81.546197455 9.318537623 -11.139913564 -170.49169136 -1.4884664458 -9.3994221023 -289.86572535 -17.597529369 31.680582871 
-27.554585601 -5.8964462513 -8.1210477 -334.19194156 0.095597571487 -10.356110121 -56.421631798 -17.152152177 13.873073863 
-54.543701244 6.3563020413 13.607583834 -138.15497615 21.912437015 10.281587458 -287.51599946 0.62804258101 19.672279711 
-426.16801843 3.4055064859 -21.573974556 -24.524051258 -16.045137657 7.0137747667 -46.117757194 -9.6911440938 22.148843736 
-335.84348111 20.904020809 26.821299855 -157.54641407 -8.083459257 -11.658693655 -369.10275864 -35.989285476 -3.9837511674 
-65.830460634 -11.706537943 -10.746049392 -57.999746438 13.305147552 -29.829790934 -305.82061585 -9.8775354748 4.0940417375 
-91.229144479 -14.923995189 13.88896863 -494.5308341 31.459105038 -4.1616027898 -177.28513075 -6.2844806159 13.046490098 
-369.19193392 -14.731703786 26.709062539 -17.373650006 -11.492532941 19.581733629 -86.784597959 22.432781553 8.9683751717 
-292.05166143 20.021164965 11.662327397 -214.36261403 1.2262569172 10.31593425 -285.45398415 -3.5474632834 13.033854516 
-307.24580813 6.934617326 -2.9828180473 -111.1895167 19.54713518 -11.681266422 -64.476650273 4.0512389202 6.3091066937 
-213.19268593 8.568053166 -11.61355835 -176.13387378 14.426905928 4.4450042322 -100.8725352 -5.7764070411 16.304931244 
-348.60257973 -36.231845759 16.543609205 -237.61571187 -28.376140692 2.4780320739 -45.66624555 -8.7173349967 7.7259920781 
-188.50854361 20.579617836 8.0023020942 -7.6125331477 -1.7320374856 8.1329874927 -12.934362024 -6.8731004903 1.2071503004 
2.05873819 -8.8631513394 -13.537974543 -335.68615725 -13.540236595 11.683819168 -220.31287449 -29.99764892 -11.00091367 
-123.61038382 25.574017583 18.445429194 -281.1520363 -15.80935044 33.202416065 -212.30374197 13.610041434 35.624478004 
-100.49560297 -4.4340811865 -28.946790844 -132.96430117 -1.8728867851 9.5794137535 -84.646775937 -0.89296782244 -7.1038998335 
-500.53319457 -10.231416634 -15.397610499 -237.93822245 -3.2338852477 1.4659443023 -117.67613121 -15.637991005 -10.153324059 
-205.15989404 9.049665505 20.118821464 -106.70097951 -7.7626762828 -25.276417784 -333.50115249 -14.350069364 26.495312967 
-424.76330293 -18.422635708 38.286385273 -262.77654839 22.333326525 0.74094240399 -418.88752083 7.4528470318 14.546310019 
-115.55953723 4.880793195 -1.7851791427 -240.78171531 -23.237431258 15.349544923 -252.77152082 -4.3088889536 -41.159807167 
-456.63893586 0.10275879451 16.753773499 -15.18411225 -15.549250098 -11.372270518 -342.05019308 -4.8724633422 -3.3322361404 
-33.360101155 2.4049111485 12.330796792 -86.626254352 4.6314761789 15.314660723 -395.10313615 11.735681732 -17.490744513 
-410.24192331 -5.3311592518 -11.892198569 -208.55100026 7.9226815566 -1.2899021429 -87.743576756 0.095358633524 -23.083594114 
-217.53900775 13.088886429 -2.0100805328 0.9060184386 5.5522538404 -1.5168071597 -355.32099482 3.6265949507 21.483688337 
-219.71200332 29.607389643 -27.34938501 -337.52224114 2.9754943626 16.480640516 -226.86310672 -1.8334198606 13.175488883 
-403.60113873 30.651097481 13.48152503 -129.51677028 -6.2101385318 17.757970284 -7.3900075054 -11.549002703 6.4458228805 
-60.097823599 -3.4188702519 -10.320622898 -82.855655079 -5.3361319601 -8.265543912 -99.478451608 5.6156672908 -2.7947320237 
-119.95564903 -7.0243402587 -28.581158741 -396.48068275 10.157353921 21.826271898 -22.891379991 16.327922964 4.9203906357 
-376.03220725 -2.5598218806 -26.8846667 4.5900782637 -7.5230327044 0.46179916245 -50.978382421 -6.8217089377 -12.828359083 
-122.69726541 5.2504029179 20.051861434 -114.87122459 10.492654513 26.426103484 -17.401130221 -2.6460354515 3.1816579951 
-92.940517667 1.0826586951 -4.3234704768 -32.098602053 2.1576794668 4.2947223742 -87.822583797 15.509867854 0.063323668021 
-314.80177662 -11.567892255 38.497014519 -9.1900657471 -3.2727146351 -10.208948457 -60.124246168 0.74005500532 -16.687743309 
-184.6474409 6.4939269778 35.719023635 -9.9388070158 -3.5301992734 11.078969572 -291.54345135 19.460921489 39.473652734 
-523.05764793 12.322541548 2.6956492414 -71.283493822 -5.6894918218 11.957316717 -58.158382266 11.035909052 2.9115910336 
-295.64824303 9.3596896647 0.42740060982 -58.556328932 5.937321142 -8.2979877058 -123.72839778 -17.934783215 -5.5365201164 
-223.34742391 27.612169395 30.325297984 -102.34363776 -18.965367384 -9.9920767779 -179.54931494 -4.7221333642 -27.37601803 