ITEM: TIMESTEP
39500
ITEM: NUMBER OF ATOMS
1000
ITEM: BOX BOUNDS xy xz yz pp pp pp
0 10 0
0 10 0
-0 10 0
ITEM: ATOMS id type type x y z ix iy iz vx vy vz fx fy fz omegax omegay omegaz radius 
420 1 1 0.0748958 0.755879 1.69875 -15 0 1 -426.948 7.52186 -10.3047 -65.1023 859.11 9.87687 0 0 0 0.5 
876 2 2 0.706698 0.577268 1.02176 -85 0 1 -419.451 -8.92865 -8.22758 899.806 -1062.29 826.46 0 0 0 0.5 
183 1 1 1.9082 0.61801 1.49795 114 1 -1 -443.865 6.34794 -6.69087 871.231 -908.461 88.6006 0 0 0 0.5 
722 2 2 2.51064 1.41769 0.496385 -116 0 0 -329.116 -4.23124 -13.0494 -419.191 91.5849 -961.328 0 0 0 0.5 
966 2 2 0.542237 1.586 1.33803 -69 0 1 -263.275 -11.7611 -8.9456 -5000.05 4277.06 -4259.1 0 0 0 0.5 
769 2 2 0.932762 1.63481 0.371792 -42 0 1 -333.718 2.68761 3.99595 0 0 0 0 0 0 0.5 
108 1 1 1.54962 0.56261 0.68675 -167 0 1 -421.613 7.08153 -2.37655 540.891 345.967 -2038.38 0 0 0 0.5 
130 1 1 0.583056 2.5638 1.55102 -53 0 0 -225.254 0.497295 -27.2423 -2003.44 779.649 3312.08 0 0 0 0.5 
968 2 2 2.58605 0.629063 0.675378 235 1 1 -412.141 -7.30149 -10.8843 -1296.39 8.08036 -1090.84 0 0 0 0.5 
975 2 2 2.13 2.09528 0.724991 201 1 1 -301.619 28.2482 -17.8481 1119.08 340.388 65.5349 0 0 0 0.5 
908 2 2 3.0242 3.31659 0.511885 -81 0 1 -109.909 -14.6614 6.08113 -2252.5 2825.57 -1390.69 0 0 0 0.5 
25 1 1 3.9678 1.71396 1.52316 -130 0 0 -298.929 -3.03153 11.5226 1414.57 -1720.74 1133.33 0 0 0 0.5 
710 2 2 4.83282 4.84701 1.4596 95 0 0 6.12685 1.24986 -37.1315 -1738.99 -1212.06 -2144.01 0 0 0 0.5 
853 2 2 0.0463111 0.853953 0.738046 176 1 0 -421.073 -15.8218 -8.6407 -966.774 -1627.91 -202.218 0 0 0 0.5 
549 2 2 0.494185 2.83093 0.375288 -150 0 0 -264.996 12.1825 6.85164 1551.82 -99.2851 -376.941 0 0 0 0.5 
972 2 2 2.09087 4.49171 1.154 14 0 0 -74.4599 15.548 23.2552 -227.452 -560.978 -150.406 0 0 0 0.5 
482 1 1 1.2382 2.44291 0.895214 68 1 0 -268.928 11.3555 14.2062 969.689 -7.41619 -734.369 0 0 0 0.5 
391 1 1 2.26792 3.78857 0.53776 -5 0 0 -114.381 -7.69309 12.8614 -637.27 637.247 268.428 0 0 0 0.5 
439 1 1 1.12539 1.00361 1.71071 -68 0 0 -432.187 17.2281 -4.72682 4482.73 -5650.93 2539.99 0 0 0 0.5 
851 2 2 1.76111 1.8655 1.5322 -156 0 0 -277.064 -22.8111 -1.88127 21.9027 13.6434 -47.9276 0 0 0 0.5 
870 2 2 2.05023 3.68464 1.78979 -1 0 1 -82.6509 -27.19 2.31741 237.67 -515.444 -422.018 0 0 0 0.5 
691 2 2 4.50322 3.9219 1.38888 188 1 0 -100.251 3.12185 -16.7671 -1088.34 1661.71 -793.703 0 0 0 0.5 
573 2 2 1.27944 2.52438 0.0192585 -115 0 1 -263.998 13.0176 22.9583 1349.91 -774.608 -1813.27 0 0 0 0.5 
322 1 1 4.51058 2.27068 0.0309444 137 1 0 -248.282 -18.7976 -0.219951 136.094 1668.21 309.828 0 0 0 0.5 
293 1 1 4.24191 3.03824 1.25315 -142 0 1 -162.986 -1.12899 3.20395 -1148.26 -921.608 -3005.45 0 0 0 0.5 
849 2 2 1.02461 4.90568 0.969305 41 0 1 2.00224 -18.8768 -2.851 2261.6 -780.524 792.329 0 0 0 0.5 
454 1 1 2.74683 2.19626 1.57157 211 1 0 -261.558 -6.06963 -16.8475 -835.913 873.432 -2.79371 0 0 0 0.5 
39 1 1 3.71537 2.69542 0.363593 -99 0 0 -179.072 -6.77932 3.83809 62.4788 -191.915 -275.103 0 0 0 0.5 
23 1 1 3.41311 1.61647 0.604562 -129 0 1 -330.795 5.19849 -4.97151 390.712 2029.08 617.871 0 0 0 0.5 
819 2 2 3.97189 3.65064 0.602896 -58 0 1 -105.632 1.95487 -12.8723 -44.2155 603.403 -209.073 0 0 0 0.5 
767 2 2 0.767835 3.75098 1.59813 -102 0 1 -122.382 -0.100595 -15.4901 8.27415 246.544 -571.952 0 0 0 0.5 
503 2 2 3.13076 0.587875 1.4441 10 1 0 -457.072 17.0785 -9.33969 -470.875 271.798 1899.23 0 0 0 0.5 
196 1 1 3.69868 2.31439 1.0715 234 1 0 -257.802 7.62537 18.5301 -195.491 1811.37 -204.536 0 0 0 0.5 
654 2 2 1.26923 4.18206 0.882777 -79 0 1 -63.8413 -35.5065 -7.2962 998.674 -2521.61 281.854 0 0 0 0.5 
90 1 1 2.90457 4.08993 1.45248 52 0 0 -82.706 -3.00924 20.1863 272.515 -439.924 -603.68 0 0 0 0.5 
98 1 1 0.830536 4.26469 0.0535705 -50 0 0 -79.2321 1.62657 1.97145 341.575 -220.65 170.508 0 0 0 0.5 
633 2 2 3.84415 0.0288311 1.21975 -166 0 1 -486.276 2.18195 12.6829 1264.2 -990.682 -397.566 0 0 0 0.5 
621 2 2 3.9195 4.59497 0.05296 1 0 1 -56.2671 -6.72082 16.961 3537.64 -725.835 -2075.53 0 0 0 0.5 
623 2 2 3.02751 4.56515 0.0363808 -55 0 1 -27.1025 -10.2598 15.4962 -1602.69 -984.161 69.6187 0 0 0 0.5 
527 2 2 -0.00997015 3.85798 0.680059 4 0 0 -174.82 30.4976 -18.0674 3676.61 -7322.89 509.749 0 0 0 0.5 
603 2 2 3.20675 1.43908 1.95128 207 1 0 -313.701 -9.35183 -11.5522 1280.04 -747.705 574.577 0 0 0 0.5 
626 2 2 2.97326 3.02478 1.25732 -58 0 -1 -173.717 5.14925 -6.26743 -334.894 -1589.6 2796.08 0 0 0 0.5 
765 2 2 3.56822 4.95393 0.793565 237 1 0 5.72299 -8.1127 16.6351 -919.928 731.093 1817.33 0 0 0 0.5 
762 2 2 3.6843 0.867751 0.658456 -122 0 1 -375.338 -25.0393 0.614387 448.961 -1239.54 89.2247 0 0 0 0.5 
598 2 2 1.89889 0.0462167 2.8908 -71 0 1 -498.317 -5.79841 -6.84481 -3631.13 2485.56 -1348.49 0 0 0 0.5 
557 2 2 0.909882 1.69042 2.25876 165 1 0 -344.198 25.6179 -11.9047 1858.97 -2210.19 291.843 0 0 0 0.5 
269 1 1 0.741601 0.295844 3.22913 -155 0 0 -470.971 -24.9732 17.1245 -96.8503 -473.106 -419.073 0 0 0 0.5 
207 1 1 1.527 1.47675 3.18924 186 1 1 -355.039 -2.05476 -11.5689 -590.421 71.5658 -1092.98 0 0 0 0.5 
193 1 1 0.706221 0.825094 2.51117 188 1 0 -432.609 -3.73152 6.84726 2627.39 172.695 260.973 0 0 0 0.5 
918 2 2 3.94463 1.90261 3.99703 -109 0 0 -297.028 22.9645 -21.7569 -1855.56 -112.638 -1105.09 0 0 0 0.5 
741 2 2 2.4507 2.71095 3.22221 -112 0 0 -199.622 7.55067 -18.1806 -744.655 1159.37 605.83 0 0 0 0.5 
445 1 1 0.428386 2.16114 2.82122 -34 0 0 -237.929 -2.94205 5.53789 -3892.73 2159.6 1622.37 0 0 0 0.5 
301 1 1 4.01044 4.11329 2.1662 70 0 0 -70.1061 5.21078 -20.9223 -1902.05 1157.14 -663.141 0 0 0 0.5 
232 1 1 2.25696 1.32244 3.02509 -83 0 1 -349.416 3.51526 -10.3474 -636.421 1260.74 -1109.21 0 0 0 0.5 
877 2 2 3.65625 0.907096 3.70952 207 1 1 -390.601 -20.1445 -1.84702 -19.8828 -3354.16 1960.75 0 0 0 0.5 
575 2 2 0.899122 1.77159 3.58919 151 1 -1 -330.101 29.0221 -0.0693606 1669.47 -791.587 4151.92 0 0 0 0.5 
967 2 2 2.62359 0.187462 3.63407 182 1 -1 -501.015 12.9201 18.8658 -3875.88 1535.88 -385.112 0 0 0 0.5 
358 1 1 3.56718 1.18839 2.77591 -63 0 0 -359.153 -11.9254 15.9759 -763.508 -1423.38 -1076 0 0 0 0.5 
957 2 2 0.150046 2.47919 3.97891 42 0 0 -265.721 13.2466 7.70983 76.3224 -249.907 98.8747 0 0 0 0.5 
364 1 1 0.997586 3.05748 3.36845 -55 0 0 -169.998 -8.96308 -16.518 -865.188 1881.12 -2259.15 0 0 0 0.5 
356 1 1 4.00075 3.65486 3.55615 33 0 0 -76.6988 0.609152 -11.9635 -630.347 -436.329 167.891 0 0 0 0.5 
742 2 2 2.44974 4.90707 3.67882 4 0 -1 -6.75248 2.74424 2.6249 0 0 0 0 0 0 0.5 
450 1 1 2.48937 1.50704 2.21844 152 1 0 -336.336 -13.1103 -14.2121 -413.401 1378.87 -1799.51 0 0 0 0.5 
295 1 1 1.80833 0.88213 3.89591 132 1 -1 -401.021 3.04109 2.53794 663.969 -295.045 126.841 0 0 0 0.5 
267 1 1 0.876113 0.889468 3.86223 -152 0 0 -404.261 -0.372284 -5.05359 831.956 -910.423 -597.633 0 0 0 0.5 
464 1 1 2.02923 3.91823 3.61797 22 0 0 -55.8309 -6.00497 -3.22977 -498.914 46.1723 -504.049 0 0 0 0.5 
913 2 2 2.37855 2.26035 2.55433 -17 0 0 -281.062 13.8185 -19.2261 -267.89 -131.576 -1027.6 0 0 0 0.5 
189 1 1 0.142736 1.56024 3.39638 196 1 0 -319.142 -29.5585 1.85678 910.626 -1478.39 -960.879 0 0 0 0.5 
620 2 2 4.28326 2.90029 3.71037 -22 0 0 -186.75 -28.7341 -19.0001 -4663.38 -367.237 992.557 0 0 0 0.5 
523 2 2 2.46878 0.556211 2.17799 -131 0 1 -458.404 -1.88901 1.55003 254.67 -783.193 -36.4882 0 0 0 0.5 
731 2 2 1.20705 2.59615 2.31683 301 1 0 -233.658 10.1829 -3.73404 419.327 -3726.42 -965.284 0 0 0 0.5 
925 2 2 4.09211 0.343633 2.64744 126 1 0 -470.538 -6.90466 4.94431 638.113 1007.84 -429.46 0 0 0 0.5 
148 1 1 0.101752 2.70889 2.39036 -29 0 1 -210.01 17.6325 -22.5768 562.193 689.816 -198.133 0 0 0 0.5 
380 1 1 0.897296 4.6951 2.4491 -44 0 1 10.6018 -9.10755 -4.16516 -2384.79 1164.26 470.449 0 0 0 0.5 
844 2 2 3.25665 1.64499 3.68904 170 1 0 -320.357 -16.3638 -20.7373 -2003.03 2298.72 2342.15 0 0 0 0.5 
217 1 1 4.37458 1.20893 2.29784 -65 0 0 -360.292 -21.6618 -15.8509 -134.862 -333.154 576.96 0 0 0 0.5 
56 1 1 3.69176 4.26704 3.01579 -54 0 0 -45.6019 -15.9912 -16.8397 1192.6 493.686 974.161 0 0 0 0.5 
995 2 2 3.10664 2.54636 3.79427 -133 0 1 -203.404 5.34837 -16.3091 792.862 464.395 -259.769 0 0 0 0.5 
339 1 1 3.66384 2.91939 2.04825 -70 0 1 -161.32 -3.86452 -22.0759 -1771.51 -262.004 1139.14 0 0 0 0.5 
901 2 2 3.10294 0.3457 2.71792 -132 0 0 -465.064 -2.54249 18.8095 2004.8 -1351.44 -1761.26 0 0 0 0.5 
792 2 2 0.332107 4.79092 3.27184 231 1 0 -2.87095 4.17174 -11.7273 168.853 88.9403 816.546 0 0 0 0.5 
327 1 1 2.83118 3.16842 2.35222 -54 0 0 -145.968 -5.24078 19.1582 -742.446 222.045 271.04 0 0 0 0.5 
902 2 2 3.04628 4.38973 2.35654 256 1 1 -18.6622 -11.8507 4.41113 -1523.2 393.347 -898.376 0 0 0 0.5 
895 2 2 4.89666 2.49086 3.12887 -83 0 0 -238.731 -24.2585 5.41451 2360.79 1282.98 -1947.71 0 0 0 0.5 
78 1 1 2.7265 0.933265 3.38148 -21 0 1 -383.909 -1.63898 6.74204 1202.06 1397.68 2803.54 0 0 0 0.5 
782 2 2 3.59393 2.94077 3.02171 81 0 -1 -188.862 21.4982 -12.09 125.415 2080.75 527.81 0 0 0 0.5 
562 2 2 -0.0483219 4.8662 2.41297 127 0 1 20.4139 -7.85668 -21.2271 -217.45 -1101.6 506.847 0 0 0 0.5 
763 2 2 4.54101 0.990882 3.46778 89 1 1 -425.341 25.3231 -5.79164 2307.64 -85.9323 -854.798 0 0 0 0.5 
88 1 1 0.34897 4.02233 3.77169 64 0 0 -67.9417 -19.7355 -11.9917 -1497.69 -39.7727 -1514.3 0 0 0 0.5 
808 2 2 1.74437 4.34796 2.33289 88 0 0 -43.4405 -8.43845 7.45074 2964.53 -816.218 -11.4601 0 0 0 0.5 
216 1 1 0.943394 3.43332 2.44395 -130 0 1 -135.679 -1.76685 -6.60549 -915.938 3118.65 507.133 0 0 0 0.5 
153 1 1 2.84274 4.06211 3.28234 24 0 0 -49.086 -11.423 3.52243 448.545 52.7361 -225.705 0 0 0 0.5 
62 1 1 1.24376 4.01128 3.21552 -44 0 0 -76.8658 -6.06772 -7.78573 -347.343 -1204.91 175.787 0 0 0 0.5 
400 1 1 3.63514 2.09201 3.03244 -133 0 0 -312.803 9.30449 -33.3168 1.87566 -1234.23 132.196 0 0 0 0.5 
789 2 2 4.45395 4.79596 3.12163 -73 0 0 -56.5541 27.1488 -13.3063 3029.18 -296.789 -771.997 0 0 0 0.5 
770 2 2 4.63502 2.06858 2.3191 -59 0 0 -289.397 -9.55187 8.98509 -3058.62 855.395 173.635 0 0 0 0.5 
361 1 1 4.64784 2.86596 2.03814 -56 0 0 -191.32 8.61161 -16.1035 3602.9 205.955 1797.75 0 0 0 0.5 
406 1 1 4.64555 3.67204 2.52229 -63 0 1 -101.456 1.94054 7.80458 188.806 34.6053 565.924 0 0 0 0.5 
434 1 1 4.7525 0.128629 3.37771 -113 0 0 -471.646 -17.3852 9.65017 -102.847 419.313 43.7974 0 0 0 0.5 
540 2 2 4.82891 4.2284 3.82641 -247 -1 0 -79.954 -3.60959 -30.2886 -1460.29 -951.701 45.686 0 0 0 0.5 
224 1 1 1.45993 0.16026 5.48218 -154 0 0 -473.937 0.532994 10.292 -3063.08 1356.31 857.567 0 0 0 0.5 
612 2 2 1.9074 2.34882 4.91643 -25 0 1 -218.684 -18.2382 -20.9762 1542 -983.283 -1114.88 0 0 0 0.5 
258 1 1 2.25188 1.27376 5.35522 -115 0 1 -401.668 8.62897 12.7254 2686.63 -542.763 -483.536 0 0 0 0.5 
7 1 1 2.63458 2.28562 5.49559 -72 0 0 -237.021 -9.73151 4.36099 97.99 -215.992 -777.644 0 0 0 0.5 
64 1 1 0.0668201 3.83483 4.81245 46 0 -1 -98.1783 -10.6039 12.7227 1837.27 -663.598 347.829 0 0 0 0.5 
826 2 2 2.3878 3.73248 5.12652 279 1 0 -140.847 -3.52396 -10.8858 3238.21 67.9655 1448.8 0 0 0 0.5 
871 2 2 1.73602 3.73632 4.40575 -12 0 0 -90.7298 -1.73862 -6.15806 -607.456 -333.969 -2076.68 0 0 0 0.5 
624 2 2 3.28297 3.87842 5.24977 14 0 -1 -152.875 23.0103 1.02185 2875.36 -2271.96 247.11 0 0 0 0.5 
58 1 1 1.48188 3.63188 5.14239 43 0 -1 -101.453 -15.6902 2.59174 -4625.13 -2879.96 108.626 0 0 0 0.5 
307 1 1 1.36382 2.80306 4.12003 218 1 -1 -227.764 -0.170935 -20.3825 1200.62 -834.078 2463.92 0 0 0 0.5 
418 1 1 0.914121 0.427169 4.68107 -137 0 1 -459.108 -11.8883 13.1907 1110.06 45.6197 -660.473 0 0 0 0.5 
79 1 1 0.418008 1.60179 4.32605 -109 0 1 -330.116 -16.2314 7.67628 -2372.73 1766.36 564.89 0 0 0 0.5 
823 2 2 1.85532 0.607121 4.73789 222 1 -1 -458.442 14.5777 24.06 -29.8692 1554.54 968.944 0 0 0 0.5 
228 1 1 0.12213 1.93909 5.19137 -116 0 1 -317.118 12.3888 -7.0524 1664.09 -245.886 490.707 0 0 0 0.5 
222 1 1 1.28027 2.66499 5.13885 249 1 0 -220.397 -8.46455 -23.6511 -267.891 619.61 -779.115 0 0 0 0.5 
506 2 2 1.56083 2.16901 5.95276 -102 0 0 -266.958 4.08348 -2.42704 -700.347 1915.18 -1014.9 0 0 0 0.5 
896 2 2 0.786059 3.0473 5.54862 -15 0 -1 -208.486 7.08283 -22.604 963.769 2856.67 -997.487 0 0 0 0.5 
308 1 1 2.75359 0.273098 5.88129 -82 0 1 -472.018 -2.90232 -3.94674 -96.7204 -1305.15 -991.068 0 0 0 0.5 
524 2 2 1.3236 1.33351 5.40444 -70 0 1 -360.126 -2.27007 11.941 -702.635 251.637 -80.0366 0 0 0 0.5 
798 2 2 1.209 1.64946 4.54165 -170 0 0 -318.48 13.526 -1.31398 1194.55 99.3988 255.01 0 0 0 0.5 
754 2 2 4.21936 1.30558 5.6886 -111 0 0 -407.362 16.9938 -14.2777 942.134 -917.812 -251.703 0 0 0 0.5 
43 1 1 0.555451 0.464772 5.6687 -123 0 0 -464.482 6.93174 20.3855 -375.001 -1508.79 1035.17 0 0 0 0.5 
702 2 2 0.561119 1.28854 5.27943 207 1 0 -352.164 -20.5992 7.10566 -2689.47 -1253.08 -1788.07 0 0 0 0.5 
370 1 1 4.53433 4.6228 4.39044 -17 0 0 -37.9654 9.89216 5.93274 2011.04 -726.681 -2552.57 0 0 0 0.5 
10 1 1 3.75306 1.31657 4.69593 -162 0 1 -365.521 7.20783 5.06677 3420.74 -1351.41 326.822 0 0 0 0.5 
909 2 2 0.025185 0.538836 4.89423 -96 0 1 -450.977 3.50007 1.69593 2340.49 1195.47 -487.288 0 0 0 0.5 
550 2 2 1.97086 4.64094 5.626 51 0 0 -68.6221 -1.38989 -21.7046 -242.207 3296 -1789.25 0 0 0 0.5 
251 1 1 4.75229 1.55335 4.27238 -75 0 0 -380.018 9.59828 1.58931 3491.19 -1509.75 1190.2 0 0 0 0.5 
93 1 1 3.22801 1.23443 5.57998 137 1 -1 -397.74 5.14521 12.5938 -612.136 -43.9376 -67.0732 0 0 0 0.5 
415 1 1 0.930846 4.08835 4.32827 -4 0 -1 -93.0314 12.0036 6.62087 813.036 434.409 558.879 0 0 0 0.5 
922 2 2 4.10878 2.90997 5.78364 28 0 0 -233.721 14.0622 31.6511 -74.9054 1.93005 -148.911 0 0 0 0.5 
641 2 2 0.164338 4.62742 5.80286 -33 0 0 -15.3612 3.83675 23.1888 -821.876 1074.32 1378.27 0 0 0 0.5 
625 2 2 0.834359 4.17113 5.30074 -36 0 0 -88.8256 -2.49576 -3.69426 -282.525 181.692 -1418.72 0 0 0 0.5 
674 2 2 3.28645 3.26329 4.36467 -52 0 0 -142.843 -4.37476 -18.2479 -982.628 192.538 -722.696 0 0 0 0.5 
460 1 1 4.46992 4.52528 5.40148 -19 0 0 -59.5974 4.40227 35.2757 1989.09 -1088.11 2535.31 0 0 0 0.5 
821 2 2 3.7473 0.485 5.09048 192 1 0 -447.164 -14.1292 -3.17322 -1721.73 -1462.84 -719.555 0 0 0 0.5 
42 1 1 1.64297 3.26185 5.9536 -89 0 0 -194.238 -9.19106 -5.75488 1623.8 -3949.74 1386.95 0 0 0 0.5 
919 2 2 3.95265 4.80825 4.74216 -139 -1 0 23.1986 -6.42776 22.2138 -6483.05 2520.85 181.964 0 0 0 0.5 
816 2 2 3.92052 3.37652 4.96934 -12 0 0 -172.945 11.3146 1.25226 37.0467 895.262 1337.28 0 0 0 0.5 
751 2 2 3.3212 2.16278 4.46144 171 1 1 -261.443 -7.08408 29.0245 -4044.54 2443.81 -1993.61 0 0 0 0.5 
414 1 1 3.08869 0.136101 4.42383 140 1 0 -495.441 27.156 13.2057 -216.699 -3054.04 1549.23 0 0 0 0.5 
337 1 1 4.472 0.367522 5.6552 152 1 0 -448.067 -8.86689 -3.43969 -153.999 -197.135 -603.302 0 0 0 0.5 
865 2 2 3.74924 2.17924 5.11901 -107 0 -1 -258.951 6.54591 44.7115 767.044 -386.561 971.511 0 0 0 0.5 
495 1 1 2.99812 1.12617 4.46743 -76 0 1 -359.739 -30.5448 -2.49107 -1458.96 4144.24 -1442.07 0 0 0 0.5 
346 1 1 4.55119 2.89039 4.78753 228 1 0 -206.607 -1.71628 32.4563 995.455 325.087 -1838.58 0 0 0 0.5 
955 2 2 2.65299 4.59494 5.35721 9 0 1 -66.7371 -5.08826 -42.092 139.651 1383.98 676.006 0 0 0 0.5 
673 2 2 4.49467 0.494923 4.30341 143 1 -1 -437.107 5.41737 -17.5277 -2985.3 264.884 871.595 0 0 0 0.5 
544 2 2 4.96211 2.24524 5.14706 -5 0 0 -259.274 -15.815 8.3778 1399.65 -2197.45 1224.6 0 0 0 0.5 
180 1 1 4.93201 2.82018 4.02542 -1 0 0 -216.779 3.81092 -1.84345 1469.97 1279.86 834.669 0 0 0 0.5 
257 1 1 1.44721 4.01208 7.03438 -46 0 0 -114.557 5.73433 1.63231 2857.76 189.009 -573.381 0 0 0 0.5 
987 2 2 0.322381 2.21847 6.71036 185 1 0 -333.232 18.5531 -2.84399 -104.837 -38.2846 -4.54198 0 0 0 0.5 
105 1 1 0.0507728 0.636289 7.53377 152 1 0 -446.665 -5.51749 -5.43837 1546.14 -3738.63 856.048 0 0 0 0.5 
290 1 1 4.42325 0.975367 6.64865 189 1 0 -400.292 13.5318 1.7421 -1888.92 1626.9 465.747 0 0 0 0.5 
35 1 1 1.2555 3.05338 6.887 -139 0 1 -228.141 18.0706 0.496518 1665.48 1130.14 894.039 0 0 0 0.5 
988 2 2 4.3266 2.23492 7.68322 14 0 0 -313.651 4.84514 -11.9758 1848.25 -1117.02 1426.36 0 0 0 0.5 
31 1 1 2.36352 0.773071 7.75298 162 1 0 -409.417 -7.10174 -4.50691 679.905 -384.952 388.039 0 0 0 0.5 
640 2 2 3.78115 2.76167 7.43792 -124 0 0 -250.624 7.62354 -23.4248 -2765.47 2670.68 -1243.71 0 0 0 0.5 
291 1 1 1.83789 0.321164 6.97019 -122 0 0 -461.695 -2.38654 2.98981 173.622 -16.443 -50.9208 0 0 0 0.5 
509 2 2 2.11991 2.88527 7.52143 -112 0 0 -217.534 -4.23572 -1.13566 583.579 124.039 298.764 0 0 0 0.5 
890 2 2 3.63489 1.60547 7.07062 -43 0 -1 -344.543 1.0013 -3.15413 -801.584 310.889 -497.452 0 0 0 0.5 
726 2 2 0.88599 0.411314 7.24937 145 1 -1 -456.621 5.80107 7.48313 1411.31 -410.475 -488.765 0 0 0 0.5 
899 2 2 0.60368 1.93287 7.97329 -140 0 -1 -291.844 -13.5218 2.57777 -612.267 104.576 -850.301 0 0 0 0.5 
347 1 1 0.651716 3.1055 6.33583 -13 0 -1 -206.469 2.2032 -12.8549 -1713.45 200.94 -217.742 0 0 0 0.5 
102 1 1 0.579689 3.05372 7.3448 -18 0 -1 -215.704 0.281656 15.3954 -113.795 -1418 658.421 0 0 0 0.5 
311 1 1 4.51916 3.19282 6.87833 -21 0 0 -175.745 -6.72856 24.981 -1475.62 544.966 827.433 0 0 0 0.5 
1 1 1 2.03934 2.65638 6.66717 -204 0 -1 -266.35 -10.2137 -4.30933 -2845.6 482.948 660.961 0 0 0 0.5 
667 2 2 3.11512 4.24826 6.12069 -42 0 0 -127.111 14.7465 18.4051 -88.9474 -1771.61 68.1179 0 0 0 0.5 
992 2 2 4.75715 4.32853 6.52922 -140 0 0 -110.029 12.7173 19.96 -55.3281 -218.243 894.648 0 0 0 0.5 
926 2 2 2.60495 3.799 7.09496 161 1 0 -153.071 0.988563 -13.0996 954.753 -1761.41 -1567.18 0 0 0 0.5 
608 2 2 2.14015 4.12082 6.28831 -47 0 0 -133.368 0.178555 -14.7617 1351.79 -694.454 1244.97 0 0 0 0.5 
705 2 2 4.33078 0.267475 7.30549 -152 0 0 -491.072 32.7237 8.66577 1319 394.976 435.243 0 0 0 0.5 
910 2 2 1.2163 2.95447 7.86519 -51 0 1 -209.758 -5.97803 0.609807 -170.993 -1029.55 -626.283 0 0 0 0.5 
980 2 2 1.90125 1.38919 7.1464 165 1 1 -405.829 14.433 23.0517 330.917 -2607.96 -2935.87 0 0 0 0.5 
211 1 1 4.40075 1.30844 7.5459 168 1 0 -363.882 2.06626 10.2075 -1088.73 49.9741 -402.517 0 0 0 0.5 
403 1 1 2.39439 4.28223 7.71828 -10 0 -1 -56.8143 3.92775 -3.06368 980.442 875.946 961.689 0 0 0 0.5 
665 2 2 2.49707 0.939084 6.28174 136 1 1 -412.885 21.9039 25.7923 1449.85 -253.827 635.582 0 0 0 0.5 
485 1 1 1.7264 1.39854 6.21191 -109 0 1 -402.108 2.5491 35.5076 -1120.85 -1147.28 185.226 0 0 0 0.5 
84 1 1 0.557672 4.02517 7.15958 114 0 0 -82.8463 -15.4396 6.27507 -1588.37 -1857.26 -417.296 0 0 0 0.5 
917 2 2 2.60658 4.86618 6.94187 36 0 0 -46.8757 2.31782 -10.845 1327.6 -363.882 -743.15 0 0 0 0.5 
5 1 1 0.0516065 3.26745 6.99151 26 0 -1 -218.043 -3.02104 -4.54208 -664.49 2208.24 424.49 0 0 0 0.5 
378 1 1 3.31991 0.589014 7.95311 -160 0 0 -401.835 -11.0153 5.30455 -1089.72 183.142 272.333 0 0 0 0.5 
590 2 2 3.98467 4.36846 7.34796 -22 0 -1 -82.2502 2.51213 -10.0946 474.723 935.567 -1418.29 0 0 0 0.5 
468 1 1 -0.013764 4.56357 7.03563 10 0 0 -40.1857 13.8486 3.51315 -714.508 1956.03 116.573 0 0 0 0.5 
95 1 1 1.83785 1.92854 7.85196 -23 0 0 -294.795 -5.68307 -39.1555 436.806 3194.92 4509.32 0 0 0 0.5 
201 1 1 1.24609 3.93328 6.06668 -78 0 0 -126.079 2.57253 1.73539 -2013.62 1425.03 1689.53 0 0 0 0.5 
586 2 2 0.946472 4.87702 6.98671 247 1 0 -22.6252 0.0239881 13.8365 1060.94 -3551.06 331.451 0 0 0 0.5 
24 1 1 3.46378 0.10639 7.18732 183 1 -1 -478.513 9.76561 -10.342 -1320.65 -1932.7 -1208.64 0 0 0 0.5 
932 2 2 2.94229 2.42033 6.40655 -76 0 0 -350.276 12.5054 20.0458 5332.6 -196.582 -512.187 0 0 0 0.5 
33 1 1 -0.0018202 2.9257 7.94414 250 1 0 -229.237 3.87631 12.9267 -1245.18 -1091.67 -541.373 0 0 0 0.5 
959 2 2 3.89904 2.09442 6.14911 149 1 0 -345.789 16.2407 17.5146 -181.921 631.253 252.737 0 0 0 0.5 
86 1 1 1.20509 4.79588 6.08307 -34 0 1 -52.7585 17.5895 1.33327 -654.362 867.393 27.9938 0 0 0 0.5 
733 2 2 4.33428 3.65934 7.93082 117 0 -1 -155.647 22.3931 -3.38748 2457.42 -1836.66 723.569 0 0 0 0.5 
927 2 2 3.06731 2.07742 7.83092 19 0 0 -304.295 -7.04359 -32.7131 729.64 -1978.56 -622.499 0 0 0 0.5 
204 1 1 1.86541 4.87505 6.91739 -141 0 1 -39.5382 -9.4768 -7.93972 -1702.57 -630.284 -419.893 0 0 0 0.5 
447 1 1 3.18511 4.75125 7.45709 57 0 0 -66.8985 14.5386 11.7752 1681.59 -1700.28 962.048 0 0 0 0.5 
437 1 1 1.78063 4.75957 7.82466 -93 0 -1 -40.1639 -2.64181 2.43572 -1174.64 -165.151 452.543 0 0 0 0.5 
132 1 1 3.13579 3.23783 6.10773 48 0 0 -193.197 16.9608 18.8899 -205.285 -867.312 317.022 0 0 0 0.5 
331 1 1 0.310444 4.53084 7.87283 -10 0 -1 -31.7439 10.5925 19.9962 1769.63 -631.286 55.3123 0 0 0 0.5 
783 2 2 4.97843 0.551574 6.37917 -74 0 1 -425.643 2.16825 -29.2659 896.519 -1088.77 -1566.92 0 0 0 0.5 
237 1 1 1.88166 0.877662 8.64215 -116 0 0 -404.096 -2.1086 -8.04228 3031.83 -3513.96 437.4 0 0 0 0.5 
120 1 1 4.60128 0.906148 8.29516 -155 0 -1 -403.768 -7.08259 10.001 171.036 -46.1255 1259.15 0 0 0 0.5 
159 1 1 3.65213 1.69467 9.70052 233 1 -1 -320.243 12.2217 -10.0239 353.835 458.806 57.9258 0 0 0 0.5 
316 1 1 1.23188 0.667592 9.79459 -133 0 -1 -439.013 -1.63338 20.1143 -342.288 983.768 -1071.71 0 0 0 0.5 
569 2 2 2.19091 0.810135 9.79102 218 1 -1 -428.067 -2.67646 1.8541 -430.796 148.927 1372.29 0 0 0 0.5 
2 1 1 1.39006 1.81444 9.4028 -49 0 0 -334.273 -12.2527 3.59709 -1248.42 -2326.89 16.0834 0 0 0 0.5 
565 2 2 4.81349 0.088868 8.18991 -106 0 0 -487.217 -2.67116 5.3765 978.4 -2211.79 -1454 0 0 0 0.5 
616 2 2 3.33745 2.19321 8.74594 -37 0 0 -290.929 -17.2259 -18.7472 900.776 -634.964 1669.14 0 0 0 0.5 
743 2 2 1.9485 3.22452 9.09352 -65 0 0 -185.463 1.18187 18.145 -169.655 -506.63 -471.495 0 0 0 0.5 
891 2 2 2.50375 3.57819 8.16476 16 0 -1 -145.745 0.861654 15.6316 -844.974 1070.77 727.689 0 0 0 0.5 
277 1 1 1.23977 1.62163 8.54954 -142 0 0 -278.691 -10.6618 -31.7035 -3602.39 1461.3 2336.69 0 0 0 0.5 
199 1 1 0.603459 2.62199 8.57223 -227 0 -1 -232.726 -2.4199 4.2284 -118.139 490.038 -1358.46 0 0 0 0.5 
746 2 2 0.345827 1.66504 8.86185 -37 0 -1 -290.109 -18.5825 12.004 -2300.43 3986.46 -1408.1 0 0 0 0.5 
935 2 2 4.25999 2.93412 8.31654 -69 0 0 -276.509 11.1637 18.4618 -380.445 456.561 -1862.64 0 0 0 0.5 
954 2 2 2.55998 0.264516 9.10001 195 1 -1 -475.335 16.0232 -19.2212 -1130.64 1467.76 829.416 0 0 0 0.5 
167 1 1 0.247921 0.726126 8.39896 184 1 -1 -476.854 27.8656 11.3191 2419.87 -1487.59 3023.14 0 0 0 0.5 
708 2 2 0.232467 1.04364 9.75519 -146 0 0 -391.685 8.33769 -18.2998 -470.514 -1915.5 92.2796 0 0 0 0.5 
614 2 2 0.921411 0.921487 9.05163 140 1 0 -412.002 -3.68724 -12.5073 3635.83 -2649.73 -1769.82 0 0 0 0.5 
210 1 1 4.1524 1.0636 9.62777 159 1 -1 -354.755 -21.1814 -0.635696 -1099.85 936.427 -1050.58 0 0 0 0.5 
863 2 2 1.06022 2.54789 9.26272 -60 0 0 -224.026 -4.68026 -16.4555 788.348 1505.68 441.981 0 0 0 0.5 
607 2 2 2.33408 4.41259 9.31774 81 0 0 -45.599 -9.11888 8.28473 -1827.76 744.716 657.544 0 0 0 0.5 
22 1 1 2.09796 1.68879 9.64933 152 1 -1 -338.453 5.01253 0.768521 566.361 508.003 186.593 0 0 0 0.5 
521 2 2 3.78251 0.643433 8.82002 -86 0 0 -422.765 8.23574 5.61114 -1108.92 -41.3424 1839.65 0 0 0 0.5 
66 1 1 4.36962 0.151882 8.90417 -91 0 0 -448.201 -2.62749 13.0482 -618.872 -2551.77 -787.1 0 0 0 0.5 
208 1 1 1.72128 2.546 8.46205 -32 0 0 -242.329 -0.566108 7.0832 -1021.74 1950.63 784.654 0 0 0 0.5 
17 1 1 2.33793 1.88045 8.68716 -114 0 -1 -313.263 11.222 0.818403 1883.83 -2544.92 8.38312 0 0 0 0.5 
880 2 2 3.48002 3.86879 8.16927 6 0 0 -139.674 4.64239 3.02187 -419.204 -969.132 -198.713 0 0 0 0.5 
761 2 2 4.7648 0.542733 9.80309 -141 0 0 -393.629 -14.3872 17.1935 -1453.55 1817.93 -1161.13 0 0 0 0.5 
577 2 2 0.565383 3.2103 9.33129 184 1 -1 -193.727 8.12381 11.5569 1506.64 -249.995 -344.817 0 0 0 0.5 
810 2 2 0.982778 3.54386 8.35251 41 0 0 -144.335 8.77729 11.7737 2006.95 813.851 1723.46 0 0 0 0.5 
438 1 1 1.67433 4.25632 8.5998 13 0 -1 -60.5896 -18.4779 11.0933 541.182 -447.999 147.362 0 0 0 0.5 
582 2 2 3.64038 4.50615 9.09688 -8 0 -1 -69.9658 7.46051 18.5647 -92.606 1899.27 -577.802 0 0 0 0.5 
136 1 1 2.83486 3.89327 9.25427 2 0 -1 -55.6106 -27.3742 2.26109 -928.236 306.54 -2791.1 0 0 0 0.5 
843 2 2 4.90149 3.89892 8.84908 -34 0 0 -87.6408 -0.582486 6.8827 664.856 1570.38 -1362.22 0 0 0 0.5 
671 2 2 2.89587 4.5022 8.47669 -25 0 0 -73.3049 25.2946 21.9708 -1670.1 877.545 880.289 0 0 0 0.5 
904 2 2 4.47368 2.4043 9.08412 149 1 -1 -280.522 13.9571 -12.0125 3959.65 -1278.36 266.343 0 0 0 0.5 
740 2 2 2.88897 1.81467 9.71059 -75 0 0 -335.25 15.8669 -10.6234 363.129 591.088 -20.2475 0 0 0 0.5 
147 1 1 3.77851 2.61617 9.54885 -121 0 -1 -227.337 -4.72841 -22.7861 -2093.55 -605.014 2215.22 0 0 0 0.5 
465 1 1 4.17038 3.90956 9.1764 -23 0 0 -76.676 -26.5517 29.8523 -1203.65 -521.554 819.824 0 0 0 0.5 
510 2 2 2.8266 2.8491 8.19267 -53 0 -1 -208.816 -16.1769 -8.0114 -1416.71 1260.24 -1186.71 0 0 0 0.5 
941 2 2 4.33937 1.63093 8.58015 -32 0 -1 -327.698 19.9464 3.99118 -358.826 944.544 254.731 0 0 0 0.5 
382 1 1 0.226466 4.54735 9.42511 -219 -1 -2 -80.3942 15.9161 9.82881 -789.805 -2325.96 85.3608 0 0 0 0.5 
430 1 1 3.49879 3.49539 9.75689 -20 0 0 -116.582 -1.60339 2.17252 1964.55 -439.195 611.539 0 0 0 0.5 
162 1 1 3.32485 2.94529 8.96636 165 1 -1 -204.176 25.9353 -25.1182 -261.335 1572.43 431.215 0 0 0 0.5 
827 2 2 0.176172 3.76766 8.21376 -53 0 0 -125.774 -15.8408 6.92867 -906.285 -555.366 -2684.57 0 0 0 0.5 
16 1 1 3.50472 1.41919 8.28277 -122 0 0 -324.895 -20.3812 -2.00272 -689.831 1236.67 -2010.12 0 0 0 0.5 
310 1 1 4.95335 1.62269 9.65473 79 1 0 -350.256 -3.14867 -11.6295 1853.55 -3552.5 -1593.11 0 0 0 0.5 
462 1 1 4.23376 6.89214 0.500993 133 0 0 209.211 -32.7405 -17.3076 -235.298 -2326.96 1047.51 0 0 0 0.5 
701 2 2 1.6695 9.2613 1.86495 98 0 0 420.783 6.67083 -6.75081 -559.144 -1.07737 -807.549 0 0 0 0.5 
73 1 1 0.292844 8.95154 0.943268 1 -1 0 393.153 1.85304 -17.6395 1228.11 -3147.28 443.149 0 0 0 0.5 
87 1 1 1.67397 6.11267 0.118327 17 0 1 152.314 -20.2018 0.244777 46.7589 -16.6466 -149.588 0 0 0 0.5 
152 1 1 2.74886 7.59477 0.217514 50 0 1 277.05 7.02194 24.0295 -5.2856 -208.866 359.93 0 0 0 0.5 
776 2 2 3.65689 9.0108 1.13337 -142 -1 1 392.804 18.405 5.92206 3595.69 -258.852 -199.546 0 0 0 0.5 
578 2 2 1.16156 8.99827 0.753417 113 0 0 378.197 -0.959008 -21.5966 2365.01 3321.22 1401.04 0 0 0 0.5 
242 1 1 1.39342 6.21255 1.01587 -305 -1 1 134.188 -16.5791 1.94268 -437.685 30.0974 -276.429 0 0 0 0.5 
302 1 1 3.1937 7.16393 1.47184 114 0 0 218.692 -9.34941 15.0752 0 0 0 0 0 0 0.5 
141 1 1 0.268645 8.22967 1.54702 -87 -1 1 315.283 2.56826 -2.53396 -982.895 1860.49 -1530.27 0 0 0 0.5 
273 1 1 0.0737334 9.92317 1.68016 -191 -1 2 500.721 -1.32795 5.3306 -1890.55 -1304.78 -762.037 0 0 0 0.5 
750 2 2 1.45656 9.82733 0.104889 -132 -1 1 516.388 -18.305 -15.2264 263.442 -338.015 835.193 0 0 0 0.5 
129 1 1 3.04845 6.35142 0.25634 -200 -1 0 97.6371 -1.04103 18.2474 -1061.51 237.959 337.685 0 0 0 0.5 
325 1 1 3.63572 9.83994 0.227175 130 0 -1 485.405 2.98253 12.0198 -25.6087 66.7767 738.628 0 0 0 0.5 
194 1 1 1.57015 7.48756 1.59669 -260 -1 0 246.809 -7.95855 1.99915 -2176.85 715.442 -1486.67 0 0 0 0.5 
779 2 2 3.49854 5.71889 1.34624 -1 0 0 58.2865 2.77459 16.1813 3069.24 -315.15 1097.1 0 0 0 0.5 
14 1 1 2.35988 8.32381 1.71861 30 0 1 290.083 18.8938 -16.9997 168.832 474.297 510.548 0 0 0 0.5 
680 2 2 0.536021 9.17213 1.84327 -160 -1 0 435.142 -14.5798 -7.60805 578.22 -2011.25 196.056 0 0 0 0.5 
916 2 2 1.60707 9.79268 1.10646 -113 -1 0 480.984 -4.96454 -3.03922 -2319.88 844.651 -148.92 0 0 0 0.5 
461 1 1 2.79091 5.19359 1.95801 276 1 0 22.926 9.4011 -0.0152992 -56.1224 176.666 -87.5858 0 0 0 0.5 
404 1 1 3.67405 5.83248 0.320114 12 0 1 104.682 -10.7201 14.984 923.823 -709.737 242.132 0 0 0 0.5 
928 2 2 3.70728 7.30872 0.606841 19 0 0 223.442 -13.1268 21.7057 -1705.13 495.941 225.676 0 0 0 0.5 
497 1 1 2.15287 7.14003 1.79745 174 0 1 227.965 -2.24336 15.7597 2183.21 -2279.1 279.948 0 0 0 0.5 
583 2 2 2.68911 9.83192 0.791392 -132 -1 1 504.859 -19.4689 -6.78931 -375.88 262.618 -1016.31 0 0 0 0.5 
49 1 1 3.32254 8.0668 0.924266 -1 0 1 280.979 16.1854 5.47053 -231.528 -309.418 407.748 0 0 0 0.5 
649 2 2 0.449627 8.4504 0.15572 48 0 1 366.181 4.53706 -32.9043 1075.1 -657.47 234.341 0 0 0 0.5 
412 1 1 3.27041 8.28075 1.87007 -237 -1 1 297.723 22.9356 -1.21699 1070.64 226.741 -749.326 0 0 0 0.5 
597 2 2 -0.025796 9.85361 0.684608 -111 -1 1 511.92 -5.31546 21.3962 -1992.21 2334.38 -489.95 0 0 0 0.5 
704 2 2 2.95605 9.10028 1.32737 115 0 -1 397.889 -4.89671 -17.5543 -2388.35 -2029.06 2487.82 0 0 0 0.5 
864 2 2 4.41588 5.16002 1.98973 -28 0 1 47.1519 -6.97145 4.41196 -497.238 -1374.05 1463.94 0 0 0 0.5 
446 1 1 1.8182 5.2933 0.683587 -46 0 1 3.85958 24.1121 1.25254 109.991 516.408 1021.74 0 0 0 0.5 
832 2 2 0.461143 7.66345 0.760941 5 0 0 295.21 -4.88684 -9.91947 -411.619 1286.93 -754.048 0 0 0 0.5 
545 2 2 2.24201 8.03834 0.851957 123 0 -1 276.526 16.1892 -10.5968 1243.38 -1180.01 403.367 0 0 0 0.5 
945 2 2 2.04627 9.01228 0.832682 91 0 0 405.452 9.83705 1.81213 677.029 -1063.63 -1194.33 0 0 0 0.5 
341 1 1 4.53972 5.98896 0.87777 14 0 0 78.1937 -0.180636 4.53841 691.901 2013.78 -240.415 0 0 0 0.5 
627 2 2 0.403474 6.85373 1.18365 0 0 0 189.473 2.58338 0.606751 1970.11 319.308 -209.681 0 0 0 0.5 
946 2 2 4.35189 8.97713 0.395558 91 0 0 358.423 21.1317 -3.17236 -21.3981 -604.071 675.862 0 0 0 0.5 
960 2 2 1.76005 8.7135 0.0325053 188 0 1 365.35 3.61608 -7.09756 775.567 -321.88 -801.994 0 0 0 0.5 
894 2 2 2.59926 5.92731 1.15177 12 0 0 109.295 -9.59864 -14.9072 -2035.92 277.688 -1335.37 0 0 0 0.5 
882 2 2 0.521423 6.20283 0.535007 -4 0 1 127.286 -4.98935 -9.47168 402.071 1099.94 -119.709 0 0 0 0.5 
914 2 2 1.58956 7.10937 0.401318 42 0 1 224.436 -5.68282 4.79238 -712.665 163.078 183.628 0 0 0 0.5 
52 1 1 3.74359 7.93799 0.0585079 174 0 1 303.263 -0.346896 3.08468 232.385 -403.22 1083.11 0 0 0 0.5 
986 2 2 0.610318 5.36412 0.559559 60 0 1 39.1587 -16.2517 -4.11677 -2506.95 1039.21 43.7054 0 0 0 0.5 
409 1 1 1.9863 6.22325 1.72851 347 1 1 136.247 -19.4649 17.0073 1634.77 773.035 -1816.21 0 0 0 0.5 
889 2 2 0.681083 5.33634 1.51865 3 0 0 17.3275 -11.455 7.67501 -849.454 -1336.65 986.481 0 0 0 0.5 
387 1 1 1.17361 8.29675 1.77791 -201 -1 0 317.756 5.19807 -9.37782 -577.791 1908.41 406.748 0 0 0 0.5 