ITEM: TIMESTEP
36000
ITEM: NUMBER OF ATOMS
1000
ITEM: BOX BOUNDS xy xz yz pp pp pp
0 10 0
0 10 0
-0 10 0
ITEM: ATOMS id type type x y z ix iy iz vx vy vz fx fy fz omegax omegay omegaz radius 
421 1 1 2.01989 1.74107 1.51875 166 1 0 -314.905 -12.2454 7.06381 -650.681 1266.47 -2822.69 0 0 0 0.5 
17 1 1 0.489893 1.00951 1.12472 -101 0 0 -402.866 4.95958 -11.1671 569.111 -39.161 1643.63 0 0 0 0.5 
871 2 2 2.1802 3.1917 1.79284 -8 0 0 -163.661 -1.12684 -21.3299 -460.296 44.7422 -1451.9 0 0 0 0.5 
159 1 1 1.37719 3.3569 0.0650849 207 1 0 -197.351 8.74915 -1.76788 1148.31 -942.71 -93.6525 0 0 0 0.5 
806 2 2 0.521678 2.45472 0.113906 -87 0 1 -275.255 8.74009 4.3053 1552.23 -1423.92 -354.07 0 0 0 0.5 
2 1 1 1.39679 1.93803 0.765098 -38 0 1 -311.048 -0.656519 -9.27711 -68.062 -59.3204 535.634 0 0 0 0.5 
181 1 1 3.73675 0.988717 1.03417 103 1 0 -390.603 -7.44834 -5.0457 -958.749 1987.67 458.963 0 0 0 0.5 
844 2 2 0.621413 2.46686 1.59556 145 1 0 -267.327 14.9794 0.362514 1939.71 -2686.29 -160.539 0 0 0 0.5 
23 1 1 0.498101 1.59062 1.93442 -117 0 1 -381.034 22.0293 -7.6166 134.386 -503.889 -655.755 0 0 0 0.5 
382 1 1 2.4404 4.74407 0.297782 -183 -1 -1 -7.95641 14.2103 -9.31986 -593.508 707.645 598.46 0 0 0 0.5 
750 2 2 -0.0104689 1.51055 0.409506 -117 0 1 -363.88 -8.33058 4.85829 1406.6 -2647.35 -65.68 0 0 0 0.5 
755 2 2 3.6169 4.31313 0.207448 -45 0 0 -90.7881 24.032 1.30977 -781.401 485.469 -0.876337 0 0 0 0.5 
270 1 1 2.17466 0.932491 1.08123 -86 0 1 -376.783 -30.1644 7.1573 -1022.73 1315.9 -102.476 0 0 0 0.5 
20 1 1 0.813844 0.776472 0.285307 -187 0 0 -424.998 -10.5863 -1.77998 -358.369 518.004 -449.616 0 0 0 0.5 
797 2 2 0.12175 0.0792246 0.872982 173 1 0 -469.88 -10.5685 -6.65344 1444.7 -1040.55 -392.039 0 0 0 0.5 
675 2 2 2.359 1.80214 0.642617 -60 0 0 -315.652 -8.16788 2.40638 1026.46 -373.751 -401.6 0 0 0 0.5 
765 2 2 2.49611 4.46096 1.1824 205 1 0 -48.0476 -4.70284 -17.8402 2335.58 -1047.03 1066.21 0 0 0 0.5 
614 2 2 4.46555 2.04594 0.49931 117 1 1 -240.315 -21.8208 -2.95334 2362.91 1013.54 -1135.29 0 0 0 0.5 
603 2 2 0.33301 2.85875 0.838129 180 1 0 -246.467 18.2267 14.8122 1632.32 -897.55 1296.71 0 0 0 0.5 
483 1 1 1.50905 0.852852 1.91727 141 1 0 -393.881 -21.14 -13.8285 16.4391 -141.933 -149.829 0 0 0 0.5 
812 2 2 1.16994 3.37815 1.43341 35 0 1 -114.796 -14.4838 -2.58201 -114.226 44.1523 -36.8503 0 0 0 0.5 
288 1 1 4.78227 2.62391 1.36462 -26 0 -1 -190.808 -5.78589 -16.5115 -1417.83 -356.208 176.232 0 0 0 0.5 
327 1 1 4.0371 3.17048 0.778734 -50 0 0 -144.134 6.14983 0.674887 57.4266 356.226 -120.396 0 0 0 0.5 
227 1 1 0.0868732 0.0230206 1.7701 -115 0 1 -474.265 -13.071 -8.90184 -318.116 -109.006 398.703 0 0 0 0.5 
162 1 1 3.93284 2.33021 1.00535 138 1 0 -231.621 -1.48408 -1.27767 -394.55 2353.47 818.075 0 0 0 0.5 
149 1 1 2.4115 3.6258 0.880404 -15 0 0 -139.912 -1.00326 -2.15354 -102.949 -1016.28 -367.482 0 0 0 0.5 
947 2 2 3.29089 2.97104 1.81602 3 0 1 -232.424 -0.306483 2.22109 -557.376 22.8248 -69.8765 0 0 0 0.5 
656 2 2 4.47198 0.534765 0.4069 -95 0 1 -452.785 23.4596 0.0734713 370.608 877.525 606.358 0 0 0 0.5 
530 2 2 3.95267 1.72579 1.38886 -68 0 2 -318.374 -17.8984 12.2431 -2242.27 -729.662 -923.157 0 0 0 0.5 
851 2 2 4.55654 1.65808 1.92828 -146 0 0 -347.08 -0.433352 5.44617 606.798 -89.9423 -1705.66 0 0 0 0.5 
889 2 2 0.806948 4.87254 0.0862077 2 0 0 -28.0078 1.45188 -11.0512 487.778 -91.1626 749.407 0 0 0 0.5 
405 1 1 1.63664 4.48006 0.733588 11 0 0 -18.8766 -25.4697 -13.36 -1337.46 495.151 -850.515 0 0 0 0.5 
905 2 2 2.93499 2.04457 1.6845 -56 0 0 -294.78 2.53644 -15.8045 -753.077 -253.361 -145.214 0 0 0 0.5 
125 1 1 4.33156 3.86913 0.20825 -221 -1 1 -89.8735 1.24769 4.52962 -258.777 -120.076 -610.114 0 0 0 0.5 
137 1 1 2.89849 0.8146 0.662031 -165 0 0 -386.52 -19.5205 -9.50478 -2604.59 216.036 1375.4 0 0 0 0.5 
547 2 2 0.430624 4.47239 1.8475 58 0 0 -87.4279 7.60415 -11.8571 0 0 0 0 0 0 0.5 
762 2 2 4.21883 0.386688 1.27832 -107 0 1 -430.212 -13.288 10.3084 -2390.27 1076.84 -220.2 0 0 0 0.5 
322 1 1 2.81985 2.48658 0.183061 110 1 0 -246.74 -1.05569 0.848156 570.228 -800.485 764.769 0 0 0 0.5 
696 2 2 0.92008 3.6903 0.358348 35 0 0 -146.577 9.64236 9.74614 -2444.97 2194.74 2441.94 0 0 0 0.5 
592 2 2 0.339585 3.69911 1.16553 -25 0 0 -123.891 2.21169 -9.70507 -789.155 2016.38 2112.62 0 0 0 0.5 
833 2 2 4.09536 2.93809 1.91688 -6 0 0 -204.172 14.9923 -14.3462 172.227 1000.13 -1081.76 0 0 0 0.5 
4 1 1 3.59536 0.695725 0.195218 -147 0 0 -434.544 13.0005 2.44581 1964.08 -291.819 -3291.11 0 0 0 0.5 
308 1 1 1.95756 1.75866 3.5713 -68 0 1 -354.605 -2.35556 0.826955 -113.51 1217.51 1808.17 0 0 0 0.5 
267 1 1 4.58821 1.17592 3.57539 -139 0 0 -410.819 5.69902 5.66469 -794.121 -1868.05 343.497 0 0 0 0.5 
786 2 2 1.91008 0.755161 3.48017 -137 0 1 -444.975 -4.04019 -1.15383 -1935.64 -157.084 -789.126 0 0 0 0.5 
96 1 1 0.697052 2.80811 2.66929 -92 0 0 -241.546 -12.1173 -1.59889 -882.008 -370.2 -762.6 0 0 0 0.5 
767 2 2 2.50963 1.26442 2.22593 -94 0 1 -389.568 10.6495 -1.86373 1280.69 -364.381 2649.33 0 0 0 0.5 
925 2 2 1.095 0.0582797 3.91148 108 1 0 -483.178 6.92759 1.85986 -1274.91 1223.22 2102.94 0 0 0 0.5 
7 1 1 3.73299 2.53987 3.8632 -62 0 0 -248.639 -11.4131 29.1451 -562.203 -618.957 -741.894 0 0 0 0.5 
894 2 2 4.69991 4.48147 2.01279 10 0 0 -74.4939 20.471 10.8658 -537.317 566.501 114.483 0 0 0 0.5 
196 1 1 1.3772 2.62046 3.72901 208 1 0 -235.904 -6.27613 14.4937 -106.201 -259.188 -1043.31 0 0 0 0.5 
975 2 2 0.643594 1.21569 3.25823 176 1 1 -355.784 -5.41613 -4.7566 1381.75 -440.615 271.886 0 0 0 0.5 
147 1 1 1.58939 2.29832 2.00489 -111 0 0 -304.627 8.2353 -5.58848 -672.599 694.186 569.417 0 0 0 0.5 
265 1 1 3.49751 4.82842 2.45004 -63 0 1 4.24982 5.78475 6.39662 -396.422 2404.38 -1273.85 0 0 0 0.5 
794 2 2 1.4317 1.52066 2.62224 11 0 0 -345.74 -17.0924 -11.0996 512.441 -663.073 -465.358 0 0 0 0.5 
416 1 1 3.65744 2.52897 2.8974 -90 0 0 -270.862 26.8409 13.4664 100.124 363.74 686.616 0 0 0 0.5 
418 1 1 0.846939 0.473398 3.13772 -121 0 1 -418.244 -34.8838 -1.7104 -3877.46 948.229 -1244.54 0 0 0 0.5 
486 1 1 1.50428 2.88346 2.61277 172 1 1 -241.945 30.3873 13.8517 1443.51 276.405 91.9546 0 0 0 0.5 
555 2 2 4.29972 3.66777 2.51054 -27 0 0 -136.804 7.3623 -12.0383 -546.001 9.19498 -1115.23 0 0 0 0.5 
513 2 2 3.50492 3.69004 3.68498 -75 0 0 -166.102 12.8646 -8.04224 435.492 225.484 -6.53623 0 0 0 0.5 
523 2 2 1.51784 0.153179 2.78262 -114 0 1 -468.009 -2.24287 -12.6389 4264.69 -1452.62 -1404.59 0 0 0 0.5 
901 2 2 4.1891 0.26678 3.64633 -114 0 0 -536.578 16.9498 13.9755 2122.54 -566.381 -2321.36 0 0 0 0.5 
501 2 2 1.03951 2.11762 3.07843 147 1 0 -312.199 0.255056 8.75654 709.394 -1347.64 2366.2 0 0 0 0.5 
939 2 2 2.24025 4.29842 3.53024 -46 0 0 -115.184 14.2217 -4.23042 3015.09 -959.377 -1648.39 0 0 0 0.5 
795 2 2 2.26189 2.69961 3.39195 -81 0 0 -242.715 -1.64468 -12.355 785.59 857.826 324.14 0 0 0 0.5 
332 1 1 1.77942 3.97146 2.13277 -135 0 0 -141.851 13.5899 8.751 2517.07 -1883.54 -2722.43 0 0 0 0.5 
361 1 1 0.153069 1.85969 3.24596 -48 0 0 -327.488 5.71259 14.7122 -714.848 -628.862 -821.964 0 0 0 0.5 
691 2 2 1.27995 3.48575 3.50679 156 1 0 -176.859 21.3174 -6.08766 2590.77 -2956.9 -136.826 0 0 0 0.5 
952 2 2 4.3908 2.47441 2.40319 15 0 0 -247.156 -11.4099 17.3022 -1100.35 485.483 1679.42 0 0 0 0.5 
254 1 1 0.411127 3.35603 3.21369 0 0 0 -189.513 2.96008 8.53081 -464.762 515.015 1783.5 0 0 0 0.5 
358 1 1 4.01468 1.1261 2.85617 -49 0 0 -393.954 -27.8028 -16.7704 -1319.41 443.565 1800.76 0 0 0 0.5 
38 1 1 1.8818 4.67062 2.77131 -78 0 1 -74.0501 7.91781 -22.7831 408.793 -1151.36 2375.29 0 0 0 0.5 
180 1 1 3.53637 1.25187 3.64478 10 0 0 -406.508 -4.0834 -28.7547 -677.021 -187.716 -1028.69 0 0 0 0.5 
75 1 1 2.6265 3.58207 3.53007 187 1 1 -166.26 -6.92564 -9.76432 -138.561 -2791.91 -94.4965 0 0 0 0.5 
746 2 2 2.40899 3.23321 2.65257 -29 0 0 -244.382 39.482 -10.6527 813.754 -643.886 1598.55 0 0 0 0.5 
583 2 2 2.61964 0.700219 3.32494 -116 0 1 -463.095 29.1679 -6.29329 3460.85 -1459.69 -617.732 0 0 0 0.5 
354 1 1 4.51472 2.5514 3.40459 -45 0 1 -255.911 1.28144 -1.00249 -978.146 -53.4939 -396.343 0 0 0 0.5 
79 1 1 4.81665 1.36314 2.59041 -99 0 1 -405.386 22.0695 1.65583 1332.85 373.644 2107.09 0 0 0 0.5 
933 2 2 2.83837 2.38187 2.57199 -22 0 0 -283.651 -2.46334 -3.44704 -222.207 124.654 385.789 0 0 0 0.5 
445 1 1 0.565415 4.17718 3.50645 -27 0 0 -96.3592 15.9887 -0.0607904 -1402.7 2140.53 -368.405 0 0 0 0.5 
654 2 2 3.6261 4.04851 2.86325 -75 0 1 -129.82 12.1426 -7.76591 -762.092 -1411.14 1279.38 0 0 0 0.5 
527 2 2 0.290748 3.2014 2.16335 12 0 0 -183.029 7.84335 -27.7861 -3454.27 1936.45 -877.997 0 0 0 0.5 
98 1 1 0.993628 4.18523 2.64644 -46 0 0 -85.4495 -3.86725 2.11329 -1693.46 -503.627 1260.69 0 0 0 0.5 
674 2 2 4.44559 3.50367 3.51021 -46 0 0 -155.112 14.008 9.25778 -130.927 79.4159 29.6112 0 0 0 0.5 
480 1 1 2.68849 1.57177 3.13518 -98 0 2 -346.275 1.20739 2.54807 -763.273 1892.71 -1062.41 0 0 0 0.5 
482 1 1 3.55217 1.70988 2.93717 44 1 0 -369.902 11.7957 -21.2238 736.224 2012.88 -1404.58 0 0 0 0.5 
243 1 1 0.478594 4.95771 2.79326 -59 0 0 -43.4285 1.24403 13.3899 1837.14 -1883.73 3079.04 0 0 0 0.5 
842 2 2 2.73283 0.461609 2.06021 -112 0 1 -452.077 -14.4358 -4.71511 288.588 -1038 -214.276 0 0 0 0.5 
948 2 2 4.36599 0.506761 2.19013 216 1 0 -445.989 6.39332 15.0967 1341.81 -2190.06 -1993.32 0 0 0 0.5 
641 2 2 4.95797 3.35772 2.64639 -29 0 0 -138.144 -11.5841 14.4181 -976.82 485.996 -192.575 0 0 0 0.5 
399 1 1 2.13921 2.56061 5.25678 -119 0 -1 -265.89 8.32389 16.2136 1438.54 -110.432 854.074 0 0 0 0.5 
182 1 1 3.16627 4.54242 5.00089 52 0 -1 -42.361 -0.272563 0.614583 -1340.97 3653.05 364.905 0 0 0 0.5 
456 1 1 1.27468 0.918557 4.07029 -56 0 0 -401.79 2.91905 9.10713 1390.21 -1149.95 1525.31 0 0 0 0.5 
216 1 1 2.3637 2.31372 4.29388 -121 0 1 -263.316 -10.2799 3.19127 -3765.82 1063.35 -1207.54 0 0 0 0.5 
575 2 2 2.2462 0.507225 5.20252 129 1 -1 -409.506 -7.62072 -12.1148 -1134.72 93.3505 -714.402 0 0 0 0.5 
492 1 1 1.31754 2.49733 4.87227 -140 0 0 -228.304 3.86934 -7.83034 -1669.13 1229.73 -84.2759 0 0 0 0.5 
64 1 1 4.743 4.84132 5.19753 49 0 -1 -26.4398 -8.22299 -8.37075 0 0 0 0 0 0 0.5 
959 2 2 4.07405 0.229375 4.64261 129 1 0 -516.232 -0.682238 33.1574 -2726.78 -1263.23 -81.6653 0 0 0 0.5 
346 1 1 1.98471 2.99863 4.3077 201 1 0 -214.485 17.6568 -14.9532 1636.27 -827.789 -1923.78 0 0 0 0.5 
877 2 2 0.0482655 0.496984 4.18129 186 1 1 -434.738 -0.395162 14.9344 -207.743 1933.96 -456.799 0 0 0 0.5 
31 1 1 0.509622 0.468608 5.99946 142 1 0 -436.3 -18.7907 7.64508 279.29 -2074.38 -257.104 0 0 0 0.5 
211 1 1 0.480312 1.66481 5.13995 144 1 0 -334.74 10.225 24.4552 1021.77 -581.688 0.056324 0 0 0 0.5 
783 2 2 1.1666 1.73909 4.41862 -61 0 1 -338.762 20.6683 22.9095 -108.828 -1038.79 -683.834 0 0 0 0.5 
269 1 1 3.87955 0.876293 4.21568 -139 0 0 -435.966 14.7118 -6.43187 497.074 1814.61 1788.75 0 0 0 0.5 
778 2 2 0.425143 1.38737 4.0732 -143 0 1 -343.162 -13.4781 22.0964 -3250.24 632.459 -468.212 0 0 0 0.5 
702 2 2 1.37436 2.38631 5.97216 183 1 0 -236.705 -3.5799 9.67928 0 0 0 0 0 0 0.5 
364 1 1 0.598164 2.71019 4.18512 -46 0 0 -243.908 0.953154 1.90909 3383.81 -1490.98 171.348 0 0 0 0.5 
167 1 1 0.207305 1.15343 5.85677 164 1 -1 -393.444 22.491 12.9008 1719.98 -2713.32 -525.85 0 0 0 0.5 
514 2 2 0.756428 0.733373 4.97786 -74 0 0 -383.36 -20.9995 7.02927 20.3337 895.524 301.333 0 0 0 0.5 
509 2 2 1.53804 1.0408 5.47564 -100 0 0 -392.573 11.7369 21.9623 -476.601 65.568 -77.9183 0 0 0 0.5 
913 2 2 1.60037 3.47733 4.68507 -9 0 0 -150.842 10.2322 2.80811 -237.67 1006.13 981.929 0 0 0 0.5 
646 2 2 2.03845 3.459 5.50418 -54 0 0 -164.612 17.535 -3.73878 533.28 948.223 1470.16 0 0 0 0.5 
781 2 2 3.01907 1.71947 4.11713 156 1 0 -363.093 0.461175 17.2313 3200.6 -2557.89 117.848 0 0 0 0.5 
816 2 2 2.3177 4.44648 5.2021 -7 0 0 1.4116 -31.6355 24.4915 -3087.67 522.56 2811.3 0 0 0 0.5 
660 2 2 3.17814 1.36413 5.54815 8 0 0 -326.208 -32.2689 8.43312 -1871.11 606.017 4601.33 0 0 0 0.5 
529 2 2 0.94844 3.82359 5.0631 -17 0 0 -121.317 -1.28526 39.1043 -462.882 329.8 1998.6 0 0 0 0.5 
838 2 2 3.99975 4.83419 4.18023 5 0 1 -17.4972 12.5737 -11.227 1258.69 -1236.73 1255.82 0 0 0 0.5 
460 1 1 4.48104 4.05581 5.98805 -18 0 0 -82.0148 -18.5243 -3.57666 1814.65 -1625.03 752.509 0 0 0 0.5 
262 1 1 4.05539 0.518778 5.53258 -160 0 0 -412.441 -8.06811 6.09421 -3526.44 3435.12 2922.63 0 0 0 0.5 
228 1 1 3.90873 1.53982 5.85843 -105 0 1 -319.766 12.1595 10.8562 -1257.62 -199.456 621.966 0 0 0 0.5 
464 1 1 0.126544 4.90382 4.383 23 0 0 -21.016 14.8167 -18.2226 4665.81 -4217.32 -203.956 0 0 0 0.5 
610 2 2 1.21487 4.88022 5.64527 46 0 -1 -17.9242 1.52784 4.11124 2375.34 -2241.23 2760.48 0 0 0 0.5 
258 1 1 3.57549 2.02022 4.89057 -104 0 1 -348.14 31.3526 5.22608 3050.16 -1585.66 -839.957 0 0 0 0.5 
629 2 2 2.69673 1.91198 5.06352 -149 0 -1 -290.6 -19.9536 18.2861 -3856.42 73.4605 -457.876 0 0 0 0.5 
88 1 1 3.84784 4.62404 5.72854 64 0 0 -28.2873 2.72472 5.48968 36.9132 823.884 -1182.88 0 0 0 0.5 
747 2 2 2.86763 0.630366 4.37154 -179 0 0 -418.049 9.19031 -20.7944 -208.815 1521.5 -757.689 0 0 0 0.5 
845 2 2 2.49056 3.88634 4.48529 -29 0 0 -138.69 8.30947 -2.24424 -82.277 -1638.73 -1678.71 0 0 0 0.5 
568 2 2 3.89288 3.31735 4.36496 -62 0 0 -176.164 -6.87626 -5.11514 -393.434 331.019 482.691 0 0 0 0.5 
1 1 1 3.51779 1.06002 4.9739 -190 0 -1 -408.216 -8.51102 -4.41751 965.867 460.619 -2324.95 0 0 0 0.5 
488 1 1 4.10268 3.03201 5.18324 -113 0 1 -212.834 -7.5858 20.9254 1391.6 -3339.69 -3047.43 0 0 0 0.5 
741 2 2 4.53993 2.64603 4.46264 -105 0 0 -214.506 -13.2973 21.6693 786.26 -1543.48 -346.939 0 0 0 0.5 
640 2 2 3.22006 2.15868 5.95079 -116 0 0 -254.37 0.428714 -6.63053 -2910.11 1772.41 -173.413 0 0 0 0.5 
893 2 2 0.237508 4.9058 5.86318 13 0 0 -15.7667 -12.2785 -29.848 2337.98 15.1247 -1212.45 0 0 0 0.5 
826 2 2 0.322052 4.1174 4.62482 247 1 0 -106.382 -10.6944 9.73393 -828.543 -228.253 -186.757 0 0 0 0.5 
229 1 1 3.03344 0.356444 5.56804 -116 0 0 -427.944 14.0915 21.2845 -720.882 3758.94 -2697.39 0 0 0 0.5 
550 2 2 3.07203 4.89976 5.83197 52 0 0 -21.3591 5.17852 3.00947 -1937.4 1257.94 1325.13 0 0 0 0.5 
58 1 1 3.6302 3.83398 5.43071 47 0 -1 -120.167 -12.9639 -6.59762 -1126.08 4906.56 302.233 0 0 0 0.5 
531 2 2 1.36288 4.18249 4.05262 -64 0 0 -104.595 6.28082 22.4074 88.1614 2553.54 -897.29 0 0 0 0.5 
220 1 1 3.80203 3.18048 5.83963 253 1 0 -195.355 10.7275 14.1954 -714.743 465.611 2395.29 0 0 0 0.5 
56 1 1 3.72808 4.1259 4.57131 -52 0 0 -130.722 12.3105 -18.5873 3139.44 -1139.13 -2280.97 0 0 0 0.5 
980 2 2 4.71029 0.387209 4.48962 143 1 1 -535.901 50.4539 12.096 3042.13 995.806 -834.569 0 0 0 0.5 
120 1 1 4.75373 1.24703 5.62487 -141 0 -1 -411.138 15.9442 -19.622 3626.93 -2334.25 -1948.9 0 0 0 0.5 
619 2 2 4.8793 2.1929 5.53627 -59 0 1 -287.539 -9.65264 3.09131 2299.86 578.325 -2521.76 0 0 0 0.5 
516 2 2 4.96202 3.07454 5.26188 -99 0 1 -213.259 18.4548 20.4082 1474.65 -749.278 133.825 0 0 0 0.5 
661 2 2 2.10218 2.12452 6.99931 -61 0 -1 -226.011 -21.268 -24.9605 -14.495 929.596 471.248 0 0 0 0.5 
119 1 1 3.64993 4.98503 6.61752 0 0 0 -25.6123 0.633247 13.3966 -239.768 -93.9006 164.577 0 0 0 0.5 
544 2 2 2.55305 3.0797 6.28456 3 0 0 -170.017 -10.4993 -25.9491 -1069.55 293.442 -444.308 0 0 0 0.5 
241 1 1 2.08885 2.97967 7.43282 276 1 1 -171.426 -10.4122 16.3351 -2.20475 -911.68 90.9817 0 0 0 0.5 
307 1 1 0.330347 2.63685 6.75302 191 1 -1 -252.319 30.4783 -15.1301 1408.93 1043.35 -752.495 0 0 0 0.5 
988 2 2 0.878364 2.41714 7.47075 24 0 0 -250.459 11.3754 -28.6344 946.618 -2627.02 -44.7576 0 0 0 0.5 
113 1 1 2.20853 4.29367 6.20469 46 0 -1 -59.814 10.6461 5.2956 -205.513 -3545.7 398.237 0 0 0 0.5 
378 1 1 3.38608 0.294126 6.47356 -145 0 0 -485.921 18.9352 11.8272 4663.7 -5356.22 605.009 0 0 0 0.5 
115 1 1 4.37759 1.40413 7.75466 116 1 -1 -331.818 19.2234 14.3315 -4739.31 4385.72 -2439.63 0 0 0 0.5 
743 2 2 1.91871 3.51647 6.72059 -58 0 0 -150.87 4.84434 13.8192 2125.78 144.354 679.377 0 0 0 0.5 
524 2 2 4.72596 2.30193 6.79336 -61 0 1 -261.64 1.16029 32.1904 293.029 -41.4012 80.6212 0 0 0 0.5 
260 1 1 3.23849 2.17869 7.25558 -120 0 0 -280.848 -2.22933 -2.02476 -823.278 1681.6 -1128.93 0 0 0 0.5 
16 1 1 0.303442 1.7541 6.72918 -109 0 0 -339.648 2.38605 -17.1963 793.035 817.847 -2502.79 0 0 0 0.5 
748 2 2 3.39812 2.81839 6.5374 185 1 -1 -190.788 -5.52506 -8.94282 -1414.64 1057.08 2145.14 0 0 0 0.5 
257 1 1 1.50747 3.70884 7.56842 -41 0 0 -163.459 20.1497 3.32337 1073.39 845.086 -623.137 0 0 0 0.5 
810 2 2 1.96538 4.46626 7.97879 45 0 0 -81.8165 -4.81645 3.68827 841.052 -1780.25 -1469.35 0 0 0 0.5 
126 1 1 0.635432 1.33908 7.30865 172 1 -1 -364.309 3.22339 -3.99424 1611.93 734.022 1366.18 0 0 0 0.5 
688 2 2 0.984704 0.625872 7.10764 -23 0 1 -413.115 -17.2949 -2.30555 850.798 -1737.32 -489.628 0 0 0 0.5 
352 1 1 2.70996 1.02941 6.49861 -81 0 0 -340.824 -3.93168 10.3889 -4189.91 4073.32 492.781 0 0 0 0.5 
375 1 1 4.1641 2.51227 6.08987 157 1 -1 -227.625 -9.80826 -11.1972 375.539 -1224.85 1069.47 0 0 0 0.5 
335 1 1 2.59059 0.269035 7.12487 -84 0 0 -407.883 -21.8658 -5.31491 -2006.7 195.38 -1524.22 0 0 0 0.5 
929 2 2 4.56642 3.73988 7.95835 -19 0 1 -124.697 3.25372 -34.3269 1628.12 -1268.9 -229.984 0 0 0 0.5 
331 1 1 0.989704 4.64045 7.4235 -9 0 -1 -21.99 -10.33 7.8787 674.434 -481.099 873.84 0 0 0 0.5 
961 2 2 0.783915 3.47292 6.92601 -9 0 0 -159.263 12.3534 -14.0115 2022.46 -1785.92 -1282.96 0 0 0 0.5 
139 1 1 4.4071 4.56204 7.77992 -34 0 0 -99.6178 19.8825 -3.60702 -603.577 448.133 -115.203 0 0 0 0.5 
478 1 1 0.141633 3.50984 6.11753 -12 0 1 -126.137 -7.74128 6.61904 1149.65 -2639.22 -966.93 0 0 0 0.5 
218 1 1 2.66246 3.6455 7.8962 13 0 -1 -172.999 4.29159 6.98308 -1051.19 1045.86 248.731 0 0 0 0.5 
403 1 1 4.05905 3.68378 7.14394 -7 0 -1 -154.176 4.33547 -23.0519 -42.4814 -4.69764 -68.1891 0 0 0 0.5 
734 2 2 0.281083 3.8868 7.55839 -60 0 0 -122.45 17.5211 -11.3546 -1111.37 1719.37 826.821 0 0 0 0.5 
169 1 1 3.21988 1.21055 7.69799 208 1 0 -335.127 -20.7864 -1.18446 -2063.67 977.153 -555.374 0 0 0 0.5 
772 2 2 1.36802 4.00245 6.08505 -60 0 1 -70.887 -24.0448 9.25422 -218.885 1588.97 -3332.33 0 0 0 0.5 
910 2 2 3.84464 1.17196 7.02802 -40 0 1 -337.725 -24.6953 23.917 120.122 409.855 -670.381 0 0 0 0.5 
328 1 1 3.1778 4.14258 6.93021 37 0 -1 -113.546 16.3636 -15.6164 -76.0832 -640.48 -25.1929 0 0 0 0.5 
166 1 1 3.39877 0.322904 7.36201 48 1 -1 -429.367 -15.7666 28.4847 -426.477 -2098.7 -1004.91 0 0 0 0.5 
42 1 1 3.25437 2.88449 7.87334 -82 0 0 -206.231 1.84336 19.9857 -2495.32 214.833 968.013 0 0 0 0.5 
703 2 2 4.39634 1.03822 6.42123 -140 0 0 -343.021 -12.7892 9.89876 -1412.96 375.795 -2307.12 0 0 0 0.5 
938 2 2 2.9856 3.25541 7.11506 20 0 -1 -183.599 6.92497 -6.60649 -600.637 1219.75 171.661 0 0 0 0.5 
940 2 2 3.78666 1.97675 6.79899 9 0 -1 -264.432 6.4993 -20.9955 1994.08 -3324.6 236.717 0 0 0 0.5 
658 2 2 1.73873 1.90797 7.95383 -49 0 0 -291.178 -8.88447 -12.6792 0 0 0 0 0 0 0.5 
650 2 2 4.03861 2.40954 7.6821 -42 0 0 -273.337 15.844 -5.65883 3147.58 -1863.81 -397.253 0 0 0 0.5 
11 1 1 0.664474 4.34642 6.42586 -18 0 -1 -55.8493 -16.9355 5.15258 -1406.13 645.446 1409.47 0 0 0 0.5 
95 1 1 4.27316 4.53094 6.64988 -18 0 0 -32.5382 -2.84469 39.5615 2103.37 -1112.96 375.616 0 0 0 0.5 
415 1 1 2.91423 4.49869 7.71849 -2 0 -1 -76.8181 -2.88651 22.3968 568.47 -257.048 -3084.99 0 0 0 0.5 
761 2 2 4.14255 0.415513 7.65845 -126 0 0 -445.396 11.4118 1.01762 74.1054 1316.79 39.9208 0 0 0 0.5 
142 1 1 0.72478 3.26634 7.8288 -93 0 -1 -137.767 -15.2871 -8.32139 -14.2032 1123.41 273.145 0 0 0 0.5 
208 1 1 4.84629 2.99544 9.24773 -25 0 0 -203.188 -10.9748 17.1637 350.808 -69.845 349.424 0 0 0 0.5 
420 1 1 2.0699 2.85876 9.89741 -2 0 0 -242.252 2.61655 -6.545 1367.12 -1241.26 -963.883 0 0 0 0.5 
252 1 1 1.88091 1.40693 9.85193 141 1 0 -399.212 2.05266 7.41163 -1630.13 1119.26 136.993 0 0 0 0.5 
887 2 2 0.499862 1.43131 8.80932 134 1 -1 -362.456 0.0730058 1.72353 -1765.26 202.751 -948.66 0 0 0 0.5 
86 1 1 0.38653 4.40866 8.32781 -32 0 1 -48.6116 -4.32795 -0.356723 2344.92 -1872.17 -272.759 0 0 0 0.5 
694 2 2 2.64613 0.400959 8.07316 -199 0 0 -417.851 11.3355 -12.8974 888.544 -1256.3 -1535.42 0 0 0 0.5 
956 2 2 0.734842 1.90632 8.19467 -84 0 0 -298.135 -1.68839 -18.1967 151.582 -454.255 -529.19 0 0 0 0.5 
983 2 2 1.51875 3.29524 9.16268 9 0 -1 -196.18 8.25677 16.6851 -63.5937 -220.463 111.472 0 0 0 0.5 
437 1 1 2.78284 4.47178 8.62428 -92 0 -1 -69.2109 4.80046 -23.9835 -935.348 672.228 2258.89 0 0 0 0.5 
904 2 2 0.649413 2.75952 8.48155 124 1 -1 -217.977 0.481909 13.8605 981.362 -175.287 -153.454 0 0 0 0.5 
108 1 1 0.683348 1.5633 9.82869 -153 0 0 -381.519 12.7057 -29.2273 861.416 -1004.89 -659.219 0 0 0 0.5 
827 2 2 1.28428 3.69404 8.46346 -49 0 0 -166.536 19.2591 4.31241 471.889 1944.15 439.857 0 0 0 0.5 
321 1 1 3.67055 4.75247 8.49377 -8 0 -1 -49.712 4.32978 0.44316 -173.17 -412.23 180.794 0 0 0 0.5 
237 1 1 0.42189 0.758174 9.10234 -100 0 0 -422.004 -9.05501 8.05022 616.552 -1494.58 347.403 0 0 0 0.5 
291 1 1 2.09634 0.80658 8.42001 -107 0 0 -413.632 6.61258 14.5639 211.652 158.287 408.285 0 0 0 0.5 
639 2 2 1.34118 1.2187 8.64653 70 1 0 -401.591 4.57121 -3.87745 1355.09 137.336 -87.8722 0 0 0 0.5 
173 1 1 2.92234 0.351555 9.68439 158 1 0 -423.325 -26.7488 10.8983 -2049.1 -1698.71 1890.21 0 0 0 0.5 
401 1 1 2.52322 4.39852 9.49481 55 0 -1 -47.6408 -4.71865 -1.39494 -3537.41 1780.39 454.795 0 0 0 0.5 
1000 2 2 0.570076 3.09865 9.39454 -90 0 -1 -205.096 7.00248 4.04685 -1543.19 4217.69 669.365 0 0 0 0.5 
293 1 1 2.49954 1.00848 9.7805 -133 0 0 -387.391 -1.17532 -5.0159 430.766 752.781 -49.0677 0 0 0 0.5 
815 2 2 4.69885 1.37682 9.94906 135 1 -1 -282.19 -37.0694 -21.5277 168.665 -67.4286 -376.259 0 0 0 0.5 
708 2 2 1.31054 0.564164 9.55539 -131 0 0 -428.949 -6.22734 4.46412 741.374 -316.891 -1089.47 0 0 0 0.5 
890 2 2 4.59361 3.10746 8.42404 -34 0 -1 -190.863 -27.964 -9.77021 -524.716 39.9063 342.379 0 0 0 0.5 
787 2 2 1.91289 2.80688 8.46207 -56 0 0 -244.406 7.28467 1.71662 -1415.37 494.843 -914.475 0 0 0 0.5 
577 2 2 1.85401 2.11231 9.34657 158 1 -1 -325.624 21.1363 -15.8188 959.506 107.371 458.497 0 0 0 0.5 
711 2 2 1.00557 2.28591 9.3625 110 1 -1 -305.175 24.5242 -15.0519 490.892 -3738.25 -457.796 0 0 0 0.5 
920 2 2 0.372991 0.0633009 8.67553 -176 0 0 -492.653 -14.9966 2.8213 2240.6 -2089.24 1448.72 0 0 0 0.5 
737 2 2 0.139177 2.10025 9.1296 -53 0 0 -313.978 0.00103761 19.2433 346.371 -1485.36 1080.34 0 0 0 0.5 
35 1 1 4.06065 2.43928 9.66772 -128 0 1 -243.036 -11.8001 -15.977 -316.558 622.965 -637.703 0 0 0 0.5 
392 1 1 1.29198 4.9318 9.2915 -15 0 -1 -22.9558 2.1931 -5.33679 -844.986 249.916 234.23 0 0 0 0.5 
533 2 2 3.56301 0.643614 8.33496 257 1 -1 -423.85 -1.66369 27.1783 435.216 -1141.61 2008.89 0 0 0 0.5 
621 2 2 1.79707 4.43729 8.86504 5 0 0 -56.716 -14.6244 12.2421 42.2745 -2642.32 -2060.75 0 0 0 0.5 
72 1 1 4.71724 0.469279 9.15291 164 1 0 -476.56 41.4092 5.08741 -228.328 -337.009 1359.69 0 0 0 0.5 
891 2 2 3.74554 3.90444 8.22179 22 0 -1 -119.158 -1.14895 -28.7256 -1317.37 -322.912 248.082 0 0 0 0.5 
210 1 1 4.67448 0.709767 8.19067 137 1 -1 -485.259 54.3609 11.6355 3021.94 -2633 3717.77 0 0 0 0.5 
935 2 2 3.69483 2.31495 8.60884 -59 0 0 -300.628 -9.07708 -10.609 384.628 614.99 423.201 0 0 0 0.5 
539 2 2 0.673385 4.01843 9.57252 -96 0 0 -93.3493 9.37153 -0.134071 -426.352 380.62 -1331.46 0 0 0 0.5 
314 1 1 4.58468 2.06701 8.62555 -85 0 0 -293.517 2.47108 2.40617 533.639 -148.684 10.018 0 0 0 0.5 
496 1 1 3.19291 4.00819 9.26685 90 0 -1 -110.725 4.65837 -5.35055 2789.73 -2261.75 -856.847 0 0 0 0.5 
608 2 2 3.98675 3.96652 9.23305 -44 0 0 -106.769 29.6133 0.680791 1383.95 -1911.02 -547.745 0 0 0 0.5 
465 1 1 3.16844 3.28769 9.83025 -18 0 0 -210.584 20.3341 8.92059 -461.931 -1525.61 704.923 0 0 0 0.5 
424 1 1 0.0352466 3.57888 8.43017 -21 0 0 -118.754 -3.31235 -15.7349 1801.51 230.197 1438.45 0 0 0 0.5 
740 2 2 2.69671 2.36857 8.52087 -65 0 0 -267.487 7.62913 -13.7476 1158.8 635.989 1255.14 0 0 0 0.5 
648 2 2 2.62701 1.76143 9.10383 189 1 0 -344.447 -13.5655 0.229951 1361.14 -555.037 -482.608 0 0 0 0.5 
316 1 1 2.84994 0.157513 8.89486 -117 0 -1 -467.114 9.00497 -0.992173 139.779 -446.578 -280.605 0 0 0 0.5 
186 1 1 2.74639 3.13875 8.9876 145 1 -1 -228.938 26.2549 2.382 62.7678 -313.497 -17.6241 0 0 0 0.5 
224 1 1 3.09962 1.90147 8.04268 -140 0 0 -281.163 -15.3627 -12.1397 -544.707 17.3271 904.874 0 0 0 0.5 
804 2 2 3.77489 0.346832 9.32871 -150 0 -1 -475.171 2.33234 -4.54626 -243.039 2596.35 -2451.49 0 0 0 0.5 
408 1 1 3.73222 3.08561 9.0061 -14 0 -1 -226.513 20.0411 -24.9532 858.012 1319.88 1172.82 0 0 0 0.5 
623 2 2 4.84445 4.61385 8.61835 -54 0 0 -88.4485 26.6418 -7.55849 50.6015 196.158 303.979 0 0 0 0.5 
457 1 1 3.73795 7.78828 0.0725598 35 0 0 309.32 -21.9344 -2.11013 1573.41 -546.47 1919.23 0 0 0 0.5 
298 1 1 2.1285 9.58794 1.21082 -119 -1 0 488.66 18.4689 -17.8546 -116.981 587.421 -267.793 0 0 0 0.5 
597 2 2 3.00928 9.4479 0.157485 -95 -1 1 453.682 12.3098 26.9247 -2799.38 620.177 -64.3773 0 0 0 0.5 
273 1 1 2.69419 8.54152 0.382117 -171 -1 2 368.732 2.02607 7.04257 211.692 2247.56 -420.871 0 0 0 0.5 
303 1 1 1.72554 7.79805 0.0557196 147 0 1 286.59 -5.40475 6.69746 12.4046 -398.429 -358.308 0 0 0 0.5 
942 2 2 0.425332 8.82667 0.492809 38 0 0 378.783 -1.02884 16.9599 1665.61 -2897.24 1089.21 0 0 0 0.5 
855 2 2 3.56758 8.37738 0.839925 -223 -1 0 354.849 -2.37804 5.19615 2341.68 -1828.93 1338.05 0 0 0 0.5 
969 2 2 0.48998 8.29653 1.77605 116 0 0 336.417 10.0152 -23.1105 -888.215 -642.526 -135.521 0 0 0 0.5 
545 2 2 -0.0446957 7.65018 1.2564 114 0 -1 263.357 7.76015 2.0318 -1090.01 1953.42 296.341 0 0 0 0.5 
574 2 2 2.88089 7.46436 1.98663 11 0 1 271.759 -18.55 -8.32339 -122.695 24.6864 -1244.77 0 0 0 0.5 
607 2 2 3.54057 5.3551 0.943666 80 0 1 57.6011 -19.1485 3.53551 182.303 -991.148 -449.68 0 0 0 0.5 
633 2 2 3.02891 9.02898 1.08722 -147 -1 1 413.566 16.6652 -0.910565 -715.475 1961.87 -81.6059 0 0 0 0.5 
368 1 1 3.49186 9.70579 1.78214 22 0 0 477.991 20.128 8.45206 -1090.43 1856.91 -583.681 0 0 0 0.5 
532 2 2 3.02531 6.84583 0.750483 48 0 0 222.615 -13.8169 13.679 -768.69 2213.82 -332.64 0 0 0 0.5 
380 1 1 0.243022 5.70583 1.3419 -44 0 1 100.501 -22.9116 -29.3316 -921.966 -810.951 -262.254 0 0 0 0.5 
171 1 1 2.2768 5.1246 1.57934 -25 0 0 30.8944 13.0951 -9.28519 908.522 1017.6 -405.945 0 0 0 0.5 
554 2 2 2.56032 5.88433 0.156924 -179 -1 0 128.111 -34.5082 -14.5475 -1468.26 -1766.03 -1116.05 0 0 0 0.5 
274 1 1 1.08361 6.60849 1.34084 -183 -1 -1 194.287 -30.1924 -19.7545 -1238.53 -533.026 709.685 0 0 0 0.5 
325 1 1 -0.0797718 9.47448 0.248507 114 0 -1 448.156 -12.7271 -13.4443 1208.38 1591.73 -1013.24 0 0 0 0.5 
946 2 2 3.61746 8.7439 0.125313 80 0 0 378.863 7.66114 2.37079 1169.45 -1649.22 545.495 0 0 0 0.5 
595 2 2 2.69295 7.67495 0.467378 107 0 1 293.275 -13.4976 12.5462 -568.532 1278.35 -1800.11 0 0 0 0.5 
26 1 1 3.81396 8.2564 1.84479 146 0 0 358.525 -19.1015 2.73821 -594.029 -567.104 -226.209 0 0 0 0.5 
212 1 1 1.46165 8.16673 1.77429 184 0 0 335.277 15.0181 2.93021 -110.925 243.543 987.336 0 0 0 0.5 
34 1 1 1.39362 6.81949 0.289471 154 0 1 210.092 -16.375 -15.2035 1178.96 -1873.81 -47.7085 0 0 0 0.5 
644 2 2 1.32564 5.20194 1.18633 284 1 1 10.0675 6.40507 6.72933 336.656 -1091.48 395.54 0 0 0 0.5 
758 2 2 2.08129 5.9826 0.987612 -1 0 0 116.844 -17.6128 -27.3419 -116.738 -265.539 -252.569 0 0 0 0.5 
118 1 1 1.65035 8.34137 0.803557 157 0 1 339.024 7.70361 -1.22565 -199.937 308.906 881.9 0 0 0 0.5 
817 2 2 0.987367 7.30707 0.645826 39 0 0 255.601 -0.623696 9.73931 -701.212 1262.27 -105.48 0 0 0 0.5 
735 2 2 1.13336 5.95258 0.596977 47 0 0 100.498 -4.47323 -14.104 -186.863 380.909 -1914.22 0 0 0 0.5 
801 2 2 3.62278 7.3982 1.96719 -227 -1 -1 299.435 -18.1376 4.31279 924.939 -2193.2 -520.929 0 0 0 0.5 
497 1 1 0.609357 7.22989 1.47412 167 0 1 253.771 0.719629 2.26437 -1791.5 -607.264 1913.37 0 0 0 0.5 
344 1 1 0.216314 6.42817 1.86322 73 0 0 178.858 -5.41283 11.5256 -227.887 -14.8044 -310.68 0 0 0 0.5 
800 2 2 2.09086 6.92903 0.832167 271 1 0 217.817 -3.95637 -15.9019 1168.79 -1846.2 516.261 0 0 0 0.5 
334 1 1 2.4425 7.7427 1.32061 73 0 0 287.927 15.0481 1.54217 -373.871 795.718 -268.18 0 0 0 0.5 
388 1 1 0.337278 7.83216 0.388543 -166 -1 1 273.988 13.58 4.69667 -1229.5 919.514 271.591 0 0 0 0.5 
73 1 1 4.43041 9.18855 0.814174 22 -1 0 432.621 0.860301 2.55878 512.535 1077.2 1661.43 0 0 0 0.5 
176 1 1 1.94074 6.50228 1.60523 67 0 1 153.783 -4.32943 -7.49515 1185.14 54.7653 -206.13 0 0 0 0.5 
503 2 2 1.29298 9.1336 0.549543 -6 0 0 365.379 47.4368 -0.284352 648.734 -203.125 -203.877 0 0 0 0.5 
958 2 2 3.88145 9.61435 0.441882 169 0 2 456.41 28.5091 -0.00132555 -1467.23 -269.544 -786.029 0 0 0 0.5 
111 1 1 3.78055 8.96343 1.52884 122 0 0 430.945 15.0343 11.253 749.374 -1812.63 -1887.25 0 0 0 0.5 
264 1 1 4.3493 5.03869 1.10338 -21 0 0 70.029 -11.2965 -1.60947 706.883 -276.571 139.598 0 0 0 0.5 
561 2 2 3.40534 7.61611 1.13006 67 0 0 297.509 -19.6838 0.630257 -719.277 -431.945 -445.519 0 0 0 0.5 
852 2 2 1.64674 7.50209 1.24072 -168 -1 1 270.075 -14.8072 -0.581952 -2073.7 2818.37 -748.068 0 0 0 0.5 
419 1 1 2.27394 8.85763 1.54376 108 0 0 417.025 -19.0417 -13.4284 -1756.53 615.362 -807.106 0 0 0 0.5 
976 2 2 0.172744 6.08978 0.378585 52 0 0 94.5461 7.58087 -4.69712 358.118 822.449 -282.313 0 0 0 0.5 
323 1 1 3.18555 5.51702 1.78837 -227 -1 0 41.5443 6.58655 -18.6368 -2.4488 -267.245 81.6969 0 0 0 0.5 
396 1 1 3.30483 5.9327 0.520104 -25 0 1 108.005 24.4094 -1.45008 2675.11 -2653.55 -1295.53 0 0 0 0.5 
391 1 1 3.39435 6.6001 1.63709 -5 0 0 208.408 -32.5717 -12.9941 816.597 710.596 1673.16 0 0 0 0.5 
649 2 2 4.56604 5.92048 0.319971 41 0 1 106.607 -14.5723 1.29217 -397.872 -602.389 35.1371 0 0 0 0.5 
698 2 2 4.65242 8.38591 0.736898 65 0 0 354.776 -20.142 0.0307391 -2414.16 -32.3975 753.523 0 0 0 0.5 
263 1 1 4.66079 9.25081 1.93868 -69 -1 1 439.022 4.2974 8.81989 -868.931 -1624.46 310.683 0 0 0 0.5 
690 2 2 4.63476 9.90296 1.40807 110 0 0 527.725 3.20199 12.2141 124.426 -822.777 191.555 0 0 0 0.5 
153 1 1 2.63727 5.18063 3.42448 26 0 0 -9.48265 4.90088 -29.6001 -1271.55 -1562.36 -39.9407 0 0 0 0.5 