ITEM: TIMESTEP
45500
ITEM: NUMBER OF ATOMS
1000
ITEM: BOX BOUNDS xy xz yz pp pp pp
0 10 0
0 10 0
-0 10 0
ITEM: ATOMS id type type x y z ix iy iz vx vy vz fx fy fz omegax omegay omegaz radius 
794 2 2 1.7597 2.38316 1.96115 -16 0 0 -277.913 -9.78969 -4.63207 -44.4698 -13.7468 203.973 0 0 0 0.5 
947 2 2 2.16987 1.68895 0.893441 -20 0 1 -326.977 -12.5002 10.6833 -211.018 -783.25 402.609 0 0 0 0.5 
197 1 1 0.40246 0.0589171 1.69295 147 1 0 -473.048 -5.62726 -25.706 1168.96 -78.966 212.095 0 0 0 0.5 
984 2 2 1.16172 0.825292 0.986377 230 1 1 -393.601 -13.3822 -29.0925 418.297 -775.517 -66.644 0 0 0 0.5 
941 2 2 1.84718 0.215924 0.0984326 -56 0 0 -476.075 -29.0579 6.42074 68.4926 2824.68 -61.0821 0 0 0 0.5 
288 1 1 0.387288 2.84843 0.935344 -56 0 -1 -228.766 0.346321 -0.0820743 810.299 -143.314 899.019 0 0 0 0.5 
547 2 2 2.10337 3.59165 0.366916 53 0 0 -161.544 -6.8031 7.07064 -5898.07 3356.64 123.589 0 0 0 0.5 
802 2 2 1.35302 0.190776 1.59225 81 1 1 -436.053 -19.6956 28.4456 -1321.1 390.418 -403.417 0 0 0 0.5 
654 2 2 0.618456 1.99593 0.678574 -89 0 1 -284.113 -7.34548 -14.7437 -2361.3 937.298 -2619.82 0 0 0 0.5 
644 2 2 1.84613 3.25808 1.18877 373 1 1 -142.591 -17.1201 -2.47973 -2010.45 3593.83 1048.15 0 0 0 0.5 
1000 2 2 2.46668 1.92354 0.0151969 -118 0 0 -309.189 2.33334 26.0993 -1337.08 1935.08 1443.77 0 0 0 0.5 
689 2 2 2.18105 0.857799 0.765242 -156 0 1 -403.479 -33.1708 21.4949 -2671.72 -489.48 948.524 0 0 0 0.5 
806 2 2 0.745598 2.84811 1.81218 -108 0 0 -212.832 -4.18134 1.96274 1903.75 -2248.02 841.498 0 0 0 0.5 
23 1 1 0.770433 3.16755 0.00839639 -147 0 1 -218.423 7.08615 -0.00118347 393.504 1368.26 156.171 0 0 0 0.5 
958 2 2 0.815989 1.02481 1.81191 227 1 2 -367.576 -9.75726 -15.1774 -37.2175 -535.987 -413.04 0 0 0 0.5 
254 1 1 1.64645 2.64861 0.297188 -19 0 0 -259.698 0.593264 -2.20654 -387.356 95.5473 223.356 0 0 0 0.5 
354 1 1 4.44901 1.91495 1.28325 -74 0 1 -302.039 11.4818 0.662126 -908.093 2142.33 -518.777 0 0 0 0.5 
284 1 1 1.07482 1.67844 1.09292 -114 0 0 -328.664 11.4224 21.7942 2588.48 -1722.52 2368.46 0 0 0 0.5 
713 2 2 0.257855 0.347441 0.484929 -227 0 1 -492.223 13.4507 0.995983 81.7099 -623.414 248.439 0 0 0 0.5 
542 2 2 2.16179 2.4328 1.09185 -237 0 1 -257.647 10.1307 1.50368 2003.84 -3015.77 -176.958 0 0 0 0.5 
922 2 2 3.90401 4.6085 0.325068 22 0 1 3.52173 14.3751 24.3103 658.926 2191.34 907.019 0 0 0 0.5 
648 2 2 4.01677 1.38858 0.434221 249 1 1 -361.597 -9.00059 -2.44094 -1707.38 2741.33 -1306.47 0 0 0 0.5 
414 1 1 4.60147 1.00842 1.10348 173 1 0 -414.609 15.678 11.9417 3389.24 -1846.91 -497.901 0 0 0 0.5 
216 1 1 2.08419 4.86744 0.822994 -132 0 1 -38.5122 6.05364 -6.88728 -1916.53 3384.18 -1118.92 0 0 0 0.5 
670 2 2 2.75719 0.546295 0.261531 -126 0 1 -468.125 -14.6671 -18.5328 -8.00807 1527.55 -508.331 0 0 0 0.5 
25 1 1 3.50665 0.433576 0.281967 -155 0 0 -470.353 0.0803964 -4.13592 1191.3 830.896 -2141 0 0 0 0.5 
533 2 2 4.55211 3.11561 1.73079 329 1 0 -159.679 2.27482 -2.99329 -417.884 -964.65 1354.35 0 0 0 0.5 
795 2 2 4.11775 3.87058 0.0952937 -100 0 0 -139.186 -2.56355 1.88333 772.335 -3121 -308.3 0 0 0 0.5 
443 1 1 3.76968 0.283858 1.66793 162 1 0 -482.286 -12.5992 5.21833 1983.81 -2414.86 1162.01 0 0 0 0.5 
418 1 1 3.37402 2.24186 1.88647 -157 0 1 -266.456 3.74123 16.7236 -1828.37 510.066 -1103.1 0 0 0 0.5 
986 2 2 2.52297 4.26345 1.04841 59 0 1 -88.1644 6.50437 8.08028 -682.453 1336.29 1894.11 0 0 0 0.5 
810 2 2 4.10861 4.93755 1.81291 31 0 1 -40.2823 23.2194 -0.169838 21.9533 697.943 -170.965 0 0 0 0.5 
218 1 1 3.08377 4.85153 0.353328 7 0 0 -4.39014 -13.6619 0.94062 -1372.29 -1324.42 -635.462 0 0 0 0.5 
78 1 1 0.196086 4.03239 0.73717 -37 0 1 -136.561 19.58 -8.99314 1821.89 281.673 -1411.47 0 0 0 0.5 
106 1 1 3.27517 2.44731 0.238621 -74 0 0 -299.608 -7.42308 24.1606 -1416.51 500.335 -830.822 0 0 0 0.5 
263 1 1 3.79893 1.03416 1.20371 -115 0 1 -389.172 3.91414 8.74392 -1817.91 -1502.25 2035.8 0 0 0 0.5 
699 2 2 0.430182 4.37932 1.96594 24 0 -1 -86.886 12.2373 4.69482 -238.334 -911.311 -1474.93 0 0 0 0.5 
80 1 1 3.88706 3.52864 1.00138 -64 0 1 -129.826 5.54185 10.1933 1039.22 -330.091 75.8055 0 0 0 0.5 
530 2 2 2.72049 3.63092 1.55922 -85 0 2 -139.373 -14.9099 1.08291 152.661 -915.595 -947.239 0 0 0 0.5 
593 2 2 3.68412 3.17271 1.85979 2 0 1 -176.368 -8.70339 -1.28878 -1178.92 60.4274 -1152.84 0 0 0 0.5 
511 2 2 0.991984 4.06819 0.12469 -24 0 0 -102.4 15.6819 28.7343 -30.1793 -1398.29 -17.7214 0 0 0 0.5 
213 1 1 0.634838 4.83815 0.97527 317 1 1 8.36964 -17.2027 9.85367 -711.641 -1247.84 -48.662 0 0 0 0.5 
695 2 2 4.4761 0.287339 1.66091 123 1 0 -471.727 14.1108 -13.9867 2028.54 -1376.7 -1242.22 0 0 0 0.5 
214 1 1 3.25712 4.71276 1.68978 -27 0 0 -43.4504 -17.8329 0.768949 305.887 -933.71 -690.027 0 0 0 0.5 
905 2 2 0.219253 3.48413 1.60416 -79 0 0 -156.36 8.05526 13.7361 -362.466 1982.61 807.069 0 0 0 0.5 
440 1 1 3.03428 0.675025 1.69848 -32 0 0 -411.11 -10.8809 -5.3269 -4652.15 2860.38 -290.397 0 0 0 0.5 
207 1 1 2.99508 1.05215 0.897969 223 1 1 -381.59 14.3679 2.50538 -1310.04 1169.11 -2520.51 0 0 0 0.5 
887 2 2 3.16918 0.109647 1.03813 191 1 0 -477.98 -7.36239 -22.3703 -171.263 -1345.79 430.764 0 0 0 0.5 
413 1 1 3.05165 2.71344 1.21117 -62 0 0 -247.829 24.3998 12.3062 -767.695 844.045 604.101 0 0 0 0.5 
186 1 1 3.11501 3.88593 0.70766 225 1 0 -119.23 9.78328 -4.88463 1322.68 -1059.88 -800.126 0 0 0 0.5 
318 1 1 2.9233 3.06769 0.345468 -95 0 1 -269.261 19.0677 23.9255 4157.37 -2828.7 659.173 0 0 0 0.5 
480 1 1 3.47236 1.88067 0.997349 -131 0 2 -306.376 13.7295 -9.83124 -1581.81 -926.921 2953.68 0 0 0 0.5 
853 2 2 4.38549 0.624012 0.248713 208 1 0 -473.31 10.2216 3.22327 2653.37 -3542.45 547.55 0 0 0 0.5 
395 1 1 4.89772 1.58992 0.300421 151 1 0 -352.052 14.7592 -3.11811 104.456 23.874 -15.8651 0 0 0 0.5 
185 1 1 1.40217 0.733103 3.33355 -14 0 0 -406.142 0.864621 11.9495 287.235 -834.255 -1300.61 0 0 0 0.5 
786 2 2 1.94769 1.34817 2.02036 -176 0 1 -346.37 -4.03753 1.54982 -64.4245 -6.89976 -15.2068 0 0 0 0.5 
208 1 1 0.881976 1.40911 3.04245 -48 0 1 -370.943 10.955 15.9301 -1017.03 947.887 -537.647 0 0 0 0.5 
769 2 2 0.532894 1.73038 2.20947 -62 0 1 -322.783 11.9452 -12.6761 786.136 185.61 -891.942 0 0 0 0.5 
778 2 2 2.57047 2.32486 2.27717 -163 0 1 -261.402 -9.69484 22.5172 -892.103 -964.04 -932.227 0 0 0 0.5 
482 1 1 0.160725 2.54702 3.99495 113 1 0 -244.084 12.3805 0.685927 -465.554 1330.98 -791.183 0 0 0 0.5 
598 2 2 0.0285876 2.04831 2.69753 -95 0 1 -301.821 6.99248 20.3735 1863.87 -645.683 2102.32 0 0 0 0.5 
65 1 1 4.85828 3.36819 2.76945 -88 0 0 -182.517 18.684 -19.3601 446.877 -306.355 -227.931 0 0 0 0.5 
803 2 2 1.69955 3.3094 3.1138 271 1 0 -151.929 -17.7572 9.96342 -1287.94 364.669 582.172 0 0 0 0.5 
182 1 1 2.20997 2.16999 3.97081 37 0 -1 -271.602 1.45434 -0.856561 1328.17 -998.022 -351.333 0 0 0 0.5 
566 2 2 2.51682 3.44447 3.59112 304 1 1 -143.572 -31.9008 0.866243 -1823.03 -1638.33 -360.33 0 0 0 0.5 
232 1 1 2.42336 1.48951 3.06413 -102 0 1 -363.605 7.19633 2.35182 -949.207 343.221 -327.094 0 0 0 0.5 
855 2 2 4.01312 0.111431 2.84151 -279 0 0 -474.657 -14.3857 -8.44091 -279.967 511.826 -1057.77 0 0 0 0.5 
90 1 1 3.4785 4.74315 2.57735 48 0 0 -23.9115 -8.59921 -10.0919 183.439 -818.455 -229.598 0 0 0 0.5 
327 1 1 1.08983 2.87525 3.79631 -65 0 0 -231.441 1.0886 -23.4221 4.47195 124.664 262.595 0 0 0 0.5 
579 2 2 1.85304 3.61332 2.06524 -61 0 0 -119.15 -10.7723 -7.78127 169.157 256.988 -475.628 0 0 0 0.5 
406 1 1 2.3352 4.14985 3.54677 -69 0 1 -43.4834 0.835924 -10.7056 811.2 765.899 -1098.4 0 0 0 0.5 
51 1 1 1.11528 0.534763 2.50527 -25 0 1 -388.594 -25.2974 -6.42088 154.518 -334.364 338.037 0 0 0 0.5 
708 2 2 4.09988 0.981018 2.17544 -172 0 1 -401.857 5.92336 10.9168 -1151.39 -3044.91 -163.641 0 0 0 0.5 
828 2 2 0.941492 2.36471 3.00789 -73 0 1 -303.011 7.39318 3.56314 1696.3 -1812.72 -641.025 0 0 0 0.5 
912 2 2 2.27046 4.32974 2.65425 2 0 0 -65.5292 -6.09437 -12.2692 470.213 -1772.24 981.179 0 0 0 0.5 
358 1 1 4.79367 0.537455 2.85732 -88 0 0 -474.116 16.4865 0.269148 -600.726 72.6667 -253.249 0 0 0 0.5 
956 2 2 1.93838 2.25118 3.03654 -114 0 1 -299.487 22.0908 -0.0731217 -464.756 2821.97 -563.477 0 0 0 0.5 
782 2 2 2.30218 1.29359 3.94092 66 0 -1 -322.67 -24.3558 15.9999 -1556.82 -1572.16 -181.907 0 0 0 0.5 
919 2 2 2.32322 3.03106 2.59677 -206 -1 0 -155.545 -12.7506 -1.33422 -301.619 1022.77 2421.13 0 0 0 0.5 
658 2 2 3.79401 0.85285 3.11018 -81 0 0 -421.156 27.8129 7.44521 3058.18 1709.27 -1229.17 0 0 0 0.5 
347 1 1 0.186364 2.96265 2.83914 -25 0 -1 -231.043 25.8874 -11.2125 -1220.73 332.641 -962.67 0 0 0 0.5 
702 2 2 2.96064 2.39687 3.42687 247 1 0 -279.071 5.87616 13.0919 -21.5433 1124.76 -180.171 0 0 0 0.5 
896 2 2 0.0145601 4.43416 2.77468 -21 0 -1 -72.1528 -7.74156 9.66114 302.01 249.187 -532.644 0 0 0 0.5 
481 1 1 3.6378 3.20216 2.97377 57 0 -1 -169.713 -2.12157 -4.16994 -1351.32 1236.08 786.928 0 0 0 0.5 
196 1 1 1.27889 4.1946 2.1788 285 1 0 -103.196 11.0952 13.8774 703.906 604.522 604.202 0 0 0 0.5 
333 1 1 2.96373 0.956042 3.11696 -47 0 0 -400.135 -12.0983 16.2148 -1691.74 1132.48 -443.272 0 0 0 0.5 
472 1 1 1.7876 4.9785 3.3289 13 0 1 28.3126 -11.6586 -1.20674 661.324 -866.421 -1760.05 0 0 0 0.5 
729 2 2 4.7165 0.124437 3.86569 207 1 1 -500.749 12.1798 10.1768 2993.94 -1324.4 447.691 0 0 0 0.5 
247 1 1 2.89704 1.44984 2.24445 -185 0 0 -344.471 2.7394 1.49311 1446.38 -449.273 -791.588 0 0 0 0.5 
629 2 2 3.67209 1.94362 3.07497 -182 0 -1 -303.914 -14.8028 0.536296 714.062 -8.3036 908.576 0 0 0 0.5 
548 2 2 4.49903 1.38633 3.3146 -157 0 1 -355.528 -10.3896 8.70006 -3454.82 1395.14 -1913.34 0 0 0 0.5 
777 2 2 3.08778 0.147871 3.49216 -206 0 -1 -486.858 0.0108389 -14.9562 753.472 -2217.28 1339.44 0 0 0 0.5 
553 2 2 0.832936 4.82635 3.37193 -314 -1 1 26.2357 -28.1511 -12.0392 438.777 -853.124 -176.698 0 0 0 0.5 
735 2 2 4.5908 4.1721 2.10724 51 0 0 -97.8836 -5.69171 3.68875 -818.104 -354.871 256.876 0 0 0 0.5 
808 2 2 4.06155 1.76373 2.20534 75 0 0 -323.756 -5.39389 -2.98204 2144.4 1514.59 1016.75 0 0 0 0.5 
104 1 1 3.34762 4.35762 3.38909 -6 0 0 -31.2125 -15.7361 -0.201227 919.054 -1212.45 146.8 0 0 0 0.5 
620 2 2 4.20661 2.59843 2.451 -40 0 0 -234.99 6.05884 16.3984 3243.78 -2484.18 -1893.25 0 0 0 0.5 
647 2 2 3.20821 1.35423 3.85588 -114 0 0 -333.564 -1.7214 11.5585 -2073.82 1009.5 -1890.3 0 0 0 0.5 
309 1 1 3.28197 0.647242 2.47574 116 1 0 -410.418 -31.7848 -9.90235 -1315.09 540.646 -207.27 0 0 0 0.5 
961 2 2 3.82869 2.41104 3.92204 -27 0 0 -279.202 6.81413 7.36467 -1381.01 -656.448 -704.899 0 0 0 0.5 
816 2 2 3.06379 3.55151 2.36586 -20 0 0 -164.834 17.9634 11.0984 -408.825 777.662 725.266 0 0 0 0.5 
845 2 2 3.16986 3.31378 3.75819 -38 0 0 -137.521 -17.3137 9.17115 781.395 -1271.14 964.377 0 0 0 0.5 
96 1 1 4.00496 0.377152 3.77607 -119 0 0 -489.699 -8.08103 -16.4998 -2262.92 -1539.42 1994.72 0 0 0 0.5 
935 2 2 4.24574 4.61759 3.86597 -81 0 0 -0.566405 -17.4505 -13.5441 908.857 -961.465 2377.77 0 0 0 0.5 
957 2 2 4.36919 3.22377 3.50081 27 0 0 -175.936 -8.70277 -1.25528 -591.034 1067.32 -248.149 0 0 0 0.5 
975 2 2 4.34345 4.55536 2.96872 253 1 1 -69.1597 7.72896 3.73802 2239.45 -475.961 -1084.25 0 0 0 0.5 
139 1 1 4.5605 2.23769 3.34296 -58 0 0 -306.983 21.6224 -11.1954 2030.93 383.249 -119.656 0 0 0 0.5 
665 2 2 4.95917 1.68794 2.05125 174 1 1 -321.24 -3.31874 -4.77166 708.252 -387.897 755.057 0 0 0 0.5 
575 2 2 1.69587 2.6231 4.34992 198 1 -1 -235.689 13.2784 10.4534 -685.333 1474.61 910.941 0 0 0 0.5 
169 1 1 3.13815 0.0376159 4.39026 259 1 0 -496.524 0.68625 -11.9815 109.228 -381.342 476.882 0 0 0 0.5 
300 1 1 1.21028 0.539518 5.03943 148 1 -1 -408.055 -16.0221 25.7015 -291.467 -891.166 382.786 0 0 0 0.5 
608 2 2 2.20666 2.47738 5.14707 -53 0 0 -206.116 7.65994 8.12754 773.248 -126.56 120.058 0 0 0 0.5 
951 2 2 2.34997 3.49501 4.59225 -53 0 0 -127.455 0.694361 5.52086 -1725.12 2697.37 -864.82 0 0 0 0.5 
983 2 2 0.223422 0.840203 5.37989 -18 0 -1 -432.505 -2.06181 -4.17509 518.302 389.701 2205.37 0 0 0 0.5 
428 1 1 4.13843 2.63549 4.81154 -100 0 1 -248.243 3.13963 -18.0658 392.619 2619.49 201.709 0 0 0 0.5 
205 1 1 2.48176 0.464411 5.63094 -71 1 -1 -373.754 -24.7992 -8.41866 -6032.55 2811.29 -1595.2 0 0 0 0.5 
763 2 2 3.12781 0.655016 4.93003 126 1 1 -417.956 37.2477 -19.0234 3742.86 -4023.66 77.6099 0 0 0 0.5 
667 2 2 0.679373 2.13661 5.73276 -54 0 0 -238.897 -20.1187 -8.60926 2200.51 -3241.64 144.321 0 0 0 0.5 
798 2 2 3.2122 2.07015 5.82414 -183 0 0 -256.236 -6.17547 -13.2084 -950.786 1255.87 -407.776 0 0 0 0.5 
995 2 2 0.397309 1.87065 4.39701 -146 0 1 -306.402 -12.5956 2.54132 482.567 -2115.79 149.456 0 0 0 0.5 
95 1 1 2.12623 1.76785 5.5972 -39 0 0 -276.116 -7.48477 15.5535 -414.485 1526.34 916.837 0 0 0 0.5 
551 2 2 1.68921 0.563998 4.08706 53 1 0 -415.264 5.09857 8.29851 -461.822 542.247 -1653.91 0 0 0 0.5 
495 1 1 1.62799 1.43322 4.57478 -94 0 1 -325.326 -11.3107 -0.663485 -824.742 1277.8 1331.34 0 0 0 0.5 
211 1 1 4.91588 0.896071 4.52079 207 1 0 -390.437 -6.11945 5.21468 -137.216 -367.335 240.3 0 0 0 0.5 
76 1 1 3.32368 3.60001 4.7161 112 0 1 -145.16 4.78391 11.7008 -156.535 71.3338 1330.72 0 0 0 0.5 
400 1 1 1.32029 2.54977 5.15552 -147 0 0 -202.989 -10.7494 20.3313 -835.201 911.165 1365.67 0 0 0 0.5 
770 2 2 1.68261 3.45705 5.2029 -69 0 0 -127.602 -12.4886 -8.87395 -1676.25 -98.4149 1267.46 0 0 0 0.5 
351 1 1 2.30391 4.30046 4.80794 2 0 1 -39.0738 9.47175 23.4028 981.305 1010.21 760.528 0 0 0 0.5 
823 2 2 0.775607 0.547602 4.13377 258 1 -1 -419.591 -12.5128 19.7509 867.053 -790.225 -939.059 0 0 0 0.5 
466 1 1 4.06751 0.0790448 4.76694 137 1 0 -485.158 -5.22522 -28.5661 263.061 -499.895 -833.614 0 0 0 0.5 
203 1 1 4.03433 1.02747 4.17043 -193 0 0 -389.371 11.9689 -0.521759 3054.1 -432.134 1722.28 0 0 0 0.5 
516 2 2 3.14961 4.51136 4.33325 -111 0 1 -30.8913 3.47388 4.15437 -150.474 465.563 -244.721 0 0 0 0.5 
10 1 1 2.61243 1.49225 4.88562 -182 0 1 -306.936 -4.34665 -1.86166 -2111.71 3290.36 -1310.98 0 0 0 0.5 
338 1 1 4.25476 1.35247 4.95032 153 1 0 -302.011 -1.77376 10.9994 -2130.66 1365.47 1311.21 0 0 0 0.5 
224 1 1 2.42616 0.610872 4.73649 -182 0 0 -448.706 -0.900596 -40.5707 16.5218 2271.91 4191.5 0 0 0 0.5 
931 2 2 2.47337 3.33738 5.62476 24 0 0 -115.201 -12.5518 -1.70925 -374.054 -577.459 -234.151 0 0 0 0.5 
908 2 2 0.267399 3.56239 5.04556 -89 0 1 -110.33 4.40973 -3.76648 3515.86 -768.512 207.397 0 0 0 0.5 
812 2 2 0.381018 2.62214 5.01149 8 0 1 -192.583 -11.938 -16.6996 -1051.87 1244.88 -300.586 0 0 0 0.5 
161 1 1 2.65768 2.85151 4.50423 -6 0 1 -204.784 -1.77779 -9.25111 302.973 -3368.13 -3052.02 0 0 0 0.5 
624 2 2 0.853192 3.59999 4.18179 9 0 -1 -152.132 20.241 14.498 -239.257 732.75 389.735 0 0 0 0.5 
826 2 2 3.24175 2.50536 5.02814 328 1 0 -240.665 4.98071 9.95254 459.923 913.325 742.204 0 0 0 0.5 
572 2 2 3.52707 0.842506 5.79213 -103 0 0 -414.031 -0.676191 -15.7207 -130.551 1102.44 -426.908 0 0 0 0.5 
497 1 1 -0.0285853 4.90996 4.62473 180 0 1 1.57119 -9.14722 -15.9706 2075.68 -239.613 -2260.4 0 0 0 0.5 
721 2 2 0.147406 2.57341 5.99519 245 1 0 -219.134 -7.52689 -7.01038 -298.306 -605.246 1765.03 0 0 0 0.5 
875 2 2 4.47272 2.249 5.43845 -64 0 1 -245.735 -0.460778 -3.85064 -395.66 -1170.62 821.363 0 0 0 0.5 
771 2 2 3.11242 0.0453082 5.46148 -179 0 0 -466.259 -4.55346 -4.26185 6147.65 716.11 -2149.65 0 0 0 0.5 
822 2 2 4.0146 0.454583 5.53419 -151 0 0 -423.813 -9.71358 -7.25256 820.732 -2485.35 -846.52 0 0 0 0.5 
306 1 1 1.90338 4.57917 4.09996 84 0 -1 -15.1174 -4.51689 -5.92786 -84.8379 290.022 2035.62 0 0 0 0.5 
532 2 2 4.42612 3.54062 4.8203 56 0 0 -141.331 16.766 -3.65983 -554.795 -166.149 486.134 0 0 0 0.5 
206 1 1 3.82294 4.44667 5.09966 -48 0 1 -56.72 6.15542 -6.13401 939.457 -550.487 -1664.02 0 0 0 0.5 
988 2 2 3.41767 4.60116 5.87972 4 0 0 -20.2046 7.57306 -7.72006 1381.14 -2078.13 -47.8055 0 0 0 0.5 
596 2 2 3.95909 1.65681 5.84892 -117 0 0 -313.153 3.06346 -9.86301 1764.64 -4186.74 442.326 0 0 0 0.5 
58 1 1 0.185168 4.78464 5.62658 39 0 -1 -25.3129 -3.58857 24.1208 2341.89 -57.0527 889.864 0 0 0 0.5 
380 1 1 1.20921 4.80175 4.38831 -42 0 1 -18.6402 -22.4868 26.9925 932.081 -475.327 1370.37 0 0 0 0.5 
504 2 2 3.24593 3.78691 5.83148 72 0 0 -131.344 14.4242 6.8022 -1171.27 1420.03 462.077 0 0 0 0.5 
785 2 2 3.50021 1.79341 4.59916 329 1 1 -297.462 -8.64651 0.785483 101.79 -159.062 -386.055 0 0 0 0.5 
862 2 2 1.65461 4.34084 5.63212 -51 0 0 -71.4218 11.8707 -2.3364 79.6315 -970.319 -980.963 0 0 0 0.5 
445 1 1 3.90373 3.61729 4.09671 -49 0 0 -155.383 20.5191 5.9466 1256.48 1161.07 -655.107 0 0 0 0.5 
610 2 2 3.94643 3.55101 5.49834 50 0 -1 -129.124 -1.70467 14.9441 662.414 -305.358 -123.689 0 0 0 0.5 
190 1 1 4.82672 3.92748 5.79868 -52 0 1 -118.041 8.31107 -8.40099 583.571 -2483.82 -221.349 0 0 0 0.5 
200 1 1 4.93974 2.75794 4.49074 -147 0 0 -232.854 8.09625 -2.53633 756.074 -587.832 -1733.52 0 0 0 0.5 
766 2 2 2.53952 4.28214 6.54188 -72 0 0 -51.5309 8.34095 5.80473 -318.921 -2691.21 -375.544 0 0 0 0.5 
373 1 1 2.53154 1.848 7.34495 -172 0 -1 -291.114 -0.863909 -28.323 -2156.41 1075.94 -267.396 0 0 0 0.5 
960 2 2 3.55488 0.675423 6.81145 218 1 0 -408.597 -23.9121 -5.14034 -434.741 -1101.72 393.509 0 0 0 0.5 
484 1 1 2.48169 2.52592 6.10781 27 0 0 -193.256 -20.5771 13.7817 -3235.36 1748.2 -94.6915 0 0 0 0.5 
446 1 1 1.08026 3.46417 7.75551 -50 0 0 -147.364 -4.04497 1.86258 -250.34 -22.7809 106.047 0 0 0 0.5 
609 2 2 3.32148 2.98186 6.04781 -50 0 0 -178.948 4.5086 2.41441 -540.81 -1980.43 -712.232 0 0 0 0.5 
791 2 2 2.2547 3.39296 6.53862 48 0 -1 -157.488 1.58969 -6.54676 24.3377 2124.37 -465.691 0 0 0 0.5 
199 1 1 0.0568009 4.22194 7.94499 -236 0 -1 -68.0223 -5.48899 21.012 1584.49 -1381.01 889.595 0 0 0 0.5 
159 1 1 1.58519 1.67009 7.24327 279 1 -1 -287.973 -1.71079 11.6891 -1422.54 1302.38 277.388 0 0 0 0.5 
272 1 1 4.18545 0.783699 6.38351 -218 0 -1 -389.146 22.5196 -11.8721 739.88 -1122.11 -1420.18 0 0 0 0.5 
154 1 1 1.82819 0.292146 6.49185 -6 0 0 -433.168 7.31198 -12.5004 -2429.12 1448.02 -1921.5 0 0 0 0.5 
346 1 1 2.22563 2.41001 7.93311 275 1 0 -242.943 9.03649 11.0744 -802.772 1205.78 -1319.98 0 0 0 0.5 
225 1 1 0.841231 0.700657 7.1119 -145 0 0 -384.717 5.04424 11.6233 202.117 -23.7307 30.5743 0 0 0 0.5 
616 2 2 1.35073 1.59612 6.30786 -54 0 0 -309.512 5.75276 0.133605 -150.104 197.689 569.035 0 0 0 0.5 
932 2 2 0.635544 1.71054 7.10667 -93 0 0 -273.425 -8.67345 5.31099 -1124.9 626.931 -373.13 0 0 0 0.5 
17 1 1 4.08156 1.00511 7.48055 -137 0 -1 -380.687 4.62696 -4.31205 -1197.27 2183.71 -139.254 0 0 0 0.5 
155 1 1 2.00242 3.42723 7.63351 32 0 0 -145.809 -1.88857 -1.54202 343.438 -95.0569 -85.6495 0 0 0 0.5 
310 1 1 2.30698 0.330654 7.36337 117 1 0 -433.98 -1.36228 -5.58329 -956.43 976.321 432.865 0 0 0 0.5 
544 2 2 4.35684 2.61768 6.36225 -21 0 0 -269.147 15.4422 -13.462 -848.153 -218.962 -563.003 0 0 0 0.5 
910 2 2 3.95086 3.58052 7.77853 -63 0 1 -159.947 11.0154 -19.013 -792.513 106.646 -186.747 0 0 0 0.5 
977 2 2 2.52205 2.75264 7.07401 172 1 -1 -217.54 -5.63607 17.3223 -2787.79 1205.72 129.757 0 0 0 0.5 
336 1 1 0.603651 2.63388 6.76558 95 0 0 -225.722 15.0208 22.8883 -96.4587 -595.301 17.5074 0 0 0 0.5 
479 1 1 4.84829 3.93582 7.07294 84 0 0 -96.6967 17.59 -19.4339 -1815.69 2635.9 718.269 0 0 0 0.5 
2 1 1 2.28661 1.05815 6.96965 -68 0 0 -347.995 3.93732 -12.8123 516.838 488.78 3052.46 0 0 0 0.5 
121 1 1 0.349334 1.28847 6.12901 277 1 -1 -332.327 4.07939 22.5799 244.476 495.815 -1249.85 0 0 0 0.5 
415 1 1 4.44835 4.7818 6.02918 -7 0 -1 -28.5065 -4.72443 13.8146 -1162.92 2359.37 722.936 0 0 0 0.5 
954 2 2 4.33176 0.286952 7.04011 227 1 -1 -442.063 -24.3538 -3.26974 2484 -2049.54 389.544 0 0 0 0.5 
102 1 1 3.59196 2.04377 6.63419 -30 0 -1 -265.731 -2.13344 7.32575 -1563.01 -1655.58 -1706.43 0 0 0 0.5 
270 1 1 2.17024 1.11645 6.05906 -122 0 1 -321.908 -23.9121 28.4952 -3627.06 3783.9 -4223.95 0 0 0 0.5 
552 2 2 3.87053 4.37713 6.70983 72 0 -1 -60.4387 12.5262 6.75374 347.76 -363.112 -279.072 0 0 0 0.5 
510 2 2 3.17249 2.61677 6.81956 -67 0 -1 -218.858 11.2309 2.84907 1202.93 1706.37 874.755 0 0 0 0.5 
22 1 1 2.99791 1.589 7.96157 192 1 -1 -322.825 -10.1542 -2.42057 -4518.41 2491.64 -1019.79 0 0 0 0.5 
611 2 2 4.13262 3.60327 6.43914 -51 0 0 -101.492 -25.0712 11.2934 606.329 -95.8694 -144.404 0 0 0 0.5 
671 2 2 0.381111 3.82573 7.20181 -31 0 0 -138.077 -2.44949 -10.2532 122.66 -321.174 -1030.87 0 0 0 0.5 
278 1 1 4.22155 1.65994 6.82983 244 1 -1 -300.623 -14.5715 -7.29802 149.899 757.077 619.396 0 0 0 0.5 
55 1 1 2.76753 0.53181 6.47526 166 1 0 -406.129 -12.6613 -11.0001 1553.01 -3735.98 2632.25 0 0 0 0.5 
441 1 1 3.30857 1.2928 7.18185 33 0 0 -342.666 4.33292 -7.74474 -706.857 -194.268 -612.519 0 0 0 0.5 
929 2 2 4.34341 2.54005 7.24456 -26 0 1 -237.399 11.4372 -9.10806 468.45 -519.96 -46.0787 0 0 0 0.5 
740 2 2 3.15884 1.28892 6.21067 -94 0 0 -362.997 8.30031 3.07278 -157.87 2994.96 1695.86 0 0 0 0.5 
348 1 1 2.9239 3.69576 7.66267 -35 0 0 -149.035 20.4552 -18.0479 585.201 -2968.08 -1025.52 0 0 0 0.5 
319 1 1 4.63229 0.450817 7.86689 46 1 -1 -483.968 21.236 23.8936 2539.11 -2366.59 456.654 0 0 0 0.5 
878 2 2 3.00873 4.60295 7.32946 160 0 0 14.9565 -32.7978 -8.00768 178.923 1153.44 -576.016 0 0 0 0.5 
241 1 1 4.36591 1.86052 7.76009 356 1 1 -307.906 -3.42828 -10.4515 365.171 -261.389 460.597 0 0 0 0.5 
819 2 2 1.63402 4.75607 7.37087 -60 0 0 33.7729 -15.5635 -3.92045 335.274 674.502 1296.73 0 0 0 0.5 
987 2 2 3.21036 2.80741 7.67161 230 1 0 -210.593 14.1888 8.74141 817.871 -144.298 -310.136 0 0 0 0.5 
743 2 2 0.546713 4.63244 6.5744 -72 0 0 -38.8941 -3.75301 -28.5922 1534.93 -1419.44 -751.631 0 0 0 0.5 
869 2 2 3.08606 0.422186 7.61026 15 1 0 -416.982 5.81496 15.6778 -636.824 -1304.99 136.402 0 0 0 0.5 
486 1 1 1.56346 4.38791 6.58977 260 1 1 -54.0435 -2.56053 -2.94317 -279.974 -517.035 -651.603 0 0 0 0.5 
331 1 1 3.83094 4.87283 7.42401 -14 0 -1 10.692 10.2602 18.1408 3406.51 -1612.78 -1260.62 0 0 0 0.5 
470 1 1 4.93222 1.55113 6.24243 135 1 -1 -315.307 -4.52895 -29.9561 486.449 -49.6991 -306.791 0 0 0 0.5 
573 2 2 2.33073 0.980054 8.33838 -136 0 0 -394.302 -2.17288 -8.81162 1501.13 -1804.29 -2088.37 0 0 0 0.5 
694 2 2 1.44009 0.674968 8.12471 -244 0 0 -432.815 -6.63877 -13.5217 298.082 834.579 -716.371 0 0 0 0.5 
509 2 2 0.308143 1.89847 8.98924 -128 0 -1 -327.218 4.84217 -11.2683 -481.918 486.862 215.476 0 0 0 0.5 
173 1 1 1.63221 1.17826 8.95568 215 1 0 -362.884 7.11274 5.39368 2512.09 1231.5 -339.789 0 0 0 0.5 
98 1 1 2.22354 2.54099 9.53694 -61 0 -1 -269.182 18.0652 -9.82402 -589.958 428.82 605.696 0 0 0 0.5 
201 1 1 4.59834 3.4165 8.41526 -86 0 0 -176.736 20.6165 -6.63334 1475.36 -322.759 81.2244 0 0 0 0.5 
959 2 2 0.726529 2.07716 8.03528 198 1 0 -270.52 20.6788 1.58477 440.066 358.754 -288.023 0 0 0 0.5 
147 1 1 2.25193 1.7438 8.50835 -136 0 -1 -315.417 -3.03367 -13.1207 -2343.67 2447.6 1776.18 0 0 0 0.5 
736 2 2 2.10118 0.203597 8.26828 -279 0 1 -490.401 -9.36839 -5.3879 -1559.56 1080.05 1391.1 0 0 0 0.5 
316 1 1 2.37608 0.477444 9.43804 -158 0 -1 -491.573 12.6617 -3.06258 517.164 1701.32 -17.3557 0 0 0 0.5 
809 2 2 0.160937 0.746487 8.87461 220 1 -1 -441.962 5.9339 -18.0301 139.253 -18.8275 -106.054 0 0 0 0.5 
930 2 2 3.30673 2.54018 9.3411 -64 0 -1 -254.757 5.02353 19.1765 -3352.34 3945.38 27.843 0 0 0 0.5 
980 2 2 4.14472 3.04219 9.39689 205 1 1 -252.589 0.949203 17.2444 4793.2 -3015.92 789.421 0 0 0 0.5 
955 2 2 2.41961 3.58496 9.00742 7 0 1 -146.198 3.9109 13.1346 1310.55 -565.583 -1209.94 0 0 0 0.5 
16 1 1 0.935829 1.40429 8.53231 -146 0 0 -323.864 -13.4819 5.62871 -3974.31 2509.78 -489.275 0 0 0 0.5 
408 1 1 3.3218 2.43274 8.43155 -42 0 -1 -251.873 17.1881 5.17585 -972.094 2153.67 -152.754 0 0 0 0.5 
581 2 2 1.67656 3.77986 9.26764 -33 0 0 -109.922 -2.13406 6.04216 -1418.77 466.634 1573.91 0 0 0 0.5 
899 2 2 0.969038 1.50668 9.58853 -162 0 -1 -357.32 3.48718 20.3102 -1292.36 745.247 -531.52 0 0 0 0.5 
868 2 2 1.70822 1.07808 9.95292 -108 0 1 -381.944 2.01483 14.6169 1255.84 -1223.07 -598.545 0 0 0 0.5 
163 1 1 0.270598 2.30016 9.75237 221 1 0 -256.201 -7.04732 29.8301 2431.92 -1513.32 1036.46 0 0 0 0.5 
717 2 2 1.66715 0.519197 9.17018 -116 0 0 -454.056 -18.7396 -7.41667 -3688.77 349.771 637.853 0 0 0 0.5 
388 1 1 3.88083 0.34762 8.80188 -222 0 0 -492.003 -1.59223 19.6006 -188.578 -862.271 420.658 0 0 0 0.5 
321 1 1 3.40698 3.47555 9.51084 -21 0 -1 -169.738 20.2781 18.7177 -1985.47 781.54 -300.677 0 0 0 0.5 
621 2 2 4.49374 4.55598 8.6658 0 0 0 -36.5803 5.14786 -32.4781 380.979 -274.198 280.11 0 0 0 0.5 
502 2 2 2.72589 3.70498 9.83963 -153 0 0 -163.295 20.6798 11.055 -1203.93 1684.77 118.516 0 0 0 0.5 
349 1 1 2.22937 4.56713 9.95156 83 0 0 -8.18018 -32.9557 9.28647 -611.577 1418.43 430.203 0 0 0 0.5 
433 1 1 1.43759 4.36333 8.27533 265 1 -1 -87.7051 4.98967 6.15438 1546.15 -407.241 -663.725 0 0 0 0.5 
630 2 2 4.88426 0.331139 9.56326 120 1 0 -482.805 -16.4526 5.64321 -16.6238 -889.161 962.106 0 0 0 0.5 
550 2 2 3.40886 4.63039 8.89895 49 0 0 1.60746 -11.465 -38.7087 1269.11 -505.228 -678.679 0 0 0 0.5 
423 1 1 2.80452 4.48726 9.44383 -288 -1 0 5.10875 -14.9752 -13.4014 164.186 1539.51 -1322.02 0 0 0 0.5 
391 1 1 0.635391 3.0933 8.52356 -10 0 -1 -142.84 -23.6142 -0.79075 -95.231 -79.3899 164.413 0 0 0 0.5 
537 2 2 3.11339 0.661369 9.17193 164 1 0 -475.008 17.5577 30.1673 664.89 -657.772 1686.85 0 0 0 0.5 
252 1 1 4.06108 4.61365 9.42877 216 1 0 -8.80592 -3.72422 7.33703 279.653 -747.618 519.797 0 0 0 0.5 
726 2 2 3.63798 0.92893 8.27799 175 1 -1 -443.994 7.82458 -11.568 4871.57 -4393.12 -898.596 0 0 0 0.5 
305 1 1 0.574514 4.59066 8.64582 65 0 -1 -63.3424 -1.48219 -2.20763 147.49 -1939.67 1124.02 0 0 0 0.5 
157 1 1 3.87836 2.10873 9.97259 -77 0 0 -302.837 -2.15769 4.6421 944.681 -397.642 1556.91 0 0 0 0.5 
167 1 1 2.7931 0.104934 8.54889 215 1 -1 -505.774 33.8959 27.8704 2077.16 525.051 293.929 0 0 0 0.5 
503 2 2 2.89708 1.35324 9.89203 47 1 -1 -331.625 -14.8263 5.19563 1880.07 -2090.37 285.19 0 0 0 0.5 
108 1 1 3.15277 1.29756 8.7744 -193 0 0 -395.984 24.9171 12.0909 1013.45 -749.792 371.552 0 0 0 0.5 
31 1 1 3.72404 1.87122 8.13119 199 1 0 -299.575 -4.19046 -0.00222311 -185.152 -1583.29 -858.649 0 0 0 0.5 
767 2 2 2.62311 4.35814 8.24105 -111 0 0 -69.1477 -15.0919 -3.29037 -672.058 1504.16 2645.36 0 0 0 0.5 
483 1 1 2.64716 1.72466 9.11161 203 1 -1 -346.452 22.7227 28.1751 -1715.62 1648.48 1677.43 0 0 0 0.5 
978 2 2 0.873822 3.95432 9.13743 24 0 -1 -103.32 -14.654 9.5251 -418.453 -820.602 -583.273 0 0 0 0.5 
880 2 2 0.164399 4.14379 9.69535 -2 0 0 -92.171 -2.67488 -6.32277 303.827 -106.824 3192.48 0 0 0 0.5 
140 1 1 3.84868 2.04323 9.03542 144 1 0 -322.431 -11.0889 -4.70727 1685.53 -3077.34 491.877 0 0 0 0.5 
360 1 1 2.61249 2.5755 8.7149 -265 -1 0 -247.938 14.7556 13.7859 -1509.5 1154.04 -1145.72 0 0 0 0.5 
541 2 2 3.0505 3.39092 8.54832 239 1 -1 -165.521 12.0937 -7.56545 -1482.3 -1996.86 -1630.9 0 0 0 0.5 
249 1 1 3.83691 3.43843 8.74294 -94 0 1 -180.462 20.0342 -6.1112 714.846 1094.25 -983.057 0 0 0 0.5 
790 2 2 1.08825 4.96423 9.54134 -235 -1 0 78.5748 -35.7767 -1.83076 1292.52 -1482.11 -141.597 0 0 0 0.5 
687 2 2 4.58606 1.98973 9.40359 200 1 0 -348.677 26.041 2.86488 4729.68 145.738 -442.485 0 0 0 0.5 
577 2 2 4.61028 2.54129 8.35105 229 1 -1 -248.987 -6.281 -2.28025 -431.393 1101.87 -303.36 0 0 0 0.5 
521 2 2 4.69726 1.08559 9.37316 -111 0 0 -423.986 14.0809 -14.5441 -138.976 205.136 -253.282 0 0 0 0.5 
491 1 1 4.83312 0.162815 8.69214 118 1 -1 -517.287 0.888023 9.49081 1783.88 -1114.83 104.145 0 0 0 0.5 
298 1 1 4.87062 1.64182 8.43859 -158 0 -1 -339.335 -17.4825 17.5709 709.849 -1517.72 701.903 0 0 0 0.5 
489 1 1 -0.0403741 7.54176 0.689198 107 0 -1 251.243 -5.17355 -19.4635 424.339 426.222 446.08 0 0 0 0.5 
128 1 1 1.87336 9.53019 0.632478 90 0 1 446.311 -10.3411 10.2627 -1257.62 -131.064 973.279 0 0 0 0.5 
103 1 1 0.716737 8.55169 0.155425 36 0 1 320.465 15.6516 11.9364 1829.03 1432.63 -1170.98 0 0 0 0.5 
453 1 1 3.31556 7.19409 0.129451 74 0 0 244.614 4.24422 15.5651 -2770.48 936.96 -2475.6 0 0 0 0.5 
411 1 1 0.553872 6.49001 0.136711 0 0 0 169.579 -1.95611 29.549 -135.256 588.067 150.111 0 0 0 0.5 
420 1 1 -0.0611141 8.49877 0.717052 -46 -1 1 332.837 10.7611 -3.45671 -840.124 -531.399 412.321 0 0 0 0.5 
696 2 2 4.36921 7.30459 0.221639 46 0 0 218.024 13.8938 12.4806 -608.315 2965.57 298.663 0 0 0 0.5 
274 1 1 2.76918 6.4406 0.633574 -261 -1 -1 165.266 4.69443 -8.86089 -380.932 1691.25 -1022.35 0 0 0 0.5 
925 2 2 4.02726 9.91053 0.808442 155 0 0 491.034 -8.27627 -10.3725 -287.402 589.243 461.773 0 0 0 0.5 
46 1 1 3.01624 7.2056 1.66751 96 0 1 175.583 18.0142 0.589813 1903.45 -1897.83 -526.871 0 0 0 0.5 
545 2 2 3.82205 6.56703 0.643083 136 0 -1 137.185 11.4177 3.42282 1979.89 -2390.38 510.741 0 0 0 0.5 
768 2 2 3.27422 5.95547 1.43736 -142 0 -1 72.6113 -12.2 -1.28343 547.959 -2519.8 -641.474 0 0 0 0.5 
455 1 1 4.52796 8.18454 1.91771 40 0 0 284.662 15.7309 25.2762 0 0 0 0 0 0 0.5 
129 1 1 4.04134 5.90819 1.04175 -256 -1 0 98.6704 -13.8271 -2.53804 846.649 -1046.18 1824.59 0 0 0 0.5 
268 1 1 2.67815 5.18188 1.41112 37 0 0 -29.0315 25.3049 4.78657 105.289 757.815 -1246.68 0 0 0 0.5 
569 2 2 0.270853 9.48531 0.8285 252 0 0 454.673 -15.8625 13.4821 -321.391 679.314 -323.887 0 0 0 0.5 
401 1 1 2.7073 7.80545 1.80511 66 0 0 231.086 27.9938 15.0032 2701 -1063.31 -2491.96 0 0 0 0.5 
571 2 2 2.90274 6.478 1.39116 60 0 1 93.3345 16.5571 7.25061 2107.53 345.395 -301.237 0 0 0 0.5 
997 2 2 2.72113 8.68228 1.93868 63 0 1 371.838 -1.49349 5.73452 -4940.05 1772.43 1279.7 0 0 0 0.5 
181 1 1 1.13536 9.28369 1.10063 156 0 0 461.819 -14.8688 21.3924 -745.381 -384.933 700.325 0 0 0 0.5 
226 1 1 2.99052 5.6294 0.636724 -212 -1 1 61.4058 -12.9025 11.8837 113.626 535.317 -1753.78 0 0 0 0.5 
637 2 2 0.54665 8.50596 1.87947 -143 -1 2 365.431 0.654364 -4.19699 -1304.24 797.769 777.012 0 0 0 0.5 
664 2 2 3.46454 9.16294 0.354059 135 0 0 428.93 -3.90659 -14.2416 -1259.35 1643.59 -351.614 0 0 0 0.5 
538 2 2 3.48354 8.60827 1.91073 232 0 1 308.007 12.3012 -29.3025 5686.8 -547.568 -205.412 0 0 0 0.5 
202 1 1 2.63497 9.63964 0.419176 124 0 0 445.724 3.79592 -0.919096 357.69 -1605.18 1556.79 0 0 0 0.5 
886 2 2 1.08465 6.60519 0.976513 369 1 0 173.595 10.5581 8.97967 -2449.57 2231.25 -411.212 0 0 0 0.5 