ITEM: TIMESTEP
17000
ITEM: NUMBER OF ATOMS
1000
ITEM: BOX BOUNDS xy xz yz pp pp pp
0 10 2.27374e-13
0 10 0
-0 10 0
ITEM: ATOMS id type type x y z ix iy iz vx vy vz fx fy fz omegax omegay omegaz radius 
264 1 1 3.18741 3.69927 0.25561 -5 0 0 -138.003 7.89448 -1.88248 105.472 1520.61 -390.834 0 0 0 0.5 
559 2 2 0.188402 1.64684 0.220409 -64 0 1 -306.406 8.78597 -6.29394 -68.4714 159.5 -974.069 0 0 0 0.5 
886 2 2 0.948841 2.22219 1.06293 99 1 0 -256.304 9.39314 9.73046 1378.28 -1790.84 1767.06 0 0 0 0.5 
335 1 1 4.35691 2.10105 0.84482 -34 0 1 -259.989 1.89017 -4.50206 -1173.07 1071.85 -1222.54 0 0 0 0.5 
606 2 2 1.22633 0.1649 1.87374 -43 0 0 -469.925 1.17223 -23.4146 -83.2004 -3.94406 -138.344 0 0 0 0.5 
510 2 2 0.648279 2.94281 0.819159 -23 0 0 -192.86 5.36145 21.3917 1005.09 685.273 -468.131 0 0 0 0.5 
77 1 1 0.272265 0.882613 1.48779 59 1 1 -395.496 8.09579 1.79148 4600.06 -4804.48 177.023 0 0 0 0.5 
773 2 2 3.38408 1.56726 1.22963 -17 0 0 -296.461 -11.9462 -25.2923 -4760.19 4299.95 -283.318 0 0 0 0.5 
329 1 1 2.38754 1.71224 0.0851639 -36 0 1 -328.489 10.5192 8.32504 -652.546 944.127 -259.932 0 0 0 0.5 
490 1 1 1.31827 1.44916 1.10779 -52 0 0 -294.769 -18.2134 -2.21994 679.871 -516.038 -36.0684 0 0 0 0.5 
507 2 2 1.52711 1.53485 0.0939348 -39 0 0 -334.357 -17.9844 -7.76228 -934.512 -1323.16 972.942 0 0 0 0.5 
9 1 1 0.294899 0.503328 0.443925 89 1 0 -401.148 8.43748 2.20235 828.416 114.498 -659.67 0 0 0 0.5 
533 2 2 1.4459 2.22695 0.32751 103 1 0 -254.766 17.639 4.26866 2289.51 566.875 -99.7176 0 0 0 0.5 
368 1 1 1.77699 3.97041 1.03811 -19 0 0 -82.9201 4.95802 24.0796 -716.797 -889.557 -561.062 0 0 0 0.5 
661 2 2 0.749441 2.48326 0.111201 -16 0 0 -259.472 0.114309 -5.04065 -918.925 -43.3342 1078.27 0 0 0 0.5 
531 2 2 2.42528 3.65194 0.373453 -23 0 0 -109.901 -16.3079 7.61953 -3430.48 -278.171 451.111 0 0 0 0.5 
871 2 2 4.34418 4.61598 0.23742 -10 0 0 -29.7168 -1.99501 2.29802 -1384.69 874.778 856.693 0 0 0 0.5 
670 2 2 1.56649 3.05046 0.885436 -4 0 1 -177.655 0.497426 -8.87392 305.331 1161.39 -9.10958 0 0 0 0.5 
882 2 2 1.72142 2.8999 1.8386 -13 0 0 -195.462 8.968 -4.27326 -621.717 1537.99 -176.14 0 0 0 0.5 
27 1 1 0.194196 1.98816 0.992868 -35 0 1 -262.694 -26.6051 -15.0132 148.203 -1003.8 2162.62 0 0 0 0.5 
267 1 1 1.23104 0.717383 0.435748 -65 0 1 -403.641 -3.68226 21.0239 -609.35 930.292 -432.533 0 0 0 0.5 
562 2 2 4.33691 0.120545 1.05991 61 1 1 -468.852 -8.71312 6.74523 -1518.59 399.324 -537.472 0 0 0 0.5 
820 2 2 2.41644 1.22023 1.01254 -32 0 0 -325.534 -2.51046 2.57962 673.081 62.8873 -1493.84 0 0 0 0.5 
32 1 1 2.24109 1.32902 1.78282 93 1 0 -317.137 -14.5006 5.05654 -5260.65 1256.78 -2598.45 0 0 0 0.5 
762 2 2 2.30879 2.38828 0.706264 -55 0 0 -256.656 13.3866 10.5735 939.882 -81.7506 2543.2 0 0 0 0.5 
574 2 2 2.35033 3.71095 1.6309 -5 0 1 -95.4668 -20.6606 31.3584 -2464.06 1743.39 2233.27 0 0 0 0.5 
513 2 2 0.167915 1.63412 1.94834 -30 0 0 -292.662 -8.35349 5.061 208.405 1954.18 1221.55 0 0 0 0.5 
66 1 1 2.76399 4.63918 0.962865 -13 0 1 -67.5605 17.6063 13.8724 -1095 2199.3 -478.658 0 0 0 0.5 
119 1 1 4.1659 4.06961 1.10646 -8 0 0 -78.1716 -15.802 -9.38781 55.8634 -232.102 -84.8011 0 0 0 0.5 
52 1 1 2.1447 0.780669 0.354643 103 1 1 -399.136 -8.50885 13.5267 558.873 1694.67 -743.767 0 0 0 0.5 
745 2 2 3.12847 4.0105 1.0475 1 0 1 -84.6886 0.591997 20.3173 989.285 -1486.72 -51.1552 0 0 0 0.5 
755 2 2 0.131584 2.50055 1.64201 -35 0 0 -208.685 4.5118 -4.73296 127.417 -209.356 -454.222 0 0 0 0.5 
576 2 2 4.3459 4.70933 1.72969 46 0 0 -0.391505 -6.15418 -25.7413 -1537.47 900.457 -1491.12 0 0 0 0.5 
473 1 1 1.36765 4.95453 1.18877 1 0 0 -17.6576 10.6273 13.9243 -466.101 -929.41 -1398.19 0 0 0 0.5 
760 2 2 3.98139 1.40915 0.214866 -27 0 1 -357.951 32.4661 -14.2189 1751.41 -611.316 3685.22 0 0 0 0.5 
293 1 1 4.14912 0.951772 1.07758 -52 0 0 -396.644 34.5394 10.7254 4138.28 -3415.42 -1435.49 0 0 0 0.5 
826 2 2 3.41484 2.43819 0.130127 81 1 0 -254.015 8.71044 -6.37337 1143.62 -79.9637 -48.3523 0 0 0 0.5 
416 1 1 3.21874 0.657478 1.23519 -29 0 0 -400.802 13.6706 3.83734 -404.026 1578.72 1404.59 0 0 0 0.5 
425 1 1 4.0249 0.420968 1.92239 -47 0 0 -443.914 -2.85663 17.3304 67.53 -2502.38 -79.5256 0 0 0 0.5 
307 1 1 3.2279 2.42269 1.01941 74 1 0 -242.565 -2.86629 0.220315 601.466 -1416.18 -204.697 0 0 0 0.5 
112 1 1 1.31041 4.11979 1.93151 -4 0 0 -98.548 8.90775 -0.901804 489.046 425.036 -532.951 0 0 0 0.5 
579 2 2 0.0844907 3.40004 1.45025 -18 0 0 -174.242 10.9139 -14.6942 -1214.34 820.346 530.215 0 0 0 0.5 
538 2 2 0.253896 3.48798 0.359624 98 1 0 -152.572 8.93131 12.961 1644.13 -1500.1 -1902.71 0 0 0 0.5 
770 2 2 2.91147 3.14571 1.14861 -30 0 0 -181.415 1.94848 6.70318 1746.36 1536.86 -127.092 0 0 0 0.5 
161 1 1 1.09948 4.24576 0.537495 -4 0 1 -83.6653 4.30396 3.67366 -5.26345 1258.72 636.862 0 0 0 0.5 
487 1 1 4.03378 1.93661 1.91069 -46 0 0 -270.369 -3.77122 -37.3874 490.43 -1373.96 -1202.85 0 0 0 0.5 
743 2 2 3.79471 3.33447 0.510341 -23 0 0 -156.35 -3.0424 5.86015 2265.75 -1322.36 754.333 0 0 0 0.5 
1000 2 2 3.99798 0.57318 0.132702 -41 0 0 -448.253 8.19788 0.516469 -409.604 331.68 1243.56 0 0 0 0.5 
319 1 1 3.22575 3.73073 1.89392 -3 0 0 -98.055 -9.18613 18.1323 -2870.47 -263.043 1062.54 0 0 0 0.5 
779 2 2 -0.0333448 4.68386 1.43601 -10 0 0 -92.2844 22.5019 -19.7054 -438.509 -92.7066 268.056 0 0 0 0.5 
106 1 1 3.70535 3.08212 1.69732 -19 0 0 -155.191 -4.64023 -7.14474 1765.81 -2283.95 -577.309 0 0 0 0.5 
901 2 2 4.84451 1.65552 1.35299 -36 0 0 -289.085 -8.42671 3.9503 112.349 451.877 -1103.7 0 0 0 0.5 
905 2 2 4.83666 4.00046 1.84406 -14 0 0 -85.0495 -15.4032 1.79913 559.917 152.216 1542.63 0 0 0 0.5 
975 2 2 1.01735 1.04058 3.97956 65 1 1 -359.947 -11.5974 21.3475 -2429.46 1043.78 -651.332 0 0 0 0.5 
784 2 2 2.4383 0.570051 3.23191 -44 0 1 -432.613 -11.2484 10.6712 297.357 -318.129 236.091 0 0 0 0.5 
298 1 1 2.16643 3.37214 3.47423 -51 0 0 -148.036 9.00522 -0.991004 181.865 -690.17 1634.99 0 0 0 0.5 
659 2 2 1.54979 1.65619 2.80419 -18 0 0 -322.296 8.16281 -8.98012 3641.59 -83.727 1994.09 0 0 0 0.5 
193 1 1 2.13152 0.176554 2.20965 61 1 0 -465.854 -8.23792 -26.7274 -1875.22 -1896.32 -155.994 0 0 0 0.5 
583 2 2 2.44896 2.50886 3.63502 -26 0 1 -205.256 -18.8456 16.4005 -794.896 -403.164 -336.183 0 0 0 0.5 
774 2 2 0.416746 0.176358 2.39179 -33 0 1 -463.746 -3.15888 -4.41848 264.299 -275.702 120.733 0 0 0 0.5 
392 1 1 4.17017 4.37954 2.79434 -14 0 0 -23.2028 -6.17379 -5.37362 -1118.06 1745.31 -1201.06 0 0 0 0.5 
623 2 2 0.613745 1.93243 2.78835 -23 0 1 -255.671 -12.6078 -16.1861 -2496.18 -164.198 -483.076 0 0 0 0.5 
759 2 2 0.784046 2.68326 2.18455 -19 0 0 -205.751 23.143 -5.26613 451.42 -581.178 1473.93 0 0 0 0.5 
157 1 1 1.95335 2.61915 2.79996 -11 0 0 -198.16 -7.18373 12.8288 -75.4765 -63.6353 620.462 0 0 0 0.5 
149 1 1 2.24039 4.16876 3.96458 -5 0 0 -62.2872 11.8838 -5.75114 -108.271 369.897 -453.727 0 0 0 0.5 
761 2 2 2.17538 0.243694 3.86525 -55 0 0 -501.948 -5.2618 2.22363 -413.62 244.923 -287.465 0 0 0 0.5 
379 1 1 1.14074 0.177465 3.26211 -36 0 0 -458.878 -3.65978 -20.8836 1294.41 -725.772 345.023 0 0 0 0.5 
72 1 1 0.420554 1.35823 3.52254 54 1 0 -351.864 11.9479 27.2177 -1106.5 1489.76 -2294.78 0 0 0 0.5 
15 1 1 2.08439 0.945814 2.58647 -37 0 1 -375.608 -7.58847 -21.995 -115.294 36.0134 691.743 0 0 0 0.5 
373 1 1 0.342199 0.586961 3.1172 -31 0 0 -447.303 5.70149 3.24539 -1358.62 1270.4 791.957 0 0 0 0.5 
555 2 2 2.78582 3.50435 2.72412 -9 0 0 -110.151 -2.81539 17.5479 548.241 950.773 806.886 0 0 0 0.5 
807 2 2 0.842194 3.04129 3.08989 -17 0 0 -172.92 -8.24754 9.30677 26.6351 -156.68 189.089 0 0 0 0.5 
391 1 1 0.178112 2.29681 3.22779 -7 0 0 -231.322 -7.03178 -6.76998 1206.07 189.041 469.089 0 0 0 0.5 
169 1 1 3.6272 1.58659 3.93889 58 1 0 -354.643 13.6358 -8.59836 274.247 -2248.94 -935.822 0 0 0 0.5 
597 2 2 1.1041 1.7951 2.00806 -28 0 1 -272.197 -1.36494 -16.9603 -272.419 234.836 -1915.8 0 0 0 0.5 
631 2 2 3.30059 4.60303 2.0233 10 0 0 -9.42882 8.42235 -1.8644 0.29136 3.39574 0.503675 0 0 0 0.5 
731 2 2 1.78066 3.54645 2.60521 137 1 0 -119.514 3.6205 9.17738 -684.102 776.708 -1434.11 0 0 0 0.5 
961 2 2 4.4189 4.07389 3.42167 3 0 0 -67.8293 7.71659 24.4976 826.581 -1798.96 -564.776 0 0 0 0.5 
637 2 2 0.944917 2.07967 3.92161 -23 0 1 -314.855 8.26615 -9.39491 3424.8 -856.597 -1788.72 0 0 0 0.5 
506 2 2 3.69753 1.13232 2.00854 -31 0 0 -401.611 33.2658 12.9795 2324.76 475.513 1361.27 0 0 0 0.5 
919 2 2 2.04478 2.1242 2.02491 -13 0 0 -257.302 -7.01864 6.5393 -268.682 -543.936 203.784 0 0 0 0.5 
937 2 2 0.0670661 3.95951 2.12891 -11 0 0 -123.242 19.9822 -14.5328 -952.539 1038.56 177.901 0 0 0 0.5 
823 2 2 3.11953 0.78696 2.96793 88 1 -1 -413.347 18.8008 12.3177 1895.81 -1454.64 -1912.88 0 0 0 0.5 
725 2 2 4.30329 2.61106 3.86788 -11 0 0 -216.683 7.69331 7.17998 -963.878 340.665 552.832 0 0 0 0.5 
697 2 2 0.755589 3.63758 2.53614 -23 0 0 -115.704 3.8485 -31.1927 534.383 -898.193 740.496 0 0 0 0.5 
104 1 1 1.0485 4.97127 3.65469 -2 0 1 -0.500408 -4.07916 25.5208 2206.37 -367.224 -619.481 0 0 0 0.5 
974 2 2 3.376 4.19412 3.00457 143 1 1 -28.3286 -21.774 1.35866 -1379.34 -1532.58 -161.847 0 0 0 0.5 
832 2 2 4.04627 2.44518 2.97073 -22 0 0 -248.048 2.5898 -13.6379 2002.95 -2981.94 -610.69 0 0 0 0.5 
95 1 1 1.95017 4.70995 2.69448 -6 0 0 7.14216 -13.4989 12.0367 4.03102 20.1723 40.8338 0 0 0 0.5 
854 2 2 1.39426 4.17944 3.6709 -12 0 0 -51.8394 -19.3423 -16.1369 -574.69 -1574.05 -448.613 0 0 0 0.5 
962 2 2 4.05609 0.414831 3.17711 -15 0 0 -509.211 15.7085 -15.9914 0 0 0 0 0 0 0.5 
858 2 2 0.418398 4.24521 3.08977 -3 0 0 -83.059 17.1024 -0.793015 -103.801 185.859 303.446 0 0 0 0.5 
100 1 1 4.69661 3.59795 2.76229 -7 0 0 -87.4019 -5.94305 8.92834 -2503.36 -651.947 -853.309 0 0 0 0.5 
62 1 1 2.73104 2.89718 2.08274 -22 0 0 -183.102 -8.28965 4.06509 -2690.84 4076.4 -834.165 0 0 0 0.5 
371 1 1 3.46588 2.36856 2.17429 -20 0 0 -261.97 -3.68147 -10.5077 2445.77 -1184 597.795 0 0 0 0.5 
354 1 1 2.86687 4.89059 3.17516 -13 0 1 -9.99946 11.2989 -17.7277 202.49 211.344 -447.317 0 0 0 0.5 
514 2 2 2.8556 1.5861 3.33013 -27 0 0 -367.324 10.7178 4.53895 -615.901 2648.32 303.937 0 0 0 0.5 
619 2 2 3.10736 2.47243 2.99783 -13 0 1 -226.072 -3.38684 10.3795 -1242.07 -774.64 27.2481 0 0 0 0.5 
232 1 1 2.9676 1.08668 2.10558 -21 0 1 -407.299 9.45599 0.15271 3090.3 -735.259 2178.7 0 0 0 0.5 
585 2 2 3.02685 0.189471 2.3152 -32 0 1 -486.051 5.69718 -28.6509 2110.92 100.915 861.496 0 0 0 0.5 
266 1 1 3.72647 1.56174 2.9331 -63 0 0 -363.012 0.954027 6.40643 282.631 820.524 -18.3916 0 0 0 0.5 
517 2 2 3.80764 3.08233 3.45462 -21 0 0 -171.403 15.266 -9.48778 -2370.19 3353.95 -159.249 0 0 0 0.5 
938 2 2 3.85581 4.78443 3.60087 9 0 0 -23.8845 2.72465 -13.5597 -2229.08 2586.13 664.956 0 0 0 0.5 
828 2 2 4.07792 3.81286 2.11572 -21 0 1 -87.891 -10.5929 3.52288 -2099.25 -422.202 -714.873 0 0 0 0.5 
600 2 2 4.67419 3.01444 2.09633 -10 0 1 -148.012 -30.4315 -8.86898 -1090.03 3401.02 1860.92 0 0 0 0.5 
509 2 2 4.66072 3.56165 3.87673 -33 0 0 -126.943 -5.02156 40.4606 1909.1 -2514.68 -143.029 0 0 0 0.5 
138 1 1 4.92151 2.06269 2.22422 -17 0 1 -297.865 14.19 -12.0047 -294.568 -90.9648 55.5138 0 0 0 0.5 
493 1 1 4.94606 2.14438 3.5968 77 1 0 -254.18 -4.05444 16.4212 -484.06 279.604 2040.84 0 0 0 0.5 
658 2 2 1.64303 2.95599 4.18128 -8 0 0 -147.404 -22.8938 11.2451 -1455.66 1131.11 -1370.69 0 0 0 0.5 
717 2 2 2.25173 3.7359 5.76163 -32 0 0 -74.3816 -15.3138 0.944962 -441.786 271.898 -1295.14 0 0 0 0.5 
951 2 2 2.40262 2.66475 4.46053 -13 0 0 -165.959 -19.1458 19.7344 1248.16 -1017.56 1186.2 0 0 0 0.5 
548 2 2 2.04442 1.26518 4.99897 -41 0 0 -367.32 4.15685 9.85109 -645.208 -1328.4 967.8 0 0 0 0.5 
18 1 1 4.03129 4.37394 5.25098 -11 0 0 -71.0367 -5.67727 4.63607 844.745 -1775.74 -1435.3 0 0 0 0.5 
234 1 1 2.03418 2.11086 5.42906 -36 0 0 -315.223 21.4048 -11.2335 1570.54 1887 -575.941 0 0 0 0.5 
769 2 2 2.58788 4.69184 5.60643 21 0 0 2.70084 -5.30032 -20.215 -1109.59 1641.16 -915.265 0 0 0 0.5 
277 1 1 0.205095 0.68517 5.06115 -75 0 1 -438.141 -12.3917 -23.7492 2558.53 -1062.23 714.889 0 0 0 0.5 
568 2 2 0.570619 2.25812 5.03435 -25 0 0 -306.636 29.5705 -0.360218 -132.017 -143.569 451.478 0 0 0 0.5 
80 1 1 3.84381 3.4528 5.37251 -9 0 0 -154.346 11.0829 -6.3716 -1791.9 1651.32 -72.0862 0 0 0 0.5 
948 2 2 1.2471 2.11672 5.84288 78 1 0 -314.144 7.50815 -3.48511 1147.29 874.934 1539.56 0 0 0 0.5 
427 1 1 0.502607 4.08382 4.02616 0 0 0 -51.1262 -13.8879 2.16262 524.757 -300.566 -811.31 0 0 0 0.5 
17 1 1 0.315623 1.98081 5.9064 -48 0 0 -297.47 0.0782591 13.5293 -762.129 -1007.17 -620.249 0 0 0 0.5 
262 1 1 3.80817 0.908928 4.51634 -60 0 0 -387.222 -4.84861 3.75004 -1243.46 -2050.07 92.3935 0 0 0 0.5 
785 2 2 3.47973 2.46656 4.3003 105 1 0 -226.792 -15.3575 2.96506 -152.82 1873.93 569.866 0 0 0 0.5 
327 1 1 2.03781 3.65651 4.79749 -5 0 0 -110.617 -5.99771 -7.40902 1104.41 636.976 -398.179 0 0 0 0.5 
303 1 1 0.145949 1.21092 5.85787 44 1 0 -417.164 0.384979 -4.01715 38.2234 -361.828 -503.359 0 0 0 0.5 
829 2 2 4.46562 3.39942 5.91217 -1 0 0 -145.596 18.7713 10.161 1513.7 -5020.33 -2105.45 0 0 0 0.5 
418 1 1 1.82558 0.663762 4.33972 -37 0 0 -442.864 5.31262 16.9305 2077.79 131.391 3823.51 0 0 0 0.5 
748 2 2 1.7254 0.537786 5.33217 51 1 -1 -498.316 10.1496 -4.54674 -339.245 1527.16 -875.607 0 0 0 0.5 
476 1 1 4.48076 2.18785 4.55962 0 0 0 -208.039 -34.1077 -5.8883 -88.5983 -268.956 1008.19 0 0 0 0.5 
900 2 2 1.57228 1.87311 4.58577 -23 0 0 -332.851 19.9485 1.05951 -206.826 743.408 -145.65 0 0 0 0.5 
827 2 2 0.0651389 2.33398 4.16729 -18 0 0 -235.851 7.20875 -5.45804 -1499.44 -329.161 1949.62 0 0 0 0.5 
511 2 2 2.49353 2.97964 5.38777 -14 0 -1 -146.804 -27.4878 7.30945 -3599.03 -3273.57 1048.45 0 0 0 0.5 
347 1 1 4.57005 4.00266 4.71149 -2 0 0 -104.638 -9.50923 -12.5408 1016.35 1436.79 624.878 0 0 0 0.5 
523 2 2 2.72853 1.69641 4.30726 -33 0 1 -359.099 8.35246 2.37166 202.784 -606.548 477.488 0 0 0 0.5 
486 1 1 2.84086 0.832402 4.70109 51 1 1 -396.457 -20.6648 0.201292 -2014.04 5198.77 1849.75 0 0 0 0.5 
734 2 2 4.27851 2.69624 5.26329 -20 0 0 -213.104 1.73332 5.80038 -278.203 -391.39 -94.7048 0 0 0 0.5 
65 1 1 3.74428 4.83674 5.62963 -1 0 0 0.428934 -2.3764 15.2427 -1483.69 1380.52 2023.64 0 0 0 0.5 
389 1 1 1.11767 3.49916 5.10001 -19 0 0 -102.275 -10.0874 0.725706 -412.21 -70.4878 135.524 0 0 0 0.5 
94 1 1 1.67402 4.67761 5.60392 -17 0 0 -1.8979 -3.13276 -15.2979 2824.73 -453.185 -495.375 0 0 0 0.5 
675 2 2 2.89459 3.76139 4.32475 -7 0 0 -93.5791 7.68545 4.32937 -100.421 9.90952 556.713 0 0 0 0.5 
708 2 2 2.8243 1.47321 5.45736 -59 0 0 -355.621 9.24863 -4.76128 414.329 -353.919 -130.827 0 0 0 0.5 
746 2 2 -0.000963728 4.36107 4.6551 3 0 0 -35.4928 -20.9689 30.3273 596.671 -1635.22 -2425.12 0 0 0 0.5 
930 2 2 3.82339 3.77474 4.14934 -11 0 0 -106.383 5.33057 4.54516 -1619.14 421.104 -382.411 0 0 0 0.5 
644 2 2 3.13585 3.07111 4.82304 119 1 0 -179.224 5.75813 28.6282 2950.97 -200.057 -689.099 0 0 0 0.5 
549 2 2 4.3076 1.41869 5.21002 -79 0 0 -349.893 -3.83819 -9.76861 -231.383 -236.168 -321.377 0 0 0 0.5 
333 1 1 0.875361 4.52055 4.83936 7 0 0 -35.305 -4.8982 -8.47505 216.593 -185.39 -233.184 0 0 0 0.5 
716 2 2 3.13955 3.98688 5.84035 -38 0 0 -72.876 -2.57155 7.27355 1111.94 -2313.09 323.045 0 0 0 0.5 
98 1 1 0.182269 3.76547 5.35101 6 0 0 -104.005 -7.00661 -5.12923 448.153 -1943.2 1919.69 0 0 0 0.5 
57 1 1 2.59363 0.274696 5.59195 59 1 0 -506.463 8.82934 -5.6019 -1311.4 3438.63 1926.98 0 0 0 0.5 
484 1 1 0.799627 4.81845 5.61529 26 0 0 44.5806 -23.739 25.3582 -3757.28 799.385 -610.605 0 0 0 0.5 
465 1 1 1.72959 4.62539 4.63364 3 0 0 -34.9793 18.0674 -8.13253 411.899 609.011 -245.221 0 0 0 0.5 
35 1 1 3.36715 0.0631296 4.36884 -58 0 1 -545.524 17.5242 -1.71682 3413.83 -733.131 -2183.88 0 0 0 0.5 
332 1 1 4.59927 0.107349 5.848 -54 0 0 -520.39 -4.2919 -7.9171 -616.656 -1553.75 -763.35 0 0 0 0.5 
564 2 2 4.60828 4.67261 4.12173 -3 0 0 -10.7827 13.8423 -18.4082 -1994.77 908.416 -1042.78 0 0 0 0.5 
543 2 2 4.92154 0.63051 5.04065 -50 0 0 -469.113 20.2835 5.36627 -670.398 1318.01 -79.9029 0 0 0 0.5 
287 1 1 0.993405 0.725106 7.16513 51 1 0 -437.881 -8.9429 18.6898 -64.4495 390.143 -682.56 0 0 0 0.5 
454 1 1 2.00711 0.475785 7.85394 65 1 0 -420.602 -4.3991 -7.97812 191.428 37.3646 704.174 0 0 0 0.5 
813 2 2 0.313889 0.511532 7.81556 88 1 0 -432.046 -24.746 0.501031 956.583 -2777.17 -994.157 0 0 0 0.5 
383 1 1 2.17264 2.81849 7.58681 -16 0 0 -224.789 1.53872 -3.00861 -420.786 21.239 -1964.3 0 0 0 0.5 
478 1 1 4.42598 4.94552 6.29114 14 0 0 17.739 1.47747 15.1339 986.509 1796.85 -856.863 0 0 0 0.5 
49 1 1 2.36968 3.95687 7.94392 8 0 0 -64.1659 -19.6114 10.644 78.2416 858.593 -463.259 0 0 0 0.5 
412 1 1 1.36536 0.237507 6.10672 -98 0 0 -516.686 9.30506 -8.85104 -55.0382 91.205 99.0302 0 0 0 0.5 
639 2 2 4.85501 4.03498 7.57241 30 0 0 -80.695 15.6781 -8.89608 2087.52 620.808 538.876 0 0 0 0.5 
741 2 2 2.30365 1.35556 7.71658 -72 0 0 -369.534 2.99817 3.3063 635.565 1513.01 -662.453 0 0 0 0.5 
213 1 1 1.90501 0.806964 6.94168 62 1 0 -447.066 24.5019 1.63933 -196.843 1473.81 749.153 0 0 0 0.5 
778 2 2 2.27346 0.199792 6.52312 -84 0 1 -504.524 6.51917 -17.8833 -1128.78 -329.18 -207.755 0 0 0 0.5 
953 2 2 0.245034 0.437389 6.20628 26 1 0 -481.381 -16.9518 11.3041 81.45 -635.866 286.408 0 0 0 0.5 
351 1 1 2.24952 3.42471 6.8838 -12 0 0 -140.656 -9.34782 -20.9233 649.838 -661.017 -243.904 0 0 0 0.5 
56 1 1 1.74484 3.92464 7.08645 -18 0 0 -140.661 16.676 30.9658 -343.607 1187.25 -821.62 0 0 0 0.5 
69 1 1 0.890693 1.94927 7.57015 -27 0 0 -353.349 9.09922 39.4007 3317.44 957.261 -2164.7 0 0 0 0.5 
924 2 2 1.18212 2.69039 7.08972 -23 0 0 -201.866 -17.3043 22.7747 -93.5542 -2931.06 1688.39 0 0 0 0.5 
806 2 2 1.68355 2.53331 6.56307 -48 0 0 -201.947 -8.19669 -9.73566 949.562 -2821.58 -1567.63 0 0 0 0.5 
67 1 1 3.35781 1.33049 7.7616 87 1 0 -383.527 -6.64976 -1.41008 681.291 785.958 3481.92 0 0 0 0.5 
498 1 1 0.593547 1.39636 6.7087 105 1 0 -415.99 26.6716 5.37439 5650.47 -2094.48 -805.104 0 0 0 0.5 
47 1 1 3.85367 2.75696 6.23693 -28 0 0 -158.748 -9.48872 12.8301 -1762.19 -1858.78 -321.765 0 0 0 0.5 
263 1 1 0.859251 3.15689 7.95684 -13 0 0 -160.533 -7.88049 11.7191 443.528 498.821 129.966 0 0 0 0.5 
902 2 2 0.194245 2.75948 6.04838 60 1 0 -242.603 17.6268 -2.58899 1034.15 2573.18 -1043.76 0 0 0 0.5 
375 1 1 4.43006 0.891249 6.11277 37 1 -1 -421.02 7.16522 -11.3838 1675.47 267.263 582.64 0 0 0 0.5 
835 2 2 3.97086 4.16069 7.48199 -8 0 0 -40.1996 -21.7104 -11.7888 -2130.63 92.7873 -356.944 0 0 0 0.5 
973 2 2 1.38978 3.34078 6.27743 -25 0 0 -110.153 2.7703 -7.2637 -999.094 1830.79 -3.26922 0 0 0 0.5 
982 2 2 2.50701 4.74108 7.43699 -2 0 -1 -3.86421 3.25281 9.52343 80.0266 -815.283 -110.142 0 0 0 0.5 
411 1 1 3.19916 2.53228 7.236 -24 0 0 -234.216 9.14618 10.3146 566.848 213.523 153.211 0 0 0 0.5 
910 2 2 1.9423 4.27165 6.39233 -13 0 0 -18.9914 6.99143 -10.284 779.535 87.9355 3296.5 0 0 0 0.5 
860 2 2 3.91165 2.70213 7.90636 -4 0 0 -228.855 15.624 21.2662 -900.323 222.541 -997.615 0 0 0 0.5 
76 1 1 4.80172 0.0430406 6.69867 37 1 0 -522.073 26.2722 -2.10591 -1116.52 2295.02 -520.885 0 0 0 0.5 
521 2 2 0.804895 3.38054 7.07679 2 0 0 -137.175 6.69547 -6.55364 1790.01 -251.505 676.915 0 0 0 0.5 
750 2 2 2.9188 0.97463 6.20027 -42 0 0 -419.632 -9.06909 16.2356 909.292 -1465.4 -982.901 0 0 0 0.5 
187 1 1 3.39652 2.01989 6.09118 -38 0 0 -364.368 22.6184 -2.37122 180.997 4977.31 742.543 0 0 0 0.5 
816 2 2 1.05264 4.35975 6.40886 -3 0 0 -13.823 -3.58852 27.4155 -2352.73 -2916.56 1005.07 0 0 0 0.5 
912 2 2 3.6365 4.74274 7.98322 18 0 -1 -12.429 -4.02475 20.0382 -77.2491 952.601 777.2 0 0 0 0.5 
123 1 1 4.72343 2.64003 6.32978 -35 0 0 -181.255 -15.6216 7.67445 2318.02 -247.737 766.466 0 0 0 0.5 
51 1 1 3.57414 4.54111 6.8087 8 0 0 -12.8242 -11.6885 -10.554 462.605 294.891 51.6461 0 0 0 0.5 
654 2 2 2.75199 2.18756 7.9699 -50 0 1 -247.229 -14.3152 1.94352 -1814.77 -1500.91 -1249.03 0 0 0 0.5 
321 1 1 0.260477 3.95277 7.12893 14 0 -1 -106.983 10.0334 -7.63247 1258.42 -804.917 -1882.06 0 0 0 0.5 
355 1 1 4.22443 0.0341166 7.32139 35 1 0 -513.434 2.84046 0.138982 2102.61 -4068.06 1329.09 0 0 0 0.5 
830 2 2 3.63738 1.65496 6.9655 59 1 -1 -351.585 21.8094 8.43571 3007.34 -1101.35 -137.603 0 0 0 0.5 
11 1 1 0.30461 4.94654 7.93025 -20 0 -1 -0.873194 11.7253 7.97393 2035.71 -611.549 346.824 0 0 0 0.5 
996 2 2 3.99033 3.91017 6.2777 7 0 -1 -75.5015 -11.189 -21.3831 -2245.58 3268.06 1266.51 0 0 0 0.5 
916 2 2 4.72779 2.7984 7.28284 -30 0 -1 -204.925 18.3866 18.5724 1195.76 392.408 -225.547 0 0 0 0.5 
439 1 1 3.08996 3.03507 6.0774 -10 0 0 -161.267 -9.24768 2.64572 -374.862 929.137 759.586 0 0 0 0.5 
449 1 1 4.16962 3.27078 7.00262 -4 0 0 -194.44 32.3746 20.761 -1533.83 224.823 -402.042 0 0 0 0.5 
420 1 1 0.519928 3.55512 6.23649 7 0 0 -126.303 9.6859 2.00282 759.723 1761.02 -627.507 0 0 0 0.5 
580 2 2 3.61265 0.709115 7.23751 72 1 0 -426.131 -18.4208 -4.5828 -2656.74 4078.01 -1916.65 0 0 0 0.5 
189 1 1 3.80997 1.39004 6.13567 45 1 0 -406.215 5.97454 -14.5728 -1251 -1287.97 36.472 0 0 0 0.5 
968 2 2 2.43767 1.80021 6.19008 78 1 0 -360.692 12.0333 19.3191 -401.033 738.301 181.252 0 0 0 0.5 
497 1 1 2.75718 1.58701 7.01593 78 1 0 -311.932 -11.2138 11.5513 -4725.82 593.948 -2241.15 0 0 0 0.5 
671 2 2 2.82139 4.69745 6.5037 5 0 0 -3.81928 -13.1843 -6.01026 -576.886 -1679.01 -548.241 0 0 0 0.5 
608 2 2 4.6413 4.2041 6.81303 -11 0 0 -53.4755 5.35165 -31.7958 -14.9606 -2028.74 1114.83 0 0 0 0.5 
495 1 1 4.7052 1.54603 7.88052 -30 0 0 -378.433 2.33036 4.58017 -1112.86 624.102 -65.7716 0 0 0 0.5 
201 1 1 4.86526 2.09326 7.47785 -38 0 0 -254.495 -9.6531 1.207 439.644 -338.023 -743.259 0 0 0 0.5 
970 2 2 4.83958 0.93116 7.03838 83 1 -1 -447.248 18.3006 -2.46177 28.5696 670.142 256.335 0 0 0 0.5 
819 2 2 0.93257 2.18193 9.26617 -21 0 0 -297.263 5.52436 -20.6139 2679.37 -2366.31 -800.823 0 0 0 0.5 
862 2 2 2.66029 4.57952 8.73095 -34 0 0 -58.2896 6.7987 -10.9643 -287.846 114.538 -1715.88 0 0 0 0.5 
127 1 1 0.20943 1.11602 9.58248 -33 0 0 -363.361 7.02271 0.0836463 1817.35 -198.667 537.032 0 0 0 0.5 
754 2 2 1.76395 1.35536 9.22589 -32 0 0 -344.543 2.14853 -6.03879 -995.88 1464.59 -47.5855 0 0 0 0.5 
237 1 1 2.27144 1.12535 8.56407 -19 0 0 -354.32 -8.62738 -5.58251 613.438 -1363 -292.665 0 0 0 0.5 
99 1 1 1.16754 0.172441 9.58904 -27 0 -1 -411.24 -0.20737 8.32501 -1665.53 2872.62 1314.82 0 0 0 0.5 
339 1 1 1.49319 3.07957 9.6057 -17 0 0 -174.158 -10.9643 10.0712 -3840.16 1383.81 -564.622 0 0 0 0.5 
428 1 1 0.338113 1.40872 8.73257 -25 0 0 -356.88 0.0639392 -2.42455 780.746 -842.815 710.085 0 0 0 0.5 
96 1 1 3.95486 2.91272 9.48376 -23 0 0 -201.659 -12.818 11.0038 958.099 -2108.44 -194.81 0 0 0 0.5 
840 2 2 2.04199 4.09337 9.62071 -9 0 0 -96.5977 16.1259 8.94901 -485.496 653.691 347.544 0 0 0 0.5 
767 2 2 2.17429 2.21651 8.70173 -31 0 0 -262.347 -20.4558 -3.67525 -2560.63 1491.5 -1559.77 0 0 0 0.5 
765 2 2 2.07293 0.406317 9.24536 72 1 -1 -428.111 2.10899 -0.0579215 -703.462 -260.974 -1103.92 0 0 0 0.5 
227 1 1 1.22828 1.22011 8.35969 -34 0 0 -357.36 0.320328 -10.2702 29.9291 -6.34126 -12.537 0 0 0 0.5 
551 2 2 1.33141 3.83507 8.44965 2 0 0 -103.022 10.7532 -30.3349 476.241 -1033.21 -3983.78 0 0 0 0.5 
790 2 2 4.2008 0.205308 9.3392 -49 0 0 -480.188 15.2354 -1.32037 -1057.62 605.717 184.185 0 0 0 0.5 
110 1 1 1.63082 3.33313 8.70024 -14 0 0 -154.068 -13.6411 26.9418 -1054.55 -536.6 1004.55 0 0 0 0.5 
929 2 2 2.50131 3.47386 9.27716 -10 0 0 -126.119 -7.08621 -20.8047 -617.633 -2513.94 1272.81 0 0 0 0.5 
703 2 2 0.384076 0.393661 9.39413 -63 0 0 -421.902 -12.4741 15.8498 -1192.91 -1222.52 1417.69 0 0 0 0.5 
640 2 2 4.41604 0.011016 8.41234 -56 0 0 -488.01 2.39491 -15.0431 228.825 -316.855 -393.333 0 0 0 0.5 
142 1 1 0.650263 0.280739 8.65636 -39 0 -1 -455.832 11.1972 8.2575 -658.971 893.631 246.882 0 0 0 0.5 
662 2 2 4.46402 2.33145 8.59904 -16 0 0 -247.824 -28.6937 1.27533 805.111 1627.94 882.731 0 0 0 0.5 
468 1 1 4.11987 4.90033 8.98369 12 0 0 -14.7983 -9.74314 -2.84524 1114.98 217.797 2036.14 0 0 0 0.5 
566 2 2 2.10377 2.79494 9.89279 84 1 0 -211.036 5.6349 22.1851 541.357 2443.62 452.114 0 0 0 0.5 
865 2 2 2.17404 3.05571 8.46341 -28 0 -1 -157.67 -2.90768 -17.7153 2527.62 -634.88 567.839 0 0 0 0.5 
822 2 2 4.3858 4.23517 8.88633 -9 0 0 -89.6224 -10.7002 11.5553 136.153 -3302.21 553.317 0 0 0 0.5 
896 2 2 1.86821 4.69471 8.26948 -2 0 -1 -56.9048 18.1282 -29.6883 -218.238 84.9378 53.5696 0 0 0 0.5 
492 1 1 4.68974 1.33408 8.80795 -78 0 0 -392.217 26.9175 12.0247 -87.946 888.804 1605.42 0 0 0 0.5 
516 2 2 0.218685 2.78706 9.33609 -65 0 0 -220.619 11.0374 20.2294 -3824.8 3469.73 -2702.43 0 0 0 0.5 
845 2 2 3.06964 4.27121 9.5575 -17 0 0 -84.1209 15.0174 -22.5412 1245.78 2265.28 1695.16 0 0 0 0.5 
581 2 2 1.03521 4.21852 8.81455 2 0 0 -42.8698 11.2456 8.09661 -1113.32 344.389 1408.82 0 0 0 0.5 
233 1 1 2.71948 1.82475 9.16231 -25 0 0 -311.909 -22.085 1.46687 1002.2 -2029.73 1479.85 0 0 0 0.5 
872 2 2 0.808345 4.54067 9.67281 -5 0 -1 -59.8726 14.0045 -11.1805 -268.64 390.265 1162.35 0 0 0 0.5 
573 2 2 2.74393 0.044695 9.60155 -29 0 0 -446.71 -7.20747 0.307553 1541.86 -1068.02 1000.84 0 0 0 0.5 
594 2 2 3.5144 1.81027 8.46311 -33 0 0 -297.945 -4.52609 22.1628 208.927 -54.5942 209.33 0 0 0 0.5 
584 2 2 3.28432 2.55299 8.68584 -28 0 0 -270.148 8.46495 17.7554 -535.595 1582.79 461.842 0 0 0 0.5 
23 1 1 3.74704 0.41882 8.6325 -36 0 0 -491.583 6.971 3.18299 -2207.69 -159.89 -851.775 0 0 0 0.5 
921 2 2 2.63053 2.52819 9.60807 -35 0 0 -242.565 7.61086 -1.37771 2141.71 -1825.23 -1613.75 0 0 0 0.5 
413 1 1 0.0711627 3.23219 8.47707 -32 0 -1 -185.8 17.9303 -16.9495 542.805 -657.058 1124.4 0 0 0 0.5 
719 2 2 3.98909 1.09681 8.27022 63 1 0 -375.527 -9.51498 10.421 1542.27 -2318.04 -1052.31 0 0 0 0.5 
737 2 2 3.78466 3.69984 8.176 -9 0 0 -92.5453 -6.10465 -15.7848 46.0413 3.39075 -8.52358 0 0 0 0.5 
43 1 1 2.8022 0.909251 9.87096 -37 0 0 -392.804 26.6875 -8.55014 1589.66 -3095.87 -1181.5 0 0 0 0.5 
79 1 1 0.0184099 1.94065 8.03194 -28 0 0 -299.458 7.63956 11.5112 -3109.84 -1548.12 492.841 0 0 0 0.5 
771 2 2 3.53058 1.62811 9.37896 -42 0 -1 -313.136 -1.11214 25.8381 -366.267 392.861 -2218.32 0 0 0 0.5 
467 1 1 3.65601 3.58166 9.62116 104 1 0 -141.083 25.0192 -6.60921 2478.25 -571.491 -89.8971 0 0 0 0.5 
876 2 2 3.59907 3.29625 8.78549 -16 0 0 -184.936 13.804 -7.88786 -495.885 -905.929 319.87 0 0 0 0.5 
738 2 2 4.61808 2.14212 9.86733 93 1 0 -287.638 10.3438 4.20287 -1031.78 506.268 721.929 0 0 0 0.5 
909 2 2 4.81277 3.20299 8.75502 -4 0 0 -167.026 -10.4539 23.1143 -1258.02 -1155.61 -2930.61 0 0 0 0.5 
852 2 2 4.95953 0.935811 9.62344 -55 0 0 -402.236 4.7398 30.4526 -59.0054 1593.92 -507.967 0 0 0 0.5 
131 1 1 0.281867 7.89119 1.5584 28 0 0 276.659 9.82069 6.87863 -3233.5 2309.94 -1569.21 0 0 0 0.5 
995 2 2 3.25537 9.99751 0.860137 -39 -1 1 531.766 13.2375 6.68125 494.287 -1854.7 -977.528 0 0 0 0.5 
435 1 1 2.15517 6.89764 0.402447 9 0 0 210.981 -14.5564 -15.4401 5.14905 -17.4078 59.7299 0 0 0 0.5 
836 2 2 0.0604682 8.73947 0.803602 71 0 0 394.708 -4.14357 -32.2552 113.764 20.3013 79.4376 0 0 0 0.5 
114 1 1 3.12574 8.20474 1.44877 -101 -1 0 358.124 -28.4532 12.3075 3531.22 -487.771 255.505 0 0 0 0.5 
906 2 2 3.28523 6.97265 0.257154 20 0 0 235.742 -11.6759 -2.91378 0 0 0 0 0 0 0.5 
899 2 2 0.725088 9.74389 0.587193 -44 -1 0 571.904 -19.8805 14.1022 -173.671 -167.023 111.128 0 0 0 0.5 
772 2 2 1.62439 9.97457 0.25283 -26 -1 1 576.707 -10.5103 41.0442 881.669 -1309.98 -181.934 0 0 0 0.5 
796 2 2 2.38023 5.44937 1.90887 5 0 0 52.1314 0.226021 10.6179 -44.2949 16.2192 27.9687 0 0 0 0.5 
407 1 1 0.193939 6.44441 1.32209 20 0 0 149.317 -16.3441 -1.45566 733.858 -786.428 1464.33 0 0 0 0.5 
868 2 2 2.74418 9.27685 1.54432 -33 -1 1 449.608 6.68062 25.5853 -584.892 1202.03 1181.11 0 0 0 0.5 
70 1 1 3.19657 8.44205 0.485905 29 0 1 358.401 -1.28741 -2.43211 -518.817 604.465 2193.94 0 0 0 0.5 
172 1 1 0.818728 8.87478 1.33307 -70 -1 0 398.853 15.8202 -16.6815 -525.323 205.011 -534.772 0 0 0 0.5 
118 1 1 3.28761 9.34841 0.420428 71 0 1 484.463 3.20433 -26.2483 541.89 -1187.3 469.392 0 0 0 0.5 
244 1 1 4.61847 6.87278 0.404516 -126 -1 0 152.922 16.0644 -21.7339 -1176.6 558.634 354.934 0 0 0 0.5 
525 2 2 3.6343 7.93548 0.229298 -63 -1 0 331.056 -20.8403 -25.6675 -92.4615 -464.463 -1713.26 0 0 0 0.5 
144 1 1 3.88313 5.4186 0.707221 -8 0 0 50.0584 -12.9816 -4.21121 -304.905 338.487 190.676 0 0 0 0.5 
116 1 1 0.281709 6.2077 0.385537 -3 0 1 113.932 -22.7194 11.1447 93.7814 -253.68 -998.074 0 0 0 0.5 
599 2 2 0.162342 7.00442 0.00560922 5 0 0 171.493 5.50352 2.99434 1177.29 1869.66 -843.7 0 0 0 0.5 
276 1 1 0.100097 9.94926 1.5538 -52 -1 1 546.096 -31.2516 1.95422 2036.3 85.0854 458.066 0 0 0 0.5 
196 1 1 3.61107 9.48938 1.8616 94 0 0 467.263 -3.01015 5.35894 337.155 1370.45 158.205 0 0 0 0.5 
494 1 1 2.99471 5.2036 0.321108 6 0 0 28.5765 11.9783 6.06188 812.252 -183.841 1633.24 0 0 0 0.5 
463 1 1 1.44183 9.00028 0.389387 68 0 1 448.913 21.223 -3.53394 -578.339 851.28 -403.092 0 0 0 0.5 
920 2 2 1.81812 8.34311 0.444736 -55 -1 1 416.952 -27.5264 -9.53707 -1751.05 -3111.87 -800.674 0 0 0 0.5 
685 2 2 3.15217 6.11541 0.75715 17 0 1 128.96 0.538203 -9.0022 0 0 0 0 0 0 0.5 
885 2 2 4.2852 5.55752 1.87012 8 0 0 104.623 -0.723143 -28.2528 -2239.82 1043.97 1581.29 0 0 0 0.5 
632 2 2 4.83729 5.54719 0.388776 16 0 0 51.1062 6.73242 -24.0452 -1101.28 2741.02 1357.72 0 0 0 0.5 
297 1 1 2.26072 9.76388 1.20386 63 0 0 487.003 24.1217 -26.0938 -1134.64 1143.02 -799.041 0 0 0 0.5 
452 1 1 2.23454 6.62928 1.32322 11 0 0 194.981 -44.1977 -13.9381 86.8296 1116.5 408.31 0 0 0 0.5 
400 1 1 3.09143 8.91461 1.16934 -37 -1 0 420.421 9.16801 4.52197 1501.81 -1176.28 -2237.8 0 0 0 0.5 
710 2 2 2.30153 8.31034 1.08536 48 0 0 404.849 0.518059 3.39051 -993.123 -206.327 560.743 0 0 0 0.5 
310 1 1 1.23791 5.28446 0.281514 -10 0 1 45.4599 -4.91655 -14.9026 -1353.28 -263.409 537.31 0 0 0 0.5 
733 2 2 4.70369 8.59784 0.78764 78 0 0 360.15 -21.9554 -3.79738 -55.0346 200.646 110.131 0 0 0 0.5 
992 2 2 2.40792 9.29568 0.131896 -69 -1 1 470.367 5.97805 17.1648 501.2 210.137 673.268 0 0 0 0.5 
571 2 2 2.17754 5.36106 0.195357 8 0 1 28.9308 8.23121 2.7614 -1058.12 1357.06 1871.36 0 0 0 0.5 