# vtk DataFile Version 4.2
Generated by LIGGGHTS
ASCII
DATASET POLYDATA
POINTS 1000 float
3.45562 2.99789 1.34389 2.10664 4.4757 0.398534 1.48251 0.591218 1.23078 
2.42595 2.11904 0.228447 0.377767 0.174444 1.28302 3.03729 1.17336 1.76211 
0.919678 1.10331 1.68182 4.45514 1.13157 0.59006 4.40279 0.139605 1.75689 
4.03668 3.23006 0.0119376 4.23893 1.86961 0.949206 1.8 1.43749 0.973519 
1.42004 3.79248 1.89629 1.56388 2.00802 1.36379 2.15706 3.30042 0.586655 
1.07289 2.7454 0.0438018 0.333988 1.21485 1.0598 0.592169 2.13014 0.945388 
1.24681 3.8428 0.706909 1.88881 1.04849 0.216689 1.86367 3.68683 1.2437 
2.60569 2.62574 0.989621 0.631872 0.651268 0.411596 1.13226 1.55033 0.347048 
1.98024 2.86577 1.55297 1.2119 0.0189727 0.505125 2.66363 2.71333 1.98805 
4.82668 2.96826 0.958024 2.67274 0.811959 0.101171 2.71318 1.8847 1.86212 
4.5344 0.173946 0.0196012 3.35557 0.975257 0.89262 3.7477 3.87717 1.48563 
3.84812 0.177198 0.886682 3.7208 3.71999 0.659652 4.04838 1.95462 0.162658 
0.0561106 4.66927 0.863226 0.671266 4.18534 0.871956 2.69893 0.350588 1.38312 
3.22935 2.39767 0.639394 2.73119 3.80662 1.97482 0.67275 3.34335 1.56862 
3.36059 0.356202 0.173299 0.471381 3.11085 0.490831 4.69946 2.6688 0.000346342 
3.42528 1.84588 1.1723 1.59224 4.94665 0.943099 3.73798 0.601237 1.69075 
3.75618 4.78165 1.22494 4.65059 3.57732 1.51496 4.73469 2.21492 1.68191 
4.79083 0.553501 1.04824 4.86863 3.52993 0.123137 1.65208 0.68692 3.7103 
1.67784 0.904199 2.09064 1.48396 2.50809 3.8437 0.910564 0.628539 3.28508 
0.155748 0.672365 2.09628 2.36451 4.04353 3.32646 1.68695 3.97995 3.74514 
1.17522 2.65566 2.08906 0.277197 1.85609 3.72663 2.52714 1.35329 3.54809 
3.71574 1.33832 3.17989 2.35093 1.57345 2.61905 1.5424 1.3119 2.7389 
1.79982 1.52406 3.72232 0.615188 2.08369 2.82439 2.19124 2.22773 3.2088 
0.901821 1.2572 2.52343 1.7981 3.57411 2.69902 2.24138 0.487494 2.11855 
2.50263 0.231787 3.71988 2.10263 2.9692 2.89025 3.63128 1.78635 3.97935 
1.88048 0.614009 2.93782 -0.0220383 4.59305 3.35789 3.57745 2.01694 2.56599 
3.22382 0.399738 3.32625 1.16711 4.00611 2.82925 3.90328 2.81461 3.48699 
0.437839 3.15266 3.13641 3.16867 2.68341 3.50629 3.73785 4.89031 2.46937 
0.579542 4.1157 3.44916 3.28167 4.25327 3.25419 4.53358 3.57822 3.4494 
3.00581 3.31085 3.05089 2.86346 1.12696 2.82385 4.72648 3.3664 2.43028 
3.77515 1.32813 2.06548 0.735195 4.32773 2.02945 4.35557 2.27162 3.16686 
3.05847 0.400645 2.41409 1.53271 4.89822 2.76947 2.766 3.56496 3.92946 
1.16716 0.095573 2.01041 2.9568 2.40295 2.66026 2.9921 2.0469 3.96157 
3.60574 3.96176 2.37689 3.84316 0.144075 2.62036 3.81536 3.08715 2.53784 
4.84479 4.45153 3.83231 4.92269 1.85398 3.76832 4.95572 2.77693 3.87792 
2.27931 4.45799 5.69816 2.50306 2.38843 4.49557 2.16056 1.55621 5.90191 
3.85149 0.391561 4.22661 2.5519 1.30967 5.34986 0.965672 1.4319 4.98682 
4.60377 4.09327 5.12599 0.0463582 0.707364 4.64045 1.20306 0.883185 5.45497 
2.48127 4.96019 4.8949 1.31284 2.63445 5.90504 1.6737 1.15303 4.59539 
2.03305 3.24646 5.61956 1.81824 0.563571 5.24566 4.85684 4.87983 5.35854 
0.846443 2.13174 4.56193 1.84019 3.13559 4.56383 1.52347 3.88315 4.75643 
0.418973 1.7518 5.6879 2.36828 0.123596 4.84185 4.47657 2.19939 5.4859 
1.89641 0.314832 4.21721 2.65779 2.34708 5.46596 4.55868 0.35821 4.69482 
3.44678 2.14659 5.25579 4.27692 3.53975 5.7364 1.4036 4.6312 4.23346 
4.21029 2.72114 5.95945 0.681246 4.53126 5.14025 4.17458 3.20154 4.44496 
3.08941 0.478338 5.51456 1.71094 4.85947 5.12258 3.86086 0.257428 5.75685 
2.46984 4.27658 4.32161 0.00760154 3.06291 4.38139 2.73422 3.33009 5.01147 
3.92386 2.22761 4.70999 0.352129 3.94083 4.29921 -0.0424086 4.52895 4.31969 
4.72988 0.45919 5.70611 2.74554 1.2569 4.50501 0.665275 3.68798 5.15688 
1.33149 1.69459 5.9911 4.31549 1.09357 5.05363 3.19659 1.41173 5.87315 
3.41628 3.37757 4.31204 3.41241 0.93175 4.09485 3.55566 3.04108 5.21804 
3.27145 3.65672 5.94074 3.57859 1.33257 4.9953 4.82832 2.89161 4.87053 
2.24463 0.352884 7.87062 2.75734 1.88918 6.79492 1.29684 0.288572 7.12205 
3.38808 4.70894 7.34115 2.6161 3.31413 6.64946 1.21146 0.548662 6.06497 
0.749617 0.425919 7.69392 2.24774 2.04993 6.68379 1.7321 1.03708 7.90003 
0.54548 0.640714 6.65581 1.14231 2.10132 7.11054 3.15187 0.184415 7.08682 
4.74037 0.874571 7.00491 2.07364 4.01508 6.59013 0.966476 1.24105 6.82708 
0.434014 0.0356179 6.79272 1.74871 0.0621786 6.2912 2.10699 2.53119 6.26959 
4.35636 2.73213 7.05983 1.64445 3.12947 6.9064 3.96514 0.764102 7.66318 
0.932951 1.16524 7.79948 2.05429 0.996768 7.13201 1.71169 1.72207 7.23403 
3.50754 2.12943 6.50616 2.02017 2.64969 7.39509 0.354765 1.38012 6.45897 
1.64503 3.29731 7.83214 2.21293 1.77268 7.63546 4.00811 3.38394 6.5844 
4.70179 3.42798 7.99216 1.88253 4.8867 6.1964 2.51954 1.04675 6.43852 
0.37713 2.98917 6.14428 1.26195 3.94623 6.1744 0.475784 4.88926 6.25109 
4.41704 4.90249 6.2317 4.36081 4.03096 7.36053 0.0634538 3.99618 7.41688 
0.752926 4.43284 6.8273 3.29276 4.87668 6.39395 3.46904 3.30514 7.77852 
1.53523 4.35361 7.69164 4.35803 1.20418 6.203 4.06063 4.64469 7.02365 
0.247823 3.38119 6.80948 2.67192 2.65655 7.50258 3.03367 3.89815 7.38337 
2.99745 1.89619 7.68865 2.90216 0.994151 7.29816 3.22577 2.68625 6.06297 
3.46686 2.6972 7.2152 3.52934 3.63921 7.0037 4.88855 3.72996 6.50625 
4.90459 4.95943 7.6147 1.07322 0.0295596 9.50419 1.38693 1.12476 8.7928 
4.5051 3.20902 9.17094 0.140793 0.238391 9.72767 2.49557 3.31463 8.05871 
1.54281 1.73549 9.46271 2.3488 1.4839 8.57813 2.35388 0.56266 8.91298 
0.868291 2.88039 8.22005 0.705469 1.26581 8.56191 2.48378 1.87454 9.42208 
1.38195 2.113 8.02348 1.11863 0.819263 9.65867 2.24823 3.15351 9.74704 
0.0464388 0.704108 9.00467 2.04673 2.03347 8.50333 1.61228 3.4683 9.05415 
1.78713 3.81765 9.90552 1.91501 3.99986 8.31658 0.249692 1.72356 8.92945 
2.23406 2.62706 9.1053 1.98637 1.07302 9.33372 2.52408 3.64634 8.93275 
0.310119 1.52291 9.97989 2.79768 4.79063 8.59583 1.34084 2.47441 8.91313 
4.30814 2.00314 8.18612 1.63733 0.468973 8.48084 0.102845 3.82749 9.68274 
1.81863 4.97402 8.40818 4.89841 4.49864 8.4278 3.43836 1.02678 9.51714 
3.76807 3.77044 9.09101 4.01509 3.30791 8.36704 0.877621 3.486 9.55704 
4.2018 0.180203 8.30697 1.36914 4.49358 9.73302 4.21792 4.55674 9.3621 
3.18327 4.33178 9.44017 3.1401 3.37796 9.84426 1.12651 4.31467 8.94826 
0.838183 3.75428 8.16352 0.901898 4.64805 8.1144 4.24714 0.681981 9.31378 
3.18422 0.569795 8.1357 3.30299 2.07448 9.08626 2.84902 1.22931 8.2472 
2.96463 2.98631 8.68525 3.05355 2.46101 8.24966 3.22112 1.72304 9.97355 
3.46627 4.73456 8.2373 3.66767 2.92278 9.24338 3.64214 3.9153 8.23159 
3.68249 1.26409 8.63915 3.90645 2.53309 8.5505 4.15002 1.84887 9.25727 
4.18829 4.61891 8.06668 4.87775 1.7928 9.9136 4.97134 2.48131 9.05255 
4.36715 9.56519 0.810958 1.02903 8.84758 1.13721 1.08206 9.28229 1.90863 
4.67308 5.3666 0.444502 0.422376 5.0097 1.83442 2.38245 7.69742 1.99411 
4.68215 6.24912 1.66902 3.83809 6.73556 1.57307 0.761861 9.63412 1.22471 
3.38441 9.27192 0.634168 1.09903 8.16628 0.75544 3.08686 8.40071 1.51789 
1.97001 9.48848 1.53742 1.0348 5.12671 0.214391 0.766278 6.62647 0.41312 
3.83517 8.51381 0.231957 0.421258 7.19016 0.895522 3.54676 7.91611 0.927108 
3.21356 7.04295 0.92621 0.368063 8.01189 1.26665 0.625386 8.46306 0.159611 
0.171383 8.97442 0.72639 3.13336 6.18457 0.326397 3.8352 5.52165 1.62255 
3.07228 5.73594 1.19986 3.69679 5.33425 0.447836 0.349534 7.46959 1.92394 
4.36709 9.34462 1.75858 0.828788 5.96598 1.8232 2.52309 9.595 0.76227 
2.34636 6.40939 0.8038 0.732502 5.77352 0.731467 0.925204 7.59937 0.00178979 
1.89371 8.18209 1.9779 1.45591 5.77534 1.06739 1.40794 6.64482 1.1322 
3.77952 7.90067 1.83569 4.72044 6.63694 0.676824 2.84603 8.36973 0.54675 
1.83862 8.39726 1.15124 1.18333 7.49172 1.21673 1.50342 5.39562 1.87614 
1.87896 7.60186 0.287264 0.103813 6.40987 1.60292 2.30767 6.19585 1.66313 
-0.0273039 5.59271 0.93163 1.54999 8.73199 0.111988 4.51013 7.46098 0.0262733 
1.41219 9.80401 2.71731 1.01291 8.41093 2.97361 4.38177 5.12148 3.50818 
3.0085 8.60986 2.99762 1.81079 8.48577 3.22799 1.583 9.34369 3.35804 
1.21347 8.48228 2.0913 2.07509 9.5583 2.42016 0.596849 6.2638 2.91306 
0.812629 9.16835 3.22052 0.305161 8.78381 2.21438 2.72879 8.68893 3.95578 
2.55144 8.99874 2.20738 2.30619 7.44405 2.9713 0.614633 6.83582 2.21215 
3.22644 6.52286 2.8386 0.377067 9.68752 2.52946 0.431815 8.62175 3.99802 
1.71881 5.3845 3.47785 1.36079 6.09335 3.37874 2.22372 6.92472 2.18442 
1.39852 6.87028 3.85521 3.89144 9.07175 3.02983 4.69612 5.96829 2.73342 
4.81388 5.25949 2.15382 3.74907 8.73694 2.29117 3.08754 5.92779 3.49057 
1.88514 5.86328 2.63405 3.04014 6.95444 2.01445 0.669312 9.82606 3.65155 
1.09405 7.42582 3.1805 0.130148 5.38827 2.93474 3.89777 9.84676 3.54487 
2.30096 5.03159 3.91931 3.12528 9.47002 3.13556 0.986825 5.40608 3.92683 
0.0026414 5.84741 3.64014 4.11282 8.12124 3.18605 0.219104 6.76065 3.75902 
1.26408 6.10193 2.50592 1.38096 6.98018 2.35284 3.84597 5.73171 3.11889 
2.29505 6.58334 3.26891 1.83567 7.92998 2.79476 2.31211 9.40505 3.24416 
0.71815 8.0246 3.75844 4.6875 9.89044 2.71151 0.785107 5.0659 2.74848 
1.95246 9.38745 5.78952 3.5899 6.11809 5.17409 1.64906 9.36427 4.90311 
2.64013 9.30248 5.20644 0.197329 8.44804 5.05499 1.8993 7.65259 5.29757 
2.80962 6.22395 4.13852 3.69001 7.04751 5.48751 3.73452 6.63703 4.31909 
4.18803 9.14202 5.19383 2.40108 6.46638 4.84163 2.91528 9.63805 4.03307 
0.534073 7.22119 5.56904 1.17727 7.84148 5.08161 2.99361 8.71267 5.60091 
2.71377 7.27862 5.49447 4.308 7.9769 5.12623 4.52668 5.06728 4.37232 
3.63666 7.5214 4.14141 0.517968 9.85613 5.51865 2.26002 7.27737 4.59325 
4.61301 9.49087 4.15757 0.569491 9.93935 4.58223 1.25412 5.45367 5.1056 
3.67751 5.64368 4.13664 1.11132 9.32679 5.60703 4.69662 6.39406 5.0475 
4.11238 8.56795 4.06545 3.30597 9.89731 4.89453 1.2537 9.43905 4.14486 
1.14815 6.14937 4.65262 2.15987 8.54084 5.72015 3.88688 5.52328 5.84222 
2.25251 5.79208 5.78139 1.77368 8.78162 4.02992 1.31056 7.63289 4.19378 
[...]
POINT_DATA 1000
FIELD FieldData 7
id 1 1000 int
38 458 548 322 901 389 633 984 729 
327 762 842 445 995 586 424 833 853 
437 577 446 835 252 318 486 775 159 
18 603 674 954 875 510 738 891 573 
760 138 690 2 9 472 637 737 106 
530 725 110 250 541 165 443 941 557 
96 78 79 526 555 816 579 918 488 
20 851 439 778 416 952 566 933 542 
659 939 930 73 666 905 763 894 361 
213 653 461 254 886 511 288 67 39 
483 231 332 117 153 838 916 785 501 
902 83 770 772 514 75 974 932 390 
664 434 572 460 22 193 699 961 189 
529 10 893 652 795 146 394 724 220 
1 780 262 660 284 154 703 922 741 
269 913 580 872 492 12 211 611 971 
798 217 438 228 120 629 95 17 346 
102 948 56 31 61 335 938 132 224 
887 626 393 287 232 937 829 219 899 
665 865 743 956 86 521 431 694 658 
283 74 251 348 163 375 940 903 229 
625 257 706 415 613 810 635 791 827 
468 399 951 862 590 651 502 575 169 
33 983 646 11 246 656 157 199 403 
598 173 618 222 754 806 260 4 787 
711 702 623 218 139 904 121 759 870 
314 496 465 42 487 944 484 401 804 
608 321 142 316 881 957 508 408 972 
201 177 298 313 768 65 671 40 115 
46 80 467 645 805 233 305 717 307 
736 867 596 430 883 476 409 49 15 
946 942 802 909 976 266 655 497 563 
14 962 545 118 928 209 90 755 985 
259 171 958 381 858 457 63 385 808 
195 993 386 27 801 846 411 587 758 
616 537 412 975 507 847 238 576 145 
859 578 520 426 797 879 692 564 997 
677 47 715 21 342 627 739 255 955 
244 934 94 990 634 767 351 950 657 
103 263 550 628 799 704 405 839 517 
391 698 19 477 786 871 168 562 337 
55 68 553 850 221 752 680 631 197 
397 107 900 943 720 452 302 509 602 
444 709 610 684 376 215 837 456 395 
289 466 789 676 131 911 732 150 919 
601 206 882 558 113 81 617 336 552 
349 632 156 353 136 981 365 753 453 
639 360 730 363 499 166 70 475 50 
705 151 888 92 733 432 99 683 726 
355 824 379 936 52 34 538 642 319 
479 998 964 874 589 187 525 36 474 
423 297 788 299 429 979 512 771 223 
817 69 749 273 840 889 977 32 697 
728 326 303 685 366 519 85 108 8 
556 202 551 89 230 822 240 54 368 
175 304 123 369 920 398 701 599 48 
869 347 236 534 679 696 848 773 597 
935 908 844 614 450 162 815 480 856 
35 654 270 670 584 536 765 427 641 
181 227 569 410 722 581 828 592 282 
277 214 924 192 358 809 792 890 333 
400 130 341 947 547 864 750 280 522 
812 421 149 265 744 766 428 25 454 
23 190 819 647 731 292 803 267 7 
549 745 966 204 243 600 794 896 691 
769 147 527 216 329 675 898 98 271 
380 354 111 370 433 186 826 619 82 
278 783 781 612 860 339 203 308 440 
544 167 967 43 101 821 506 406 258 
747 104 464 877 16 568 989 748 746 
64 495 459 493 350 531 970 207 820 
402 182 845 523 516 188 196 667 885 
742 5 988 478 345 593 895 172 352 
921 513 367 241 105 813 606 790 191 
200 650 585 823 524 624 926 982 734 
247 811 807 992 620 441 293 331 485 
662 912 294 295 383 688 987 609 447 
968 338 640 929 425 281 58 661 708 
880 328 539 343 910 119 868 740 126 
1000 796 861 761 582 559 621 208 374 
863 93 41 392 420 285 180 648 843 
261 311 290 249 364 91 310 237 413 
372 155 291 857 721 51 999 148 533 
727 503 325 296 841 407 26 357 784 
414 855 693 212 77 960 594 340 605 
418 100 84 723 442 607 996 334 571 
945 561 301 455 344 978 716 800 387 
419 144 668 832 969 462 751 76 779 
682 735 707 876 782 482 615 931 825 
923 638 275 133 451 849 897 300 235 
884 713 494 176 469 994 161 3 449 
644 137 917 183 925 663 712 953 505 
62 179 264 518 234 88 757 892 185 
359 574 710 382 312 24 546 756 814 
158 959 980 700 498 636 127 362 673 
174 873 927 320 377 718 112 504 560 
109 669 963 309 490 436 404 866 489 
818 622 160 570 256 473 324 714 356 
831 53 834 907 71 915 143 630 528 
583 245 687 286 226 253 44 72 965 
678 463 6 114 515 184 140 695 45 
422 13 59 672 28 124 30 686 604 
491 540 276 164 500 949 315 777 567 
836 134 135 681 830 471 543 57 774 
378 973 317 122 535 991 643 384 125 
272 116 37 396 373 248 194 141 554 
481 417 595 87 198 371 435 649 128 
793 210 242 719 239 986 914 60 764 
591 388 170 129 66 532 330 152 470 
97 205 906 274 279 323 878 178 29 
268 852 448 854 225 689 565 588 306 
776 
type 1 1000 int
1 1 2 1 2 1 2 2 2 
1 2 2 1 2 2 1 2 2 
1 2 1 2 1 1 1 2 1 
1 2 2 2 2 2 2 2 2 
2 1 2 1 1 1 2 2 1 
2 2 1 1 2 1 1 2 2 
1 1 1 2 2 2 2 2 1 
1 2 1 2 1 2 2 2 2 
2 2 2 1 2 2 2 2 1 
1 2 1 1 2 2 1 1 1 
1 1 1 1 1 2 2 2 2 
2 1 2 2 2 1 2 2 1 
2 1 2 1 1 1 2 2 1 
2 1 2 2 2 1 1 2 1 
1 2 1 2 1 1 2 2 2 
1 2 2 2 1 1 1 2 2 
2 1 1 1 1 2 1 1 1 
1 2 1 1 1 1 2 1 1 
2 2 1 1 1 2 2 1 2 
2 2 2 2 1 2 1 2 2 
1 1 1 1 1 1 2 2 1 
2 1 2 1 2 2 2 2 2 
1 1 2 2 2 2 2 2 1 
1 2 2 1 1 2 1 1 1 
2 1 2 1 2 2 1 1 2 
2 2 2 1 1 2 1 2 2 
1 1 1 1 1 2 1 1 2 
2 1 1 1 2 2 2 1 2 
1 1 1 1 2 1 2 1 1 
1 1 1 2 2 1 1 2 1 
2 2 2 1 2 1 1 1 1 
2 2 2 2 2 1 2 1 2 
1 2 2 1 2 1 1 2 2 
1 1 2 1 2 1 1 1 2 
1 2 1 1 2 2 1 2 2 
2 2 1 2 2 2 1 2 1 
2 2 2 1 2 2 2 2 2 
2 1 2 1 1 2 2 1 2 
1 2 1 2 2 2 1 2 2 
1 1 2 2 2 2 1 2 2 
1 2 1 1 2 2 1 2 1 
1 1 2 2 1 2 2 2 1 
1 1 2 2 2 1 1 2 2 
1 2 2 2 1 1 2 1 1 
1 1 2 2 1 2 2 1 2 
2 1 2 2 1 1 2 1 2 
1 2 1 1 1 2 1 2 1 
2 1 2 1 1 1 1 1 1 
2 1 2 1 2 1 1 2 2 
1 2 1 2 1 1 2 2 1 
1 2 2 2 2 1 2 1 1 
1 1 2 1 1 2 2 2 1 
2 1 2 1 2 2 2 1 2 
2 1 1 2 1 2 1 1 1 
2 1 2 1 1 2 1 1 1 
1 1 1 1 2 1 2 2 1 
2 1 1 2 2 2 2 2 2 
2 2 2 2 1 1 2 1 2 
1 2 1 2 2 2 2 1 2 
1 1 2 1 2 2 2 2 1 
1 1 2 1 1 2 2 2 1 
1 1 1 2 2 2 2 1 2 
2 1 1 1 2 2 1 1 1 
1 1 2 2 2 1 2 1 1 
2 2 2 1 1 2 2 2 2 
2 1 2 1 1 2 2 1 1 
1 1 1 1 1 1 2 2 1 
1 2 2 2 2 1 1 1 1 
2 1 2 1 1 2 2 1 1 
2 1 1 2 1 2 2 2 2 
1 1 1 1 1 2 2 1 2 
1 1 2 2 2 1 1 2 2 
2 1 2 1 1 2 2 1 1 
2 2 1 1 1 2 2 2 1 
1 2 2 2 2 2 2 2 2 
1 2 2 2 2 1 1 1 1 
2 2 1 1 1 2 2 2 1 
2 1 2 2 1 1 1 2 2 
2 1 2 1 2 1 2 2 1 
2 2 2 2 2 2 2 1 1 
2 1 1 1 1 1 1 2 2 
1 1 1 1 1 1 1 1 1 
1 1 1 2 2 1 2 1 2 
2 2 1 1 2 1 1 1 2 
1 2 2 1 1 2 2 1 2 
1 1 1 2 1 2 2 1 2 
2 2 1 1 1 2 2 2 1 
1 1 2 2 2 1 2 1 2 
2 2 2 2 2 1 2 2 2 
2 2 1 1 1 2 2 1 1 
2 2 1 1 1 2 1 1 1 
2 1 2 1 2 2 2 2 2 
1 1 1 2 1 1 2 2 1 
1 2 2 1 1 1 2 2 2 
1 2 2 2 1 2 1 1 2 
1 2 2 1 1 2 1 2 2 
1 2 2 1 1 1 1 2 1 
2 2 1 2 1 1 1 2 1 
2 1 2 2 1 2 1 2 2 
2 1 2 1 1 1 1 1 2 
2 1 1 1 2 1 1 2 1 
1 1 1 2 1 1 1 2 2 
1 2 1 1 1 2 1 2 2 
2 1 1 2 2 1 2 1 2 
1 2 1 1 2 2 2 1 1 
1 1 1 1 1 1 1 1 2 
1 1 2 1 1 1 1 2 1 
2 1 1 2 1 2 2 1 2 
2 1 1 1 1 2 1 1 1 
1 1 2 1 1 1 2 1 1 
1 2 1 2 1 2 2 2 1 
2 
i 3 1000 int
-74 0 1 39 0 0 -100 0 1 
92 1 0 -102 0 0 -60 0 0 
-135 0 1 153 1 1 158 1 1 
-47 0 0 -98 0 1 -102 0 1 
-24 0 0 -116 0 1 193 1 1 
-16 0 1 1 0 0 138 1 0 
-89 0 0 143 1 0 -38 0 1 
-35 0 1 126 1 1 -76 0 1 
153 1 1 -122 0 0 187 1 0 
-37 0 1 163 1 0 -40 0 0 
164 1 0 -27 0 1 -43 0 0 
184 1 1 25 0 0 -95 0 1 
-51 0 1 -46 0 1 97 1 0 
-32 0 1 219 1 0 10 0 1 
-79 0 2 -47 0 1 -49 0 0 
-60 0 2 -35 0 0 -64 0 1 
-47 0 1 139 1 0 48 0 0 
94 1 0 -17 0 0 129 1 0 
-85 0 0 -1 0 1 -88 0 1 
-99 0 1 -25 0 0 -5 0 0 
-35 0 0 -87 0 0 -106 0 1 
-177 0 0 -137 0 0 -43 0 0 
-135 0 1 -83 0 0 23 0 0 
222 1 1 -17 0 0 -185 0 1 
-88 0 0 -42 0 0 -25 0 0 
35 0 0 20 0 0 -48 0 0 
56 1 1 12 0 0 -42 0 0 
197 1 1 214 1 0 216 1 0 
4 0 0 243 1 0 -22 0 -1 
-21 0 -1 205 1 1 -89 0 0 
126 1 0 -38 0 1 -130 0 0 
-135 0 0 26 0 0 8 0 1 
-83 0 0 248 1 1 130 1 0 
197 1 1 141 1 0 -49 0 0 
-59 0 1 -65 0 0 167 1 1 
294 1 0 -61 0 0 88 1 -1 
79 1 0 -88 0 0 -72 0 0 
-15 0 0 113 1 0 155 1 0 
33 0 -1 -5 0 0 156 1 0 
-14 0 0 -135 0 1 12 0 0 
-21 0 0 -76 0 0 -8 0 0 
123 1 -1 -173 0 0 234 1 0 
-178 0 -1 -137 0 0 -149 0 0 
15 0 0 -95 0 0 3 0 0 
-132 0 0 38 0 0 -101 0 0 
-127 0 0 -7 0 0 153 1 0 
-6 0 0 -135 0 0 -85 0 0 
126 1 0 -37 0 0 55 0 0 
-148 0 0 -46 0 0 18 0 -1 
-96 0 1 -131 0 -1 -141 0 -1 
-16 0 0 -91 0 0 181 1 0 
-4 0 -1 201 1 0 -48 0 0 
130 1 0 -117 0 0 -73 0 0 
22 0 -1 60 0 0 -130 0 0 
119 1 -1 -44 0 -1 63 1 -1 
161 1 0 -66 0 1 -51 0 0 
-43 0 0 12 0 -1 -119 0 -1 
102 1 1 -84 0 -1 -54 0 0 
-78 0 0 -30 0 1 -63 0 0 
-87 0 -1 -188 0 0 -41 0 0 
-134 0 0 16 0 0 -48 0 0 
-18 0 0 141 1 0 137 1 -1 
14 0 -1 -38 0 -1 -106 0 0 
-26 0 0 -38 0 0 64 0 0 
-1 0 -1 -37 0 0 47 0 0 
-249 -1 0 44 0 -1 -45 0 0 
9 0 0 -111 0 -1 -37 0 0 
-38 0 0 -13 0 -1 26 0 -1 
-123 0 0 114 1 -1 190 1 0 
205 1 0 13 0 -1 -51 0 0 
-17 0 -1 168 1 0 -84 0 0 
-50 0 0 -202 0 -1 -3 0 -1 
-47 0 0 143 1 0 -68 0 1 
201 1 0 -86 0 0 -79 0 0 
-113 0 0 -136 0 -1 -50 0 0 
94 1 -1 164 1 0 -51 0 0 
16 0 -1 -32 0 0 105 1 -1 
185 1 -1 -61 0 -1 7 0 0 
-77 0 0 91 0 -1 -12 0 0 
-75 0 0 -106 0 -1 -78 0 0 
32 0 0 56 0 -1 -139 0 -1 
-41 0 0 -5 0 -1 -89 0 -1 
-106 0 -1 -14 0 -1 48 0 -1 
-234 -1 0 -10 0 -1 15 0 -1 
-68 0 0 54 0 0 -108 0 -1 
-129 0 -1 -118 0 -2 -46 0 0 
-17 0 0 -24 0 0 99 1 -1 
91 0 0 -37 0 0 253 1 0 
90 1 -1 -96 0 -1 -94 0 0 
64 0 -1 -77 0 0 172 1 -1 
-208 -1 2 29 0 0 -71 -1 1 
-18 0 1 1 0 0 -65 -1 1 
279 1 1 -13 0 1 -87 -1 2 
70 0 0 29 0 0 23 0 1 
-66 -1 1 50 0 0 -163 -1 0 
-195 -1 1 161 0 1 27 0 1 
17 0 1 -111 -1 0 106 0 -1 
149 0 1 8 0 0 -201 -1 0 
53 0 0 -45 0 0 59 0 0 
-117 -1 -1 -26 0 0 157 0 2 
37 0 1 -12 0 0 28 0 0 
75 0 0 -186 -1 0 85 0 0 
-163 -1 1 34 0 1 85 0 0 
-110 -1 1 -208 -1 -1 -48 0 1 
-17 0 0 -26 0 1 -3 0 0 
-31 0 1 111 0 1 -190 -1 1 
161 0 1 -118 -1 0 23 0 0 
-192 -1 0 78 0 0 139 0 0 
-158 -1 1 91 0 0 64 0 0 
97 0 -1 162 0 0 142 0 1 
148 0 0 16 0 0 30 0 1 
-14 0 1 -92 -1 0 130 0 0 
-88 0 1 -16 0 1 -10 0 0 
18 0 0 -108 -1 1 10 0 1 
-282 -1 0 43 0 0 -10 0 0 
5 0 0 75 0 -1 -82 -1 1 
-13 0 1 20 0 -1 78 0 0 
15 0 0 -56 -1 1 51 0 0 
37 0 1 123 0 0 96 0 -1 
10 0 0 -35 0 1 -15 0 0 
-8 0 0 58 0 0 -86 -1 0 
104 0 0 -125 -1 1 -6 0 0 
33 0 0 121 0 1 125 0 0 
96 0 0 101 0 0 -223 -1 1 
90 0 1 82 0 0 14 0 -1 
-126 -1 0 30 0 0 85 0 0 
73 0 -1 -177 -1 1 -121 -1 0 
-98 -1 0 38 0 -1 29 0 0 
103 0 0 -89 -1 0 132 0 0 
57 0 1 108 0 0 45 0 -1 
55 0 0 -142 -1 0 67 0 0 
-174 -1 0 -45 -1 0 93 0 0 
-180 -1 -1 80 0 0 -76 0 0 
115 0 -1 75 0 0 -175 -1 -1 
-216 -1 1 77 0 -1 -93 -1 0 
85 0 0 -55 0 1 -12 0 0 
57 0 0 45 0 -1 43 0 1 
75 0 1 94 0 0 73 0 -1 
60 0 0 24 0 -1 34 0 0 
97 0 0 1 0 -1 81 0 -1 
-159 -1 -1 64 0 0 51 0 -1 
57 0 0 -161 -1 0 -136 -1 -1 
36 0 -1 50 0 0 34 0 -1 
74 0 0 44 0 0 29 0 0 
-120 -1 0 -18 0 0 306 1 0 
50 0 0 118 0 -1 41 0 0 
-133 -1 -1 43 0 -1 116 0 -1 
116 0 0 7 0 0 -126 -1 0 
13 0 0 158 0 0 148 0 0 
196 0 0 -197 -1 0 7 0 -1 
65 0 0 -129 0 0 63 0 -1 
85 0 0 63 0 0 -75 0 0 
-189 -1 -1 -174 -1 -1 56 0 0 
-183 -1 0 113 0 -1 65 0 0 
2 0 0 -8 0 0 83 0 0 
43 0 -1 -116 -1 0 -2 0 -1 
32 0 -1 -77 -1 0 -175 -1 0 
-156 -1 1 -14 0 0 2 0 -1 
95 0 -1 171 0 -1 -26 0 -1 
25 0 0 -17 0 0 139 0 0 
24 0 0 -10 0 0 -105 -1 -1 
75 0 0 -141 -1 0 60 0 0 
101 0 -1 93 0 -1 3 0 0 
-100 -1 0 96 0 0 -83 -1 0 
-141 -1 0 58 0 0 10 0 -1 
17 0 -1 -121 -1 0 -29 0 -1 
-38 0 0 -162 -1 0 84 0 -1 
71 0 -1 61 0 -1 77 0 -1 
-28 0 0 -12 0 -1 -122 -1 0 
37 0 0 -24 0 -1 36 0 -1 
-170 -1 1 -73 0 0 -83 0 1 
-51 0 1 -72 0 1 126 1 0 
99 1 1 111 1 0 118 1 0 
119 1 0 -89 0 2 -139 0 1 
-121 0 2 -73 0 1 -79 0 1 
-57 0 1 -72 0 1 -143 0 0 
183 1 0 -22 0 0 -26 0 0 
88 1 0 -104 0 1 187 1 0 
-44 0 0 -102 0 0 -16 0 1 
-42 0 1 -24 0 0 174 1 0 
-128 0 1 -13 0 0 -48 0 1 
23 0 1 -40 0 0 144 1 0 
173 1 0 -30 0 0 -17 0 0 
-112 0 0 -39 0 0 17 0 0 
6 0 1 59 0 0 -27 0 1 
-109 0 1 -103 0 0 -15 0 1 
38 0 1 148 1 0 -13 0 0 
-62 0 1 122 1 0 -66 0 1 
-69 0 1 -108 0 0 166 1 0 
-108 0 1 -35 0 1 -50 0 1 
-82 0 0 255 1 0 -255 -1 -1 
162 1 0 -132 0 0 -58 0 0 
-129 0 0 -22 0 1 -57 0 1 
-131 0 1 -58 0 0 -32 0 1 
20 0 0 -9 0 -1 136 1 0 
-21 0 1 -104 0 0 16 0 0 
-114 0 1 -103 0 1 -52 0 0 
-44 0 0 -43 0 0 -52 0 0 
-44 0 1 -38 0 1 109 1 0 
-19 0 0 151 1 -1 124 1 0 
225 1 0 -52 0 1 42 0 -1 
166 1 -1 -53 0 1 139 1 0 
-11 0 1 -24 0 1 -61 0 1 
-136 0 0 -60 0 1 13 0 0 
7 0 0 148 1 -1 148 1 -1 
-97 0 0 -92 0 0 159 1 0 
-86 0 0 -60 0 1 -97 0 1 
-170 0 0 -1 0 0 23 0 0 
171 1 1 -101 0 0 -56 0 0 
69 0 0 166 1 -1 -24 0 0 
50 0 -1 -62 0 1 18 0 0 
176 1 0 138 1 0 -60 0 0 
179 1 -1 150 1 1 -109 0 0 
-148 0 0 54 0 -1 -26 0 0 
-103 0 1 -94 0 1 14 0 0 
188 1 0 -41 0 0 31 0 0 
4 0 -1 31 0 -1 27 0 0 
-8 0 1 160 1 0 25 0 1 
-76 0 0 -155 0 0 -76 0 0 
-62 0 1 -71 0 0 106 1 -1 
255 1 1 116 1 0 173 1 0 
-119 0 -1 -145 0 0 120 1 0 
-124 0 0 -37 0 0 -94 0 0 
190 1 -1 -53 0 1 23 0 -1 
107 1 0 36 1 -1 -57 0 0 
-150 0 0 33 1 0 -64 0 0 
-127 0 0 -12 0 0 47 0 0 
-123 0 0 -8 0 -1 -93 0 1 
-68 0 1 14 0 -1 73 0 0 
97 1 -1 -66 0 0 -16 0 1 
144 1 0 -40 0 0 57 0 0 
194 1 0 82 1 0 -110 0 0 
-17 0 1 -123 0 0 -3 0 -1 
48 0 -1 -56 0 -1 -121 0 0 
17 0 0 39 0 -1 -95 0 0 
-47 0 0 -34 0 1 0 0 0 
-80 0 1 -58 0 0 158 1 -1 
-85 0 -1 19 0 -1 -38 0 0 
-117 0 0 -4 0 -1 -131 0 0 
6 0 0 -19 0 0 -23 0 0 
-46 0 0 102 1 -1 -153 0 -1 
-13 0 -1 1 0 0 77 0 -1 
19 0 0 175 1 0 -23 0 0 
-12 0 0 -18 0 0 150 1 0 
-73 0 1 -41 0 0 -10 0 -1 
42 1 0 -90 0 0 -39 0 -1 
-111 0 0 42 0 0 -99 0 0 
-15 0 -1 161 1 0 3 0 0 
-38 0 -1 -20 0 0 242 1 -1 
-27 0 1 -15 0 0 103 0 -1 
47 0 -1 55 0 0 26 0 0 
135 0 0 -208 -1 1 -57 0 1 
117 0 0 -206 -1 0 41 0 0 
173 0 0 131 0 1 164 0 1 
-106 -1 1 0 0 0 21 0 1 
-109 -1 1 -16 0 0 111 0 1 
95 0 0 10 0 0 76 0 1 
-49 -1 0 65 0 0 42 0 1 
72 0 0 61 0 0 69 0 0 
17 0 0 67 0 0 31 0 0 
-41 0 0 242 1 0 -160 -1 0 
95 0 0 18 0 0 -4 0 1 
-14 0 0 104 0 0 125 0 0 
129 0 1 104 0 1 -11 0 0 
23 0 0 44 0 0 -295 -1 0 
-58 -1 1 79 0 -1 30 0 0 
145 0 0 27 0 0 109 0 -1 
126 0 0 42 0 -1 -109 -1 0 
122 0 1 18 0 1 28 0 1 
37 0 0 93 0 -1 0 0 0 
48 0 0 -173 -1 1 22 0 0 
62 0 1 132 0 0 68 0 0 
0 0 1 52 0 0 8 0 0 
257 1 1 -155 -1 0 36 0 0 
85 0 -1 95 0 0 69 0 0 
85 0 0 84 0 0 -138 -1 0 
-48 0 0 107 0 0 -22 0 0 
-161 -1 0 -58 0 0 63 0 0 
69 0 0 50 0 -1 13 0 0 
-26 0 0 3 0 1 94 0 0 
-160 -1 -1 3 0 1 145 0 -1 
21 0 0 -76 -1 1 -161 -1 1 
-32 -1 1 117 0 0 132 0 1 
85 0 0 169 0 0 -113 -1 0 
-104 -1 1 41 0 0 116 0 -1 
71 0 -1 -139 -1 0 22 0 0 
46 0 0 -214 -1 1 -162 -1 0 
-2 0 0 60 0 0 49 0 0 
35 0 0 -230 -1 0 75 0 0 
57 0 0 -159 -1 0 62 0 0 
8 0 0 30 0 -1 80 0 -1 
126 0 0 47 0 0 86 0 0 
-203 -1 1 -3 0 0 35 0 0 
101 0 0 311 1 0 32 0 0 
66 0 0 37 0 0 48 0 0 
-95 -1 0 71 0 0 53 0 0 
77 0 0 75 0 0 65 0 -1 
-103 -1 1 -33 0 0 138 0 0 
74 0 0 -105 -1 0 -175 -1 0 
59 0 -1 152 0 0 49 0 -1 
17 0 -1 137 0 0 18 0 -1 
-203 -1 -1 -174 -1 -1 54 0 0 
95 0 0 68 0 0 79 0 0 
-221 -1 -2 13 0 -1 69 0 -1 
-23 0 -1 43 0 -1 106 0 0 
17 0 0 43 0 -1 80 0 1 
74 0 -1 -195 -1 0 -167 -1 0 
48 0 -1 31 0 0 93 0 1 
46 0 0 -141 -1 -1 22 0 0 
135 0 -1 -109 -1 0 0 0 -1 
22 0 0 213 1 -1 75 0 0 
-127 -1 0 120 0 0 -138 -1 0 
-133 -1 0 -17 0 0 -7 0 0 
89 0 0 108 0 0 66 0 0 
-2 0 1 -35 0 0 -196 -1 0 
-143 -1 -1 35 0 0 -256 -1 -1 
-29 0 0 -124 -1 -1 -211 -1 -1 
-211 -1 -1 -48 -1 0 -158 -1 -1 
72 0 -1 88 0 0 99 0 0 
12 0 0 -11 0 0 -31 0 0 
41 0 -1 37 0 0 44 0 0 
135 0 -1 125 0 -1 -251 -1 0 
139 0 0 -239 -1 0 54 0 0 
22 0 0 40 0 0 -44 0 0 
-226 -1 0 -149 -1 0 117 0 -1 
-150 -1 -1 -58 -1 0 43 0 -1 
60 0 -1 37 0 0 75 0 -1 
10 0 0 -121 0 -1 81 0 -1 
-164 -1 -2 336 1 -1 -204 -1 -1 
131 0 0 39 0 -1 95 0 -1 
38 0 -1 -151 -1 0 10 0 0 
14 0 -1 -83 -1 0 -99 -1 0 
-77 -1 0 56 0 0 78 0 -1 
-109 -1 0 
v 3 1000 double
-220.59545754 16.75832713 34.157892183 -42.544602279 -3.4089637526 22.015010037 -418.89372637 -6.855379105 -20.315964492 
-316.29397427 2.8934402854 8.6543034433 -460.64748818 7.9371796226 23.185524011 -374.79971287 -22.812274393 10.679282907 
-392.82246759 14.444453477 -4.5214585646 -383.86927763 3.2625554652 -18.261999497 -454.21895432 0.98726968605 3.9920719892 
-179.44453973 -3.2507048299 4.7687079626 -320.93707253 22.793956375 37.989968114 -369.9477768 7.7295960812 29.535284735 
-154.09858419 8.9120833494 10.533095761 -301.73174152 18.386083211 17.071355227 -176.34765466 6.5424174684 -1.5642748236 
-171.38397552 -22.846519667 -17.59030183 -374.81735061 -1.7347387585 -2.3625882321 -268.32953444 5.2456211879 20.314939711 
-139.08112939 -2.3946428844 -28.813016109 -423.00769577 1.0199644292 21.246334995 -153.04786518 29.539377913 0.12373044877 
-229.585044 -6.5466413401 29.532861091 -478.83759689 22.965688731 4.4968022115 -337.70494512 11.600051689 12.025387489 
-235.14337495 -6.319808975 6.9152066322 -474.53006699 1.1297149711 -16.829867747 -224.0339962 24.929146982 -1.0280881955 
-229.29570581 -0.37101835964 1.9552688509 -441.46671599 0.57655197996 2.7288910615 -318.05881265 9.6655084124 10.099341419 
-505.48770263 -6.3013359131 11.981204203 -416.8531258 7.4038060603 -9.290307339 -125.45634019 3.8501364692 8.97943273 
-486.2336865 1.4370549049 1.9406993547 -152.88599771 9.1845614669 5.2673326296 -320.73863523 12.504346008 5.1822784026 
-43.381845796 -8.7643846666 -8.4929867844 -116.73520473 -5.3637268434 1.458659125 -453.22248949 -0.79018230962 -12.621415231 
-272.4914793 26.36757695 -14.795380722 -140.41255697 -5.3050531018 -5.3622377019 -147.12744378 -23.538582677 15.050294725 
-461.27490253 -14.015398161 -17.082058819 -162.26191622 -11.322000252 6.0000390171 -243.38393704 -5.5417141163 3.0761221927 
-333.70469537 3.6000441031 39.513898115 -1.2593356587 -18.458043748 -0.58969624054 -453.56788368 -5.6744232574 17.197986459 
-69.748801946 4.9184692325 -19.089883888 -122.26936209 3.3360095696 24.866855096 -269.67190601 -6.1839520059 16.817536268 
-464.44231814 8.3765905333 1.2637555859 -169.3980179 26.694816691 16.647204724 -441.46649352 14.05559433 3.1566246425 
-399.2890789 17.201527288 -20.657646252 -237.81829104 2.0815911563 -24.010732248 -439.57446514 22.332246332 -22.051000192 
-371.94535541 -6.8511395248 21.509472685 -108.17145063 16.406498035 -5.3530612142 -95.065096513 -23.201451059 7.201796464 
-212.50325253 -9.6160181301 6.79672781 -311.1817244 5.8237982242 7.2753526662 -339.43364061 -5.2613003261 24.458233727 
-397.45390162 13.155900056 -20.070672712 -345.32843602 16.449761513 -11.076504331 -333.51498733 24.882247602 35.566035263 
-332.50284532 6.5086664143 12.211968243 -256.7325416 -0.22988068628 0.5462603889 -214.64162556 -21.289372068 7.6195299097 
-333.88736608 -21.561132336 -0.75336448393 -106.89617389 -5.5672270107 -2.4686426597 -437.43030036 -5.2329482277 -0.14063812537 
-475.74844656 11.580324508 -17.296650025 -152.57416991 -19.566084451 1.7351861065 -335.76617259 17.105473123 -19.704820835 
-406.33074384 -2.156464152 6.574248514 -46.345814122 19.136077796 -9.7087374167 -275.01601058 10.629931603 14.998741825 
-465.73970989 18.966558778 -26.954725827 -107.18231163 -5.1670509146 3.4806796064 -236.00858759 22.58312941 26.688740297 
-150.36887384 -17.317554027 -14.237364329 -237.07782309 -3.3413203681 17.738414584 -63.463156155 26.849755661 -2.8019488217 
-79.570452963 -13.739753242 5.5877489549 -110.1908702 19.96439627 20.750884089 -114.29156717 -21.132171846 -10.2862095 
-176.04558624 21.895753007 -25.008980952 -386.23560297 6.6497421057 -7.4672046154 -159.92033228 3.9346670889 -10.555624628 
-358.28333481 21.259876838 28.966481443 -97.450239939 -7.6970431058 15.637144106 -282.52766007 -6.9719044316 0.012069943056 
-456.02497286 -5.0131396834 -38.640467678 -10.406595918 -4.8256132129 -5.7526246657 -150.0162878 -13.619695799 4.7829564156 
-486.04617431 29.238830713 -11.122201082 -269.68153908 13.350480423 18.698878207 -302.36761545 -7.8124503373 16.470764821 
-136.72776749 15.279301838 5.750468413 -453.98522266 -2.6099810618 -20.875638899 -165.33255851 -16.192615669 -6.7355334759 
-0.14647254616 -15.241066661 6.6263594826 -292.06764266 -17.579100748 -4.2839506937 -235.07202496 4.7239562336 -4.8049399341 
-19.755601642 -22.349349255 6.501373653 -268.84717023 4.3695270041 33.935517379 -350.27372095 1.4387205077 -20.8977367 
-445.85515304 -12.148542509 -17.468557893 -373.65056407 -7.0855213728 -28.163539263 -356.20392996 0.37904417905 -18.949930546 
-20.585473849 -20.52535099 -25.735686582 -436.54929128 8.5847634876 -15.254933877 -399.8492119 -6.3052253975 -14.326052461 
-17.929223226 33.764320923 20.573261246 -208.13020042 8.1444595729 -20.263048454 -387.13041959 18.001597363 16.068083222 
-165.64561493 -10.166488117 16.510940973 -427.43418639 -4.2611049414 30.913058713 86.178161093 -25.713266274 -0.11964070891 
-314.75434107 29.385565256 -25.897695347 -163.40087625 -17.25712807 1.1979701544 -126.24652297 17.615921361 24.220805379 
-324.87706318 6.9183758189 4.1566168819 -437.63067345 -5.9948157869 13.959827938 -296.7193425 5.7433282087 -13.17054254 
-467.95022762 -13.48842595 26.908399068 -230.30914687 -13.014381766 -18.198147656 -439.12449438 -10.618007932 -2.641452155 