ITEM: TIMESTEP
4000
ITEM: NUMBER OF ATOMS
1000
ITEM: BOX BOUNDS xy xz yz pp pp pp
0 10 0
0 10 0
-0 10 0
ITEM: ATOMS id type type x y z ix iy iz vx vy vz fx fy fz omegax omegay omegaz radius 
13 1 1 2.39544 0.614253 1.43269 -5 0 0 -359.763 9.11658 13.5127 -4576.99 -3928.01 -1716.96 0 0 0 0.5 
873 2 2 3.0092 2.89264 1.17775 -1 0 0 -50.3245 -9.09569 -9.55196 -887.902 -163.403 -1122.11 0 0 0 0.5 
11 1 1 1.87959 4.08377 1.87893 0 0 0 -40.1455 1.41273 -8.43245 690.274 560.338 306.415 0 0 0 0.5 
231 1 1 1.78113 2.54182 0.221688 -2 0 1 -124.037 9.70434 2.22165 -181.41 3243.18 16.7606 0 0 0 0.5 
273 1 1 0.541361 1.03831 1.20161 -5 0 1 -370.858 17.1133 -36.2777 -238.204 -331.325 1778.04 0 0 0 0.5 
19 1 1 1.28919 1.60427 0.47982 -3 0 0 -202.322 -23.1734 19.4634 -2206.25 -635.263 1512.63 0 0 0 0.5 
523 2 2 2.30816 0.613077 0.471589 -3 0 1 -309.578 1.54912 -7.83954 -2984.47 3340.39 -583.453 0 0 0 0.5 
41 1 1 2.91411 1.62579 0.803127 -4 0 0 -210.343 26.1653 14.199 -1434.14 2388.7 1420.15 0 0 0 0.5 
293 1 1 4.76215 1.39792 0.24186 -16 0 0 -322.432 23.1459 -8.38432 4550.36 -2669.33 -2248.06 0 0 0 0.5 
770 2 2 3.51979 1.97745 1.75453 -2 0 0 -173.424 9.02281 -8.94836 -2649.47 2785.3 -1023.15 0 0 0 0.5 
98 1 1 2.5928 4.58182 1.39116 0 0 0 -18.7845 -18.1392 0.948624 -843.347 -557.566 215.138 0 0 0 0.5 
130 1 1 1.08038 2.43258 1.65887 -1 0 0 -94.2009 -8.1778 -17.4913 9.26682 82.5263 -4.28158 0 0 0 0.5 
697 2 2 2.42362 3.41135 1.7235 0 0 0 -43.938 -10.5466 -0.713044 169.579 -256.695 446.311 0 0 0 0.5 
378 1 1 2.02214 3.03863 0.985603 -1 0 1 -54.7494 -10.9286 2.31627 312.467 -612.362 -89.4038 0 0 0 0.5 
413 1 1 1.93023 1.78885 0.0403183 -12 0 0 -227.866 -3.136 15.3166 2957.34 -1357.54 -878.996 0 0 0 0.5 
21 1 1 2.81384 0.185327 0.750281 -14 0 0 -383.9 -30.8486 7.70398 -1449.99 -2919.27 -1422.03 0 0 0 0.5 
416 1 1 4.65484 3.01987 1.97007 -1 0 0 -87.604 15.9291 -4.73646 436.564 100.883 1711.5 0 0 0 0.5 
370 1 1 0.340372 3.64553 0.733156 0 0 0 -34.2092 -9.83921 -11.3819 454.146 -289.928 -169.424 0 0 0 0.5 
506 2 2 0.676224 2.71576 0.0534359 -2 0 0 -90.4393 -3.23558 0.394729 0 0 0 0 0 0 0.5 
89 1 1 4.47845 4.30807 0.242592 0 0 1 -12.8925 -15.1855 1.06011 -158.589 -187.179 -526.33 0 0 0 0.5 
264 1 1 0.117936 4.57259 0.293753 0 0 0 -4.38436 -3.72723 2.36556 -319.847 -508.373 -109.726 0 0 0 0.5 
895 2 2 4.15566 0.330011 0.361515 -12 0 0 -394.171 -27.3468 -29.0702 -6610.15 333.604 1189.81 0 0 0 0.5 
262 1 1 3.46398 0.632767 1.25709 -5 0 0 -412.388 -4.4837 3.90604 -1583.34 181.741 3630.11 0 0 0 0.5 
100 1 1 2.13887 4.49458 0.583165 0 0 0 -6.89847 2.57836 -7.65757 -474.843 116.739 78.8027 0 0 0 0.5 
232 1 1 4.35624 2.02833 0.556357 -2 0 1 -205.506 22.1224 -9.89443 -62.8667 -1322.81 -2731.11 0 0 0 0.5 
871 2 2 1.01605 3.95478 1.35181 0 0 0 -31.6185 1.07951 -6.29532 217.862 -1101.27 -178.082 0 0 0 0.5 
364 1 1 3.21162 4.42705 0.677932 0 0 0 -16.8803 -7.69149 -4.22674 -542.009 342.503 -517.513 0 0 0 0.5 
18 1 1 4.67437 3.28517 0.628241 -1 0 0 -45.9464 -8.98054 -2.65262 660.668 -938.138 56.3608 0 0 0 0.5 
362 1 1 0.167723 3.47513 1.86184 0 0 0 -55.429 -2.01072 -7.43221 -668.054 636.53 -603.359 0 0 0 0.5 
832 2 2 3.77772 3.6628 0.609496 0 0 0 -27.7446 -8.74286 -2.19913 -1071.25 -41.1371 108.539 0 0 0 0.5 
488 1 1 3.89918 0.442044 1.92304 -16 0 1 -466.134 -9.97136 32.5128 1220.39 4368.03 944.397 0 0 0 0.5 
90 1 1 1.19193 4.44785 0.534475 0 0 0 -13.5459 -7.01106 -8.94043 25.4006 662.565 -148.734 0 0 0 0.5 
249 1 1 -0.00644544 2.0128 0.74677 -4 0 1 -142.972 -2.91367 8.06413 543.587 69.4483 14.8275 0 0 0 0.5 
119 1 1 4.37552 3.72239 1.39078 -1 0 0 -34.3151 -5.01959 -1.99466 -802.092 799.327 -800.176 0 0 0 0.5 
430 1 1 1.08265 3.32289 1.98829 0 0 0 -58.2535 -6.69917 9.12758 -1295.87 1377.8 -949.948 0 0 0 0.5 
485 1 1 3.23465 1.09191 0.48572 -10 0 1 -280.587 1.32257 -11.0306 596.967 -506.681 -1944.24 0 0 0 0.5 
257 1 1 3.77475 2.84104 1.75015 -1 0 0 -71.2136 8.9876 -12.3685 -182.497 -871.674 1260.31 0 0 0 0.5 
223 1 1 1.3531 3.566 0.631339 -1 0 0 -47.5059 -9.51864 -9.37255 127.402 -1220.76 -847.141 0 0 0 0.5 
797 2 2 1.17869 0.813379 1.94801 16 1 0 -404.18 10.463 -51.3662 3197.32 -4173.77 -3729.81 0 0 0 0.5 
99 1 1 1.62914 4.8116 1.34909 0 0 0 -13.496 13.0839 -14.442 -250.326 536.568 193.945 0 0 0 0.5 
798 2 2 4.65764 2.2789 1.42562 -5 0 0 -195.004 28.873 -0.283943 -109.066 -1420.38 -332.634 0 0 0 0.5 
616 2 2 0.728885 4.54621 1.7257 0 0 0 -5.06783 13.9092 9.33252 811.273 786.982 205.403 0 0 0 0.5 
371 1 1 3.42447 4.35814 1.62162 0 0 0 -13.9539 -10.9496 -15.6582 -352.265 -132.606 44.1298 0 0 0 0.5 
629 2 2 3.82128 1.33046 1.75262 -2 0 0 -221.346 -14.2458 -7.94647 -4794.14 -1955.2 -1120.57 0 0 0 0.5 
376 1 1 3.90204 2.46898 0.846994 -1 0 0 -120.369 17.9072 -5.01243 -6390.51 4081.61 -396.9 0 0 0 0.5 
147 1 1 4.19978 0.587044 1.07018 -9 0 0 -398.125 -9.77027 5.30882 1226.74 251.253 1611.94 0 0 0 0.5 
853 2 2 4.15175 4.60804 1.06089 0 0 0 -12.2295 -9.29379 -5.1733 -136.373 343.661 189.112 0 0 0 0.5 
120 1 1 4.39255 1.38665 1.15009 -3 0 0 -268.8 3.251 0.4338 1209.49 1454.95 -762.229 0 0 0 0.5 
496 1 1 0.997995 0.224963 2.83546 18 1 1 -525.341 -12.353 -10.6005 2537.84 4154.9 2910.92 0 0 0 0.5 
402 1 1 1.13295 1.18606 2.81453 -7 0 0 -329.464 12.8381 6.85945 -2010.47 -1726.66 4239.61 0 0 0 0.5 
6 1 1 1.75125 2.69568 2.37932 -1 0 0 -99.1021 25.8801 -1.14253 1509.81 -1524.77 998.684 0 0 0 0.5 
999 2 2 1.32918 2.35557 3.41297 -1 0 0 -104.918 16.4193 5.09393 1982.52 380.72 517.152 0 0 0 0.5 
313 1 1 0.890213 1.6788 2.10366 -3 0 0 -193.424 -5.08943 -16.5273 -3929.89 1723.51 -2278.4 0 0 0 0.5 
298 1 1 0.826353 0.824771 3.67285 -5 0 0 -425.197 24.5004 16.1359 -647.296 -876.104 1144.32 0 0 0 0.5 
517 2 2 0.950996 2.26342 2.65438 -1 0 0 -93.0171 -13.7959 -7.96787 -157.888 -1992.93 1533.4 0 0 0 0.5 
405 1 1 3.3647 2.93033 3.6165 -1 0 0 -46.9133 -11.2306 -8.80952 -29.9093 -1224.66 1339.98 0 0 0 0.5 
867 2 2 2.87269 1.33504 2.9387 -8 0 0 -332.357 14.3134 5.69219 0 0 0 0 0 0 0.5 
33 1 1 2.09164 0.0258981 2.49226 12 1 0 -614.761 22.5965 22.1045 1449.33 -1543.67 159.944 0 0 0 0.5 
136 1 1 2.03971 1.94245 2.01492 -3 0 0 -147.534 -6.48889 -18.0049 53.3958 -139.429 -67.4526 0 0 0 0.5 
431 1 1 2.48324 2.35583 2.91343 -1 0 0 -112.107 -9.84425 -6.69152 -1925.03 1090.65 0.470007 0 0 0 0.5 
876 2 2 4.69664 4.9098 3.43422 0 0 0 4.0567 7.45375 6.21544 -279.38 -405.729 408.954 0 0 0 0.5 
369 1 1 2.60239 3.42914 3.94754 -1 0 0 -36.611 1.80133 11.7867 315.276 -205.057 48.3745 0 0 0 0.5 
901 2 2 1.85296 3.22927 3.38163 0 0 0 -35.2302 -11.6642 9.91758 24.7999 -429.582 439.043 0 0 0 0.5 
171 1 1 1.87867 4.34457 3.35454 0 0 0 -0.115885 -8.10664 -5.55518 84.8221 13.3182 11.9112 0 0 0 0.5 
425 1 1 1.68873 1.80308 3.57375 -1 0 0 -148.427 -28.386 0.559032 -1642.27 640.994 -1588.46 0 0 0 0.5 
680 2 2 2.75291 3.28973 2.94242 -1 0 0 -53.7375 -5.74883 3.24242 -188.528 -871.12 -6.98163 0 0 0 0.5 
112 1 1 2.87629 4.46687 3.5718 0 0 0 -12.2765 -3.67456 20.4145 -614.614 -168.4 -2.84252 0 0 0 0.5 
889 2 2 2.57786 4.11853 2.57419 0 0 0 -25.7603 4.41738 -4.58861 914.283 -1635.6 -251.768 0 0 0 0.5 
512 2 2 3.27321 3.5398 2.1037 -1 0 0 -50.3271 17.2343 10.1701 47.7643 -108.495 722.029 0 0 0 0.5 
280 1 1 2.50149 2.04061 3.75498 -3 0 0 -142.755 23.7795 10.9699 2236.6 -1889.02 -1150.19 0 0 0 0.5 
266 1 1 0.421002 0.870896 2.10001 -7 0 0 -329.447 -13.887 14.3483 -4335.8 824.457 -901.071 0 0 0 0.5 
913 2 2 4.27583 4.04826 3.90147 0 0 0 -24.8808 2.20765 -3.58208 93.5206 -815.653 558.966 0 0 0 0.5 
970 2 2 1.62078 0.705177 2.42459 15 1 0 -494.528 35.4701 -5.89011 4816.05 -2563.92 -17.5807 0 0 0 0.5 
205 1 1 1.39772 0.446293 3.62787 -18 0 0 -417.27 -12.6341 21.4378 -3177.58 -3076.44 482.189 0 0 0 0.5 
806 2 2 0.605471 1.42586 3.03395 -15 0 0 -326.049 32.7201 12.9531 -1636.71 5174.14 -975.025 0 0 0 0.5 
690 2 2 2.08171 4.82872 2.47038 0 0 0 0.401998 -2.57054 4.30192 -175.333 555.813 -715.754 0 0 0 0.5 
899 2 2 3.29686 2.30269 2.72657 -3 0 0 -127.97 1.46708 -12.026 2373.3 -155.019 -545.077 0 0 0 0.5 
898 2 2 3.45492 3.87186 3.30193 0 0 0 -31.0389 -15.9322 -2.5439 -44.2124 -658.007 -260.5 0 0 0 0.5 
490 1 1 4.41958 0.9309 3.68921 -4 0 0 -269.002 -2.50358 -24.849 -3392.49 680.873 -222.842 0 0 0 0.5 
943 2 2 0.651158 2.69885 3.42902 0 0 0 -85.3425 4.46924 3.40785 -1610.91 688.532 152.91 0 0 0 0.5 
973 2 2 0.360557 2.84498 2.52529 0 0 0 -83.6448 2.25124 2.08676 -992.642 569.036 -44.9866 0 0 0 0.5 
95 1 1 0.213953 4.13526 2.53165 0 0 0 -10.6355 -11.6196 9.87835 101.232 -112.465 106.839 0 0 0 0.5 
891 2 2 1.52053 3.70179 2.69825 0 0 0 -18.544 -1.75211 -0.407197 415.227 -808.167 -258.588 0 0 0 0.5 
965 2 2 4.56632 3.01779 2.96715 -1 0 0 -68.3652 -15.0545 1.73498 -5969.21 4981.23 867.692 0 0 0 0.5 
528 2 2 1.17331 4.47387 2.44978 0 0 0 -4.64514 7.24035 8.93162 372.835 -351.633 1108.48 0 0 0 0.5 
641 2 2 0.204568 4.27138 3.49559 0 0 0 -5.03625 5.68649 7.45963 120.279 363.478 -172.285 0 0 0 0.5 
941 2 2 4.27695 3.92581 2.9644 -1 0 0 -24.9894 1.07941 -4.86177 319.383 -1195.76 -2.04162 0 0 0 0.5 
439 1 1 4.93642 4.07829 2.31191 0 0 0 -30.2841 1.13947 -3.91473 152.121 418.836 -724.38 0 0 0 0.5 
746 2 2 3.18328 4.8496 2.40016 0 0 0 3.7228 -12.1997 -8.62223 -320.733 -244.724 -171.792 0 0 0 0.5 
865 2 2 0.798589 3.59467 3.31906 0 0 0 -20.5744 -4.03218 -3.03072 184.653 -159.272 -307.596 0 0 0 0.5 
539 2 2 2.36165 1.21102 3.97421 -3 0 0 -220.68 -0.307568 -18.3531 5273.08 -2250.61 -35.3646 0 0 0 0.5 
521 2 2 3.82078 4.7995 3.73545 0 0 0 -1.30987 -3.08141 6.48398 -584.919 747.546 -40.3797 0 0 0 0.5 
543 2 2 4.27158 1.1567 2.15294 -4 0 0 -241.122 -2.13067 32.0362 -3558.52 -2119.31 -207.568 0 0 0 0.5 
284 1 1 3.10215 0.422875 2.09462 -15 0 0 -479.326 -4.75568 45.4811 2453.58 -75.5252 73.1559 0 0 0 0.5 
408 1 1 4.03977 4.84588 2.79131 0 0 0 -2.18055 -12.4695 8.72862 -383.466 1426.15 -32.1619 0 0 0 0.5 
410 1 1 4.16672 4.31435 2.07855 0 0 0 -21.5268 5.72557 -11.0501 -463.881 401.856 271.891 0 0 0 0.5 
672 2 2 4.27921 2.11731 2.24159 -3 0 0 -210.306 9.90844 10.9804 329.034 390.608 367.969 0 0 0 0.5 
716 2 2 4.42236 2.04134 3.48749 -4 0 0 -210.497 -6.44712 44.6171 646.374 -14.0521 549.05 0 0 0 0.5 
25 1 1 4.88947 0.854465 2.33767 -10 0 0 -285.226 -26.2401 0.857911 3610.28 -2304.31 1658.95 0 0 0 0.5 
117 1 1 4.90733 2.18165 2.81558 -4 0 0 -203.904 16.1628 27.6469 1309.96 -2266.81 -532.523 0 0 0 0.5 
718 2 2 4.13289 2.37294 5.97607 -2 0 0 -87.9669 14.7533 -15.3658 788.599 -910.82 2082.05 0 0 0 0.5 
161 1 1 2.23038 3.70277 5.0125 0 0 0 -38.4888 1.6153 8.4816 953.927 256.902 -1156.14 0 0 0 0.5 
570 2 2 1.91012 2.46435 4.30737 -5 0 0 -110.265 -9.76133 -2.35725 75.0733 -844.675 1655.29 0 0 0 0.5 
908 2 2 2.46069 2.31151 5.72475 -1 0 0 -90.7312 -2.80021 -7.01268 1224.91 -134.564 509.28 0 0 0 0.5 
944 2 2 1.64344 1.54529 5.37104 -3 0 0 -187.71 -10.4548 28.2487 -504.339 -149.334 -137.538 0 0 0 0.5 
340 1 1 2.85358 3.09761 4.90395 -1 0 0 -64.3038 -9.52756 4.28228 -1169.28 1070.86 107.024 0 0 0 0.5 
773 2 2 1.36514 3.05098 4.20238 -1 0 0 -72.1251 -4.16511 -2.29481 -1938.53 1506.67 -417.222 0 0 0 0.5 
852 2 2 4.06344 0.546553 4.44341 -7 0 0 -342.402 -5.20157 -15.8336 -325.779 1360.64 -2787.22 0 0 0 0.5 
154 1 1 0.784351 4.40342 4.82908 0 0 0 -18.3848 1.54173 -6.08594 410.572 35.3801 -180.526 0 0 0 0.5 
518 2 2 1.80024 2.59991 5.20705 -1 0 0 -79.7242 -8.57318 3.49882 -645.431 -517.94 -822.559 0 0 0 0.5 
396 1 1 2.2026 4.24961 4.26977 0 0 0 -28.367 7.66447 7.66841 334.464 42.4253 -875.95 0 0 0 0.5 
137 1 1 2.27031 0.706695 4.51205 -13 0 0 -344.028 -28.1746 -12.5243 4420.77 -4919.82 921.234 0 0 0 0.5 
900 2 2 3.70091 3.25614 4.65916 -1 0 0 -61.873 3.78511 16.1151 542.385 512.06 -283.484 0 0 0 0.5 
930 2 2 3.32068 2.53616 5.43509 -1 0 0 -83.5681 -3.53073 6.77264 320.55 -650.212 -365.175 0 0 0 0.5 
995 2 2 4.36825 1.23021 5.76153 -4 0 0 -196.356 -2.56615 -21.81 -4484.74 879.442 1345.73 0 0 0 0.5 
201 1 1 1.6617 1.3079 4.34399 -3 0 0 -192.909 -16.2577 12.9073 -5431.55 3919.26 -678.422 0 0 0 0.5 
805 2 2 2.49022 1.64733 4.89019 -4 0 0 -199.943 6.56099 11.2459 203.868 24.5684 -115.769 0 0 0 0.5 
411 1 1 1.03043 1.58812 4.77597 -2 0 0 -171.515 -12.7876 32.7143 -2895.13 424.445 232.355 0 0 0 0.5 
500 1 1 1.87637 3.7628 5.86613 0 0 0 -23.4033 -7.58393 -6.23348 -715.889 -369.852 893.001 0 0 0 0.5 
548 2 2 1.27551 2.74663 5.9976 -1 0 0 -71.3043 -2.34152 2.99022 -418.523 18.1522 232.744 0 0 0 0.5 
172 1 1 2.46561 0.60945 5.34923 -12 0 0 -376.057 -3.11853 8.04083 1159.38 483.009 -1363.3 0 0 0 0.5 
816 2 2 3.6565 3.50604 5.85194 0 0 0 -33.5205 -3.92277 6.52476 -78.521 -80.4017 -52.3539 0 0 0 0.5 
299 1 1 0.692421 2.01021 4.08091 -2 0 0 -116.477 -20.3423 -6.92251 88.151 398 -1284.15 0 0 0 0.5 
554 2 2 3.38722 1.26371 5.89335 -2 0 0 -188.265 -2.11135 4.2672 -308.259 10.5267 41.4198 0 0 0 0.5 
16 1 1 4.63554 1.34422 4.84995 -3 0 0 -180.174 -28.7079 2.33264 -290.381 -404.525 -975.433 0 0 0 0.5 
250 1 1 4.49543 3.19474 4.00722 -1 0 0 -78.375 -9.11829 18.8738 -1021.63 -673.109 880.925 0 0 0 0.5 
740 2 2 0.4294 2.49936 4.84798 -1 0 0 -85.9893 -6.59387 -0.820007 224.917 751.464 -279.315 0 0 0 0.5 
243 1 1 1.39072 3.4283 5.10109 -1 0 0 -40.2505 -2.6233 0.467489 -439.073 676.739 -99.4751 0 0 0 0.5 
446 1 1 -0.0335307 4.55599 5.24469 0 0 0 -7.70688 -1.59661 4.84795 251.863 -477.7 300.12 0 0 0 0.5 
268 1 1 3.38442 3.96133 4.27941 0 0 0 -30.1156 2.62446 -1.24905 -541.201 1144.36 -749.996 0 0 0 0.5 
445 1 1 0.557645 3.4562 4.67116 0 0 0 -25.8359 1.28862 -10.9366 -626.84 -753.945 -110.806 0 0 0 0.5 
594 2 2 4.19194 2.65116 5.05611 -2 0 0 -83.0579 -0.450957 -4.26219 231.585 -730.959 -503.993 0 0 0 0.5 
187 1 1 3.20695 2.32901 4.37075 -4 0 0 -133.346 -3.57781 17.3246 924.095 -624.394 -2003.57 0 0 0 0.5 
714 2 2 4.33766 0.230603 5.1053 17 1 0 -445.848 15.3003 36.9443 -144.624 -2176.7 1891.89 0 0 0 0.5 
43 1 1 0.750084 3.57542 5.75686 0 0 0 -38.537 -13.6416 10.8785 35.4255 704.466 519.008 0 0 0 0.5 
575 2 2 0.739675 0.169138 4.29025 17 1 0 -540.703 0.213199 45.7811 3166.32 2283.4 -3993.79 0 0 0 0.5 
737 2 2 4.34445 3.66534 5.30247 0 0 0 -39.7007 4.46325 5.79588 254.743 -922.119 -1159.29 0 0 0 0.5 
527 2 2 3.15773 4.92371 4.36611 0 0 0 -5.28685 4.82534 7.39784 -210.1 637.735 720.749 0 0 0 0.5 
811 2 2 0.949606 4.54148 5.8502 0 0 0 -2.68857 -4.87517 -4.82198 -414.216 -81.6098 -471.39 0 0 0 0.5 
817 2 2 4.16462 4.45809 4.76309 0 0 0 -13.6027 2.35833 -2.46715 -323.234 -313.781 -91.1081 0 0 0 0.5 
524 2 2 -0.0112626 2.77551 5.68498 -1 0 0 -77.8879 -13.6618 -2.26462 66.6349 -506.216 311.508 0 0 0 0.5 
678 2 2 1.23447 3.97242 4.09962 0 0 0 -21.6506 0.364595 -7.07382 323.658 214.7 -23.0822 0 0 0 0.5 
155 1 1 1.72066 4.47051 5.08123 0 0 0 -19.4639 9.89755 -3.16385 -19.5223 -263.618 1163.14 0 0 0 0.5 
435 1 1 3.94266 4.46568 5.74294 0 0 0 -8.82131 -7.07097 5.19869 -903.822 925.925 238.829 0 0 0 0.5 
914 2 2 2.715 4.57203 5.15271 0 0 0 -12.1563 -5.40131 2.25026 324.048 -244.75 425.127 0 0 0 0.5 
679 2 2 4.88177 4.37495 5.97508 0 0 0 -10.2618 -14.2644 6.40457 -516 141.467 69.0178 0 0 0 0.5 
180 1 1 1.13879 4.89753 4.00009 0 0 0 8.55268 7.44727 1.16879 593.882 -282.495 238.407 0 0 0 0.5 
270 1 1 3.26968 2.43592 6.38517 -1 0 0 -91.3416 -5.06314 2.72948 100.738 -102.866 693.353 0 0 0 0.5 
317 1 1 2.23792 4.09456 6.72166 0 0 0 -29.0959 -1.1973 -4.40153 1114.87 -492.577 1170.4 0 0 0 0.5 
217 1 1 2.27329 2.65273 6.52785 -1 0 0 -54.7825 -5.6398 14.2162 949.302 -300.101 -71.2311 0 0 0 0.5 
649 2 2 1.54518 2.99677 6.90113 -1 0 0 -59.5055 -8.13093 -0.00744832 -508.336 -218.107 175.318 0 0 0 0.5 
800 2 2 2.62418 0.391257 7.0017 16 1 -1 -356.359 -26.074 22.6829 225.625 -1476.05 -784.412 0 0 0 0.5 
24 1 1 3.76379 0.0633115 7.51679 16 1 -1 -371.209 -23.2265 -13.3172 0 0 0 0 0 0 0.5 
822 2 2 4.89528 2.6547 6.87953 -1 0 0 -99.9469 3.68746 3.38907 774.818 -803.564 -1150.03 0 0 0 0.5 
644 2 2 2.18053 1.04333 6.84834 22 1 0 -283.082 22.0595 -2.20529 -1131.96 265.914 -2238.04 0 0 0 0.5 
358 1 1 3.08666 3.84698 7.30082 0 0 0 -33.1189 8.58141 4.74625 24.1532 -89.7438 -42.3284 0 0 0 0.5 
335 1 1 0.512824 1.4336 7.70399 -3 0 0 -252.849 11.6636 11.3216 988.968 -1570.38 -512.991 0 0 0 0.5 
498 1 1 2.07897 0.381691 6.20216 20 1 0 -342.547 -20.017 -25.3149 20.8434 916.68 4723.42 0 0 0 0.5 
310 1 1 2.2017 3.52926 7.61471 0 0 0 -35.4237 -3.60972 -4.77919 65.5645 54.417 0.758076 0 0 0 0.5 
134 1 1 2.84098 2.79623 7.86197 -2 0 0 -70.3287 -0.173831 9.45845 -2342.71 1402.68 -738.671 0 0 0 0.5 
203 1 1 4.17036 1.6942 6.5717 -3 0 0 -145 -10.3 2.49651 158.34 1176.03 -1253.39 0 0 0 0.5 
318 1 1 2.75197 3.49317 6.059 0 0 0 -28.3954 -9.92978 3.90254 -293.11 -226.652 377.292 0 0 0 0.5 
42 1 1 2.34267 1.55011 6.0357 -2 0 0 -198.286 -8.96685 -22.9874 1678.23 -1107.92 2598.28 0 0 0 0.5 
97 1 1 4.09613 4.05027 7.5929 0 0 0 -25.0107 -2.59149 5.11995 600.72 -268.467 431.251 0 0 0 0.5 
320 1 1 4.55428 3.37935 6.24795 0 0 0 -35.1145 -8.88314 9.0525 -542.958 0.501939 209.344 0 0 0 0.5 
992 2 2 1.02671 0.910916 7.17976 -12 0 0 -318.663 -2.63412 -38.5458 587.275 -1078.72 -608.318 0 0 0 0.5 
116 1 1 3.01712 4.46209 6.09765 0 0 0 -13.2947 -6.32548 2.95907 30.0553 177.461 -7.37235 0 0 0 0.5 
406 1 1 0.451592 2.1005 7.22664 -1 0 0 -123.206 -6.18577 -18.9796 492.293 55.022 -2272.83 0 0 0 0.5 
329 1 1 0.486247 2.9576 6.64926 0 0 0 -64.0868 -7.55498 0.479858 0 0 0 0 0 0 0.5 
73 1 1 2.1104 4.83854 7.35487 0 0 0 7.88203 6.30867 2.63041 107.258 -566.157 -457.565 0 0 0 0.5 
62 1 1 1.96186 4.68921 6.01151 0 0 0 12.0087 -10.5147 -6.56672 230.725 17.5581 -1003.57 0 0 0 0.5 
633 2 2 3.5676 1.06646 7.24988 -4 0 0 -225.567 -9.74528 12.0074 0 0 0 0 0 0 0.5 
40 1 1 1.30379 3.96538 6.52054 0 0 0 -20.4834 -8.19906 0.0485187 -344.743 125.078 509.229 0 0 0 0.5 
828 2 2 4.31615 3.05816 7.53512 -1 0 0 -45.3855 -2.59789 10.8774 -1179.76 636.075 1004.06 0 0 0 0.5 
924 2 2 3.7908 4.28095 6.71004 0 0 0 -14.1071 -4.27019 6.84541 -161.085 -521.021 -952.701 0 0 0 0.5 
727 2 2 4.38888 0.811787 6.62891 -3 0 0 -277.681 -29.1791 32.5411 -638.551 -381.872 -1082.2 0 0 0 0.5 
354 1 1 1.17031 3.6317 7.41426 0 0 0 -35.5005 2.50588 0.771495 193.366 46.1617 306.877 0 0 0 0.5 
656 2 2 1.39862 1.7734 7.79542 -4 0 0 -270.51 33.473 -49.4552 2515.42 -2907.19 1597.74 0 0 0 0.5 
152 1 1 0.365612 3.96008 6.62715 0 0 0 -15.4972 -9.11728 5.33855 -329.419 -324.076 218.528 0 0 0 0.5 
611 2 2 1.26303 4.86047 6.89858 0 0 0 8.59627 2.22622 2.56491 -65.2941 -135.677 -272.673 0 0 0 0.5 
536 2 2 4.70313 0.233117 7.81622 -11 0 -1 -443.964 -0.439603 -45.4678 -366.837 -1483.76 538.096 0 0 0 0.5 
352 1 1 3.7489 3.31244 6.80099 0 0 0 -47.5478 -14.2691 0.498835 24.9011 285.83 465.013 0 0 0 0.5 
596 2 2 4.07278 1.59356 7.93776 -5 0 0 -115.51 -13.1196 30.0731 203.955 -305.808 -59.1444 0 0 0 0.5 
348 1 1 3.79098 2.19178 7.17747 -1 0 0 -98.0316 5.92586 18.4609 -450.757 635.715 69.1404 0 0 0 0.5 
662 2 2 0.421765 4.17963 7.57488 0 0 0 -33.1686 -0.477955 5.68836 277.679 -95.3866 -771.724 0 0 0 0.5 
863 2 2 0.19608 2.75697 7.63352 -1 0 0 -73.3909 2.25795 -8.81936 144.066 925.202 487.064 0 0 0 0.5 
226 1 1 1.12789 2.63176 7.97585 -2 0 0 -69.0629 -14.502 -19.0092 -1638.48 5370 1101.94 0 0 0 0.5 
681 2 2 4.79221 4.32463 6.94591 0 0 0 -20.0203 -1.54579 7.52115 -279.051 138.038 218.303 0 0 0 0.5 
956 2 2 0.23802 1.15351 8.96755 -3 0 0 -234.857 -10.7949 30.7288 1343.26 -919.456 2248.74 0 0 0 0.5 
377 1 1 2.2332 0.0941624 9.20778 -12 0 0 -474.328 3.44033 -6.51409 5730.15 -2231.49 1271.53 0 0 0 0.5 
272 1 1 4.30788 1.17319 9.99358 -17 0 -1 -329.777 -18.7135 -20.8431 -1403.47 -1938.02 280.672 0 0 0 0.5 
677 2 2 4.24898 4.74162 8.29599 0 0 0 -5.87213 -0.944997 2.32446 -99.1188 6.5253 -282.911 0 0 0 0.5 
27 1 1 1.53089 2.01134 8.65862 -5 0 0 -153.831 22.7184 27.7272 -1648.34 2110.06 -4702.48 0 0 0 0.5 
598 2 2 2.49602 4.25752 9.75381 0 0 0 -4.26373 -5.10631 1.49854 227.379 -454.861 99.8341 0 0 0 0.5 
227 1 1 1.89434 3.10523 8.57495 -3 0 0 -76.4198 10.744 5.62391 0 0 0 0 0 0 0.5 
129 1 1 0.161119 1.9006 9.61313 -3 0 0 -279.557 23.1394 2.51994 36.3939 -353.569 -305.526 0 0 0 0.5 
365 1 1 2.07888 0.577765 8.06736 -10 0 0 -350.735 -21.7827 -12.2262 -1272.92 -799.907 -57.3261 0 0 0 0.5 
849 2 2 2.74433 3.81215 8.96989 0 0 0 -27.7769 -3.09608 2.87867 -746.74 13.2527 -884.037 0 0 0 0.5 
379 1 1 2.15377 3.32104 9.7906 0 0 0 -48.6876 -0.239774 -6.5891 -198.734 -300.384 417.244 0 0 0 0.5 
241 1 1 2.83885 0.243581 8.03791 13 1 0 -360.269 -21.3 -2.75191 2005.7 -881.977 -77.7268 0 0 0 0.5 
511 2 2 3.25742 3.4544 9.74554 -1 0 -1 -37.5642 1.86731 -2.46291 43.6732 72.4741 787.972 0 0 0 0.5 
342 1 1 2.33462 4.34732 8.16666 0 0 0 -12.1295 -12.0189 4.8009 509.831 -402.514 -551.327 0 0 0 0.5 
382 1 1 4.46912 2.31441 9.65744 -1 0 -1 -114.12 -6.37607 -14.4182 -1695.15 -2695.41 718.322 0 0 0 0.5 
125 1 1 2.37941 0.952388 9.00804 -5 0 0 -405.985 27.5601 -1.52125 5520.5 -5319.64 -1605.6 0 0 0 0.5 
224 1 1 1.08121 0.927495 8.79985 -5 0 0 -261.203 -3.05266 -2.01534 -1328.18 3363.99 -838.941 0 0 0 0.5 
608 2 2 1.76719 4.92197 8.70639 0 0 0 -0.751869 -4.34215 -9.24477 -632.284 44.2044 238.179 0 0 0 0.5 
265 1 1 3.46164 3.50295 8.46002 0 0 0 -38.8747 -6.68524 -1.57424 168.363 103.925 -737.089 0 0 0 0.5 
888 2 2 1.77713 1.24651 8.13584 13 1 0 -305.949 14.2912 -5.29087 484.764 -566.097 381.149 0 0 0 0.5 
138 1 1 4.24604 3.40475 9.81425 -1 0 0 -37.0406 -9.03295 -4.83393 -272.228 -86.1177 -95.1181 0 0 0 0.5 
289 1 1 1.60474 0.340419 8.86949 -18 0 -1 -374.193 -26.0507 -17.7543 -2039.48 -1246.61 -2686.55 0 0 0 0.5 
787 2 2 1.76254 1.39865 9.18113 -7 0 0 -272.741 18.2622 35.4838 -5511.55 1599.38 2237.17 0 0 0 0.5 
239 1 1 0.899301 0.526197 9.74697 -14 0 0 -385.24 21.889 17.9484 -1794.1 3727.4 -60.1949 0 0 0 0.5 
762 2 2 3.48465 0.470611 9.98245 -11 0 -1 -398.016 -25.0028 -42.8641 -806.073 -2097.05 1198.3 0 0 0 0.5 
563 2 2 1.32044 4.29293 8.0946 0 0 0 -21.0341 -1.73393 2.46797 -4.61773 312.446 130.867 0 0 0 0.5 
587 2 2 3.81967 1.98357 8.96637 -1 0 0 -99.6411 -21.9155 -3.74672 -471.033 -424.635 289.537 0 0 0 0.5 
661 2 2 1.09598 3.67208 9.7325 0 0 -1 -42.7702 0.0080211 -16.9938 84.6732 651.684 -308.174 0 0 0 0.5 
774 2 2 3.74291 2.87729 9.13929 -1 0 0 -45.6841 -7.20947 4.65333 170.619 -286.06 -265.702 0 0 0 0.5 
756 2 2 0.280743 3.05567 9.15492 0 0 0 -88.0977 -2.49729 -4.3395 2213.58 -2210.01 63.9412 0 0 0 0.5 
568 2 2 3.32328 4.41514 8.09982 0 0 0 -11.3276 7.33644 3.67331 -379.5 -89.6052 346.748 0 0 0 0.5 
835 2 2 0.404077 4.03478 8.87972 0 0 0 -31.3288 -4.03033 -8.06218 1080.13 -963.258 206.928 0 0 0 0.5 
585 2 2 1.57189 4.52271 9.58197 0 0 0 -1.7432 -0.310115 6.35761 86.396 -870.593 -275.239 0 0 0 0.5 
71 1 1 3.33478 4.9432 9.894 0 0 0 4.60444 -5.26933 0.67501 458.96 -301.004 -194.937 0 0 0 0.5 
574 2 2 2.67336 4.88777 9.01246 0 0 0 -1.87478 3.54936 5.58801 330.43 -352.843 -704.864 0 0 0 0.5 
228 1 1 3.34764 0.269096 9.03414 -15 0 0 -471.684 -2.22265 -22.8343 -131.266 -193.068 -908.56 0 0 0 0.5 
784 2 2 3.89825 1.53933 9.86586 -5 0 0 -324.241 31.401 -32.6463 2315.84 6949.9 806.191 0 0 0 0.5 
609 2 2 0.657107 4.63094 9.53164 0 0 -1 -3.65892 -6.61418 1.80055 -69.1956 -204.755 -78.5153 0 0 0 0.5 
237 1 1 4.38302 3.46144 8.41991 -1 0 0 -32.0283 6.00339 2.31024 416.596 414.464 -169.406 0 0 0 0.5 
235 1 1 3.55631 2.36793 8.08752 -1 0 0 -101.402 4.41146 11.4071 1901.78 -883.702 1357.68 0 0 0 0.5 
760 2 2 0.127612 3.76639 9.77943 -1 0 0 -51.4131 -2.29117 -10.4876 316.203 570.225 401.021 0 0 0 0.5 
637 2 2 4.80032 3.07888 9.16542 -1 0 0 -34.1083 -8.21917 -4.63438 297.592 -1296.08 659.993 0 0 0 0.5 
54 1 1 3.66181 4.98128 9.03991 0 0 0 -3.23348 7.10461 0.819285 325.197 254.236 -351.892 0 0 0 0.5 
840 2 2 3.95009 4.09093 9.24812 0 0 0 -19.8622 0.884548 -2.07546 -72.8587 75.1094 -284.454 0 0 0 0.5 
846 2 2 0.685648 3.45763 8.23788 0 0 0 -59.9119 -10.8051 -18.9487 -99.5621 -299.346 -115.168 0 0 0 0.5 
856 2 2 4.73842 2.13966 8.67258 -1 0 0 -109.065 -2.82621 -0.948222 -893.275 -75.7322 -1190.5 0 0 0 0.5 
702 2 2 0.817191 0.142857 8.00901 16 1 0 -403.994 5.7723 9.94305 -988.817 5744.38 -3634.13 0 0 0 0.5 
61 1 1 4.82343 0.62427 9.55084 -10 0 0 -345.258 -24.2889 -13.2862 -2859.66 149.9 -3276.03 0 0 0 0.5 
623 2 2 4.94396 4.08133 9.41736 0 0 0 -24.2725 -9.10875 -2.57743 -338.679 -160.506 -497.989 0 0 0 0.5 
590 2 2 0.867513 6.53695 1.15112 1 0 0 46.7305 7.49917 -20.3594 -741.139 164.521 134.723 0 0 0 0.5 
765 2 2 1.33488 9.45537 1.0014 7 0 0 339.358 -3.35152 10.0454 11.2504 1683.24 -3772.47 0 0 0 0.5 
219 1 1 3.65125 6.20894 1.02161 1 0 0 34.1901 -7.16726 -3.39481 886.744 -245.898 491.859 0 0 0 0.5 
306 1 1 2.13524 8.61529 1.05741 5 0 0 248.755 -17.9037 0.782914 2325.74 -2391.16 818.684 0 0 0 0.5 
830 2 2 1.92568 9.05246 0.378907 4 0 0 346.656 -35.2198 -8.22955 1593.17 1209.99 -1618 0 0 0 0.5 
807 2 2 2.46287 5.40797 1.64745 0 0 0 17.819 -9.14315 6.09266 229.07 -283.625 74.9247 0 0 0 0.5 
278 1 1 1.59521 9.668 0.0979216 15 0 0 456.567 -13.8445 5.80415 820.263 725.423 2435.48 0 0 0 0.5 
810 2 2 0.550495 9.06349 1.4115 5 0 0 332.389 -12.8027 6.43399 -1654.72 -125.858 -2997.46 0 0 0 0.5 
880 2 2 2.71339 8.96573 1.83499 5 0 0 220.96 5.50028 5.42083 1373.37 -942.869 -2299.15 0 0 0 0.5 
442 1 1 4.57253 7.1116 1.3585 2 0 0 93.7017 9.68968 3.63078 -1397.3 1334.96 38.4864 0 0 0 0.5 
77 1 1 3.39695 9.03394 1.2902 3 0 1 241.615 18.4282 -22.9673 -427.781 -3541.5 2619.5 0 0 0 0.5 
825 2 2 0.341501 8.35754 0.78457 5 0 0 218.409 -24.4658 2.39504 498.912 386.78 1652.61 0 0 0 0.5 
964 2 2 3.86965 6.81317 0.348406 1 0 0 77.8084 -6.84427 3.33993 181.582 1223.39 766.702 0 0 0 0.5 
128 1 1 4.02579 5.98331 0.0566854 1 0 1 27.2608 -5.04409 2.32956 -39.6515 -600.69 -788.794 0 0 0 0.5 
183 1 1 3.54359 5.38636 1.63785 0 0 0 19.1274 -16.4253 -5.74863 -68.1582 -136.014 187.228 0 0 0 0.5 
808 2 2 3.07564 8.35315 0.532237 2 0 0 162.81 4.47781 -27.7615 114.749 445.118 -317.471 0 0 0 0.5 
325 1 1 -0.0535074 6.32284 1.53988 3 0 0 45.6154 2.05329 -3.02319 -272.562 -193.593 -208.701 0 0 0 0.5 
674 2 2 3.20155 5.39548 0.729058 1 0 0 31.6672 -1.53937 -4.49343 112.793 -851.393 486.968 0 0 0 0.5 
199 1 1 0.937028 9.89432 1.89406 -20 -1 0 411.572 2.78449 -0.894006 16.8992 743.374 -768.782 0 0 0 0.5 
553 2 2 3.3857 9.85118 0.766216 -18 -1 1 599.695 -51.434 -4.96857 2916.42 5457.65 -3562.87 0 0 0 0.5 
121 1 1 0.214343 8.95153 0.280171 20 0 1 278.141 -3.40436 -21.0628 -510.68 447.021 -497.093 0 0 0 0.5 
791 2 2 2.28088 6.28864 1.63537 1 0 0 48.0123 -2.098 0.417112 -1.83463 293.934 -11.3581 0 0 0 0.5 
394 1 1 1.56292 5.97674 0.991137 1 0 0 37.1271 -8.43936 6.69961 -402.216 387.07 -129.409 0 0 0 0.5 
483 1 1 2.91722 6.71629 0.746185 2 0 0 69.39 -1.47513 17.6902 -1807.68 1038.23 -890.91 0 0 0 0.5 
879 2 2 1.93758 9.76107 1.58858 5 0 1 353.125 9.84327 20.6157 1558.7 3425 -1085.24 0 0 0 0.5 
592 2 2 1.49506 6.73681 0.388411 1 0 0 77.8796 7.39861 0.0431865 -426.74 -515.606 581.614 0 0 0 0.5 
972 2 2 1.77371 6.97547 1.47871 1 0 0 54.6838 14.8308 -4.29926 -522.297 835.391 -198.829 0 0 0 0.5 
440 1 1 4.11602 6.26944 1.84909 1 0 0 31.7606 -5.09774 -7.33472 309.201 308.347 396.616 0 0 0 0.5 
254 1 1 2.89361 6.07554 0.0758367 1 0 0 37.0172 -13.4127 3.26386 13.3128 602.589 -204.617 0 0 0 0.5 
37 1 1 0.191457 9.60201 0.808996 -17 -1 0 355.354 21.2204 -10.3726 741.667 -224.607 -252.195 0 0 0 0.5 
620 2 2 0.559359 5.01663 0.995654 0 0 0 -7.06159 0.531604 -5.83895 -107.802 557.08 -250.059 0 0 0 0.5 
363 1 1 0.33827 5.88193 0.625834 1 0 0 20.2241 15.0195 -3.06584 244.115 62.1396 54.2506 0 0 0 0.5 
302 1 1 0.761862 7.29948 0.558807 3 0 1 60.3521 21.2828 -11.9758 334.514 -211.576 -118.599 0 0 0 0.5 
881 2 2 2.29903 5.63454 0.733431 1 0 0 33.2754 -8.86427 -0.283735 236.989 -92.4952 115.391 0 0 0 0.5 
113 1 1 4.1852 5.4903 0.879928 0 0 0 22.8831 -6.25403 -4.11063 -180.754 -90.4227 -194.318 0 0 0 0.5 
407 1 1 1.51306 7.8367 1.24941 2 0 0 89.9266 38.9169 -26.6864 -303.275 -580.015 30.2395 0 0 0 0.5 
162 1 1 1.64813 8.86144 1.58054 5 0 0 265.053 1.18988 7.96421 1457.67 1254.08 1655.52 0 0 0 0.5 
403 1 1 0.879562 5.68327 1.57812 1 0 0 10.3527 -2.27592 -11.9423 -327.259 587.89 -351.034 0 0 0 0.5 
367 1 1 0.00854075 7.59704 1.80173 3 0 0 101.356 5.98348 28.2456 -193.195 17.5429 149.021 0 0 0 0.5 
109 1 1 0.967639 5.28279 0.168076 1 0 0 14.693 4.83158 -1.75805 24.0879 395.575 -176.055 0 0 0 0.5 
610 2 2 4.51562 5.33428 1.74695 0 0 0 15.624 -2.83942 -8.04453 -447.509 1578.47 1291.69 0 0 0 0.5 
386 1 1 3.18991 6.58553 1.77203 1 0 0 45.1366 10.4681 -0.839478 -419.178 376.434 173.637 0 0 0 0.5 
582 2 2 0.832046 7.2834 1.63718 5 0 0 107.595 10.1584 4.6491 832.05 460.385 -391.351 0 0 0 0.5 
26 1 1 4.31419 9.99171 1.98099 6 0 0 490.759 -25.36 5.79201 3336.81 -2917.77 375.505 0 0 0 0.5 
398 1 1 4.7461 7.05357 0.423598 2 0 1 90.8048 6.49802 -2.67967 457.321 -311.23 -264.616 0 0 0 0.5 
167 1 1 4.80834 8.33973 1.34708 4 0 0 163.781 21.3963 -31.9174 -389.225 81.0618 561.517 0 0 0 0.5 
164 1 1 0.382688 7.23247 3.37821 3 0 0 105.61 -13.5053 -17.4135 -378.964 1277.73 -431.764 0 0 0 0.5 
993 2 2 3.64663 6.44565 3.68481 2 0 0 52.3698 -8.33923 16.7822 -840.206 145.625 -929.161 0 0 0 0.5 
915 2 2 2.2229 5.8118 2.47027 1 0 0 23.9088 -2.65291 4.02364 -47.56 -181.144 -227.904 0 0 0 0.5 
461 1 1 3.21976 9.28496 2.72447 5 0 0 296.875 8.17934 11.0941 -1199.49 1270.29 656.754 0 0 0 0.5 
447 1 1 3.3566 5.58597 3.58796 1 0 0 7.46177 -3.53537 3.11115 -87.9852 799.358 77.4573 0 0 0 0.5 
497 1 1 2.34736 9.36964 2.618 8 0 0 320.98 -11.4306 17.7434 -2256.02 -926.804 2025.38 0 0 0 0.5 
417 1 1 4.71681 5.84896 3.35923 0 0 0 33.5179 -10.1062 7.40022 -305.824 133.821 -274.028 0 0 0 0.5 
432 1 1 2.24926 5.12586 3.97234 1 0 0 -8.07469 11.2446 -3.77925 -108.318 388.947 -135.814 0 0 0 0.5 
932 2 2 2.66025 5.20845 3.07753 0 0 0 11.8487 -4.00726 2.08597 -115.586 -107.947 216.56 0 0 0 0.5 
401 1 1 4.32387 6.37031 3.18337 1 0 0 51.2129 14.4647 -0.20948 -890.151 1321.85 -1098.76 0 0 0 0.5 
712 2 2 3.46791 7.53687 3.3353 4 0 0 185.155 -19.8586 -54.8379 -925.754 1231.3 -832.846 0 0 0 0.5 
390 1 1 0.578633 6.15497 2.29319 1 0 0 35.5747 13.0212 1.61224 70.6368 179.458 321.119 0 0 0 0.5 
45 1 1 3.91431 9.0027 2.6597 7 0 0 261.221 -1.04982 10.3148 3730.32 -1515.94 -347.867 0 0 0 0.5 
695 2 2 1.92172 6.94522 3.96639 1 0 0 110.978 -11.2764 -22.0264 203.577 -1226.74 859.405 0 0 0 0.5 