# vtk DataFile Version 4.2
Generated by LIGGGHTS
ASCII
DATASET POLYDATA
POINTS 1000 float
2.5577 0.259993 0.298059 1.93578 0.763289 1.95819 2.08039 1.1741 1.13722 
1.43701 1.14073 0.603248 2.11426 1.7022 1.81885 0.941523 0.953863 1.47174 
4.2982 4.3861 0.19807 2.36649 2.11378 0.0319407 2.37283 4.65876 0.113681 
0.905218 2.31147 0.120282 1.58469 2.95984 0.916277 1.40022 2.11912 1.38785 
0.820217 2.90511 1.46543 1.17211 3.50531 0.356192 1.61875 0.0600317 0.335103 
0.204116 0.880792 0.807921 2.2777 4.4559 1.60436 0.844196 0.244272 0.849363 
2.46583 4.02375 0.639363 0.428117 1.95088 1.0654 4.43654 0.679911 0.728403 
2.19326 0.981025 0.0150309 4.30475 3.46022 0.407433 0.0686771 3.81381 0.340482 
3.25074 1.95327 0.0331694 2.91471 1.59756 1.61572 0.452811 0.0153802 1.96679 
2.65253 2.20075 0.917695 0.144833 3.39041 1.58686 2.85204 2.93837 0.280922 
2.80697 1.15113 0.691893 1.56757 4.4699 0.56187 0.233835 2.97217 0.742767 
3.08936 0.649073 1.51498 2.66931 2.71366 1.67282 4.85732 0.468548 1.67094 
1.00064 3.89574 1.18939 2.50878 3.25265 1.03873 3.59465 2.86862 1.77182 
2.66922 3.95384 1.5129 3.85374 1.91538 0.798969 4.0332 3.90424 1.53342 
3.31343 4.98276 1.70534 3.36828 4.26156 1.66724 3.46417 3.34819 0.959686 
3.4436 2.47968 0.902877 3.66211 1.05322 0.504696 3.61681 4.39623 0.641636 
3.82395 0.697269 1.92199 4.60994 2.14399 1.11496 4.77524 1.31239 1.41482 
2.67133 1.19779 2.56833 2.18112 1.89131 3.17496 2.63324 3.93911 3.60042 
1.05784 0.887312 2.37038 2.14163 1.00123 3.36578 2.96125 0.621892 3.57039 
0.804695 1.01728 3.84041 0.137828 2.30134 3.18234 3.31554 2.08297 3.47268 
2.099 2.79807 2.32187 2.18211 3.85784 2.34009 1.47258 2.97917 3.98118 
1.02923 1.91002 3.77455 1.33755 3.36501 3.04017 1.24815 0.256699 3.96409 
1.53599 0.161591 2.70747 0.943739 2.19063 2.58429 2.07353 0.154559 3.58879 
1.12727 4.17259 3.85176 1.26318 3.54932 2.08619 0.557029 3.16212 3.70126 
3.92049 3.5322 2.81477 4.86287 3.33427 3.04875 2.62639 3.13573 3.17413 
3.01623 2.67421 3.85301 0.713784 4.12225 2.06959 1.60579 4.46026 2.35159 
3.57206 0.0242111 3.02631 2.96969 2.11738 2.22985 1.40249 4.78813 3.13832 
0.494293 4.35042 2.8176 0.313143 3.45199 2.80458 3.11813 0.532914 2.59906 
4.38737 2.42792 2.82779 4.03327 4.96785 2.22845 3.10724 3.59633 2.38733 
3.28826 4.55306 2.56584 4.41053 1.60743 3.2958 4.13039 0.423823 2.48572 
4.7899 4.74455 2.52899 4.55658 4.49986 3.44988 2.75527 2.50019 2.70814 
2.65595 4.5706 2.91027 3.54102 1.42632 2.96522 3.4778 4.0471 3.3677 
3.91617 0.703133 3.51296 3.84493 2.92092 3.43486 3.8402 4.85934 3.83202 
4.07007 3.64305 3.87047 4.35507 1.69875 2.14773 4.54537 3.65466 2.16645 
3.02798 4.98883 3.6839 4.76895 0.617214 3.60014 4.9269 3.74862 3.9761 
1.90086 1.91818 4.10285 2.4567 4.51775 4.37256 4.71743 3.39709 5.45265 
0.455779 1.86905 5.88698 1.54525 0.653753 4.91957 0.147857 1.89674 4.18769 
4.39737 0.728398 4.71441 0.595759 0.371479 4.6167 2.97453 0.710584 5.59866 
2.69673 2.53187 5.56127 1.29159 1.19119 5.2812 1.88123 4.126 5.44444 
3.66863 3.57305 4.75526 1.56589 3.62132 4.64717 2.6949 1.67531 4.81321 
2.565 2.66671 4.62886 0.345159 0.974938 5.26086 2.11407 1.70325 5.64789 
0.662657 0.388168 5.76252 0.818483 1.8166 4.91538 0.918536 2.7953 5.18483 
2.38506 3.53892 5.41591 2.09017 0.135823 4.69976 3.15846 4.5975 5.96853 
4.57251 4.26825 5.28744 3.95273 1.55257 5.89924 4.52777 1.22417 4.11244 
4.27449 4.39746 4.40174 0.8469 4.47211 5.24874 3.75514 4.503 5.07885 
-0.00298254 3.49079 5.59149 2.56714 1.15578 4.16709 0.295933 4.73324 4.21976 
3.48294 1.32351 5.02863 2.78709 3.77978 4.55648 3.72787 2.75705 4.77418 
1.47887 4.512 4.66672 3.51796 0.112113 4.45975 3.57541 2.14845 5.49184 
3.89095 4.41413 5.97017 3.99316 2.20861 4.17968 3.99873 0.887241 5.40388 
4.38869 1.93711 5.12851 3.08869 3.39672 5.33786 3.03391 4.9336 5.30355 
4.38792 0.146692 5.423 3.59079 1.18577 4.17601 4.88371 2.08067 4.18366 
4.81819 0.708692 5.99931 3.5362 4.81137 7.14858 2.46766 4.22598 6.20373 
2.30982 3.58811 6.85801 1.36714 1.89682 6.21082 1.56192 2.61761 6.78605 
1.54917 3.70945 7.2992 4.41764 1.79443 6.96994 1.94458 3.27372 6.14376 
1.04427 1.24238 7.85123 0.088947 1.88573 6.92558 2.71123 1.53707 6.2032 
1.42831 2.87981 7.72843 0.284878 2.79816 6.25396 4.93186 1.94507 7.95285 
4.01353 0.38087 6.2242 2.06684 1.79592 6.87792 0.130079 1.02085 6.21058 
3.47595 2.57444 6.14713 2.50014 2.7958 7.05949 4.07363 2.68246 7.20238 
0.357434 0.53925 6.73485 2.42213 1.00501 7.50283 1.78946 4.58689 7.62974 
4.30625 3.36241 6.30123 4.12213 2.12757 7.94782 0.125401 2.77551 7.21088 
3.13444 3.96285 6.71194 3.82206 0.0179856 7.89476 3.24906 0.931844 7.57214 
3.00547 1.90238 7.06528 3.84096 3.56019 7.54564 2.6806 4.57078 7.68881 
3.42705 3.42028 6.10481 3.39281 1.27097 6.45407 0.650684 3.61085 7.05119 
4.48498 1.10917 7.62233 2.9725 1.81561 7.99462 2.71199 4.929 6.83403 
3.69823 0.749342 6.86156 0.371583 4.52469 7.35565 2.82368 3.6907 7.63624 
1.23261 3.99324 6.08311 1.26005 4.47752 6.8837 0.214455 4.97572 6.65798 
-0.0094937 3.12294 7.95136 4.12842 4.41686 7.94305 4.69548 0.18658 7.64163 
4.78515 1.56807 6.2894 4.76414 0.784905 6.85741 4.74143 4.4785 6.23844 
2.31783 0.000665773 7.64629 2.62453 1.63489 9.35317 0.519497 0.799169 8.56353 
3.15454 3.7203 8.4589 0.772623 3.10957 8.33669 2.02955 3.81001 8.02831 
0.10722 0.38292 9.51551 4.90359 2.20579 8.98846 1.66407 2.20075 9.471 
2.2558 3.64218 8.75198 0.521583 1.94641 8.46011 4.01919 2.81384 8.6123 
0.798761 0.149268 8.79978 1.65931 1.06999 8.85216 1.66175 0.696538 8.03905 
4.7685 0.502257 8.86741 2.41984 4.68214 9.14341 3.26442 1.10497 9.48843 
1.75882 3.97444 9.42836 1.59711 3.06278 9.26784 1.33441 0.922111 9.69913 
2.44324 0.688518 9.17954 0.758036 0.0173487 9.96023 1.01113 1.5271 9.09017 
3.85609 0.617159 9.65809 0.789812 3.25242 9.40604 0.0124179 2.46362 9.91431 
3.45439 3.43647 9.72536 0.186088 4.53538 8.79959 2.85181 0.504003 8.43012 
3.44369 1.88652 8.95251 3.792 0.371092 8.78581 1.52178 2.06858 8.01844 
1.0891 4.16956 9.87117 0.729013 4.55897 8.08579 1.48133 4.1824 8.46254 
4.67473 0.757259 9.91581 4.15931 1.77299 9.89227 3.84354 4.44698 9.15243 
0.399745 4.28488 9.62512 3.01094 4.31615 9.69069 3.17325 2.69429 8.45061 
4.29774 1.47657 8.76463 0.937882 4.29385 8.98886 2.57212 3.24703 9.43046 
3.77874 0.929931 8.16213 3.87784 2.70346 9.55938 1.34045 9.21829 0.749567 
4.69858 8.93656 1.66598 3.72492 9.17855 1.30265 2.53031 9.77163 1.01298 
3.51172 9.20881 0.252864 3.8105 8.12014 1.42113 4.16268 9.00021 0.642828 
4.1084 6.09648 1.6382 3.9925 6.90095 1.83853 0.769217 5.05667 1.93534 
3.87405 7.239 1.02042 0.478696 9.25992 0.550012 3.32202 9.93011 0.79164 
0.995593 9.00172 1.9191 3.35397 5.05741 0.387649 1.93365 9.91056 1.62318 
2.92002 8.68019 1.84661 4.81125 8.71397 0.917661 3.64414 6.41168 1.02064 
4.61697 7.60881 0.293799 1.41187 6.27576 0.892859 0.0536987 7.03209 1.43466 
1.754 5.71595 1.62366 4.78953 9.5998 1.33745 0.434201 5.375 0.592572 
2.52497 9.15959 1.62206 1.17843 7.67127 1.24762 1.99432 7.15411 0.404834 
1.98878 7.91666 1.8868 2.46351 5.17271 1.52188 1.59161 8.55434 0.625435 
1.99645 7.88465 0.943159 3.73761 8.26269 0.136632 0.344416 6.35362 0.207342 
2.24976 8.28794 0.0839697 1.40194 8.44227 1.77497 1.38368 5.3321 0.712673 
3.21358 5.4693 1.2388 2.18979 6.20864 0.729854 3.76118 5.76164 0.604776 
0.529824 6.36091 1.0852 0.965559 6.12406 1.78025 4.27357 8.04976 0.716999 
3.77751 7.31074 0.109686 2.51869 5.40486 0.597396 2.67615 6.08335 1.45193 
2.99659 7.1631 0.682218 2.99895 7.88161 1.75374 2.99164 6.30235 0.533522 
2.91656 8.14705 0.760868 3.14744 6.91066 1.56983 4.59733 6.24419 0.423194 
4.80014 6.85942 1.27354 3.33039 8.48962 2.59065 0.476711 9.60676 3.17766 
3.26745 5.5318 2.31193 4.54885 5.82771 2.09698 0.272479 7.78921 3.83727 
3.50563 7.72404 3.89191 2.73548 9.22294 2.77492 0.350636 8.75909 3.66268 
3.2938 9.59573 2.04916 3.40981 7.6937 3.02567 2.76027 6.16902 2.77379 
2.85707 9.66955 3.56294 2.32168 9.83079 2.78905 3.33372 5.76746 3.22143 
-0.0267015 9.20391 2.45444 4.2331 6.10211 2.79886 2.75251 7.13127 3.31319 
2.53072 5.71797 2.23123 4.24586 8.43441 2.37398 3.41541 6.98054 2.50882 
4.04725 5.30465 3.04636 2.61903 7.93351 3.37481 2.93393 6.37132 3.57339 
2.37055 7.40903 2.47496 4.82389 7.55966 3.64869 4.13792 9.73807 2.50136 
3.60942 9.20427 3.73293 4.11052 7.67995 2.27144 0.781229 5.90882 3.31911 
4.29922 6.21731 3.81301 2.70666 6.72582 2.21802 1.79022 8.58343 3.41961 
1.08212 6.81131 3.44328 1.44672 7.09981 2.21515 1.42378 5.80903 3.88388 
1.72482 5.94266 2.64263 1.7806 7.6423 3.91888 1.53656 7.69021 3.0248 
2.39554 5.07455 2.50576 2.53668 8.51887 3.09434 2.32549 5.36807 3.64029 
0.128038 5.96615 3.81539 0.98788 6.26346 2.55637 0.686841 5.0887 3.31209 
3.92172 6.54117 2.7208 4.00892 7.20485 3.23133 4.19682 9.17609 2.2051 
4.26849 9.81287 3.36377 4.37341 9.02195 3.16393 4.56347 8.28526 3.12733 
4.85728 8.36319 3.91681 3.04922 6.32396 4.89481 1.13638 8.82034 4.00432 
0.128146 9.51882 4.1523 2.68268 7.52321 4.16974 0.379484 8.88809 5.99806 
2.88339 6.24167 5.90349 1.66097 9.75684 5.77815 0.13673 7.87242 5.07395 
2.87456 5.4061 4.64762 0.414505 8.78111 4.85225 3.42818 5.85619 5.38792 
0.880906 9.70727 5.41073 0.0758009 9.5671 5.21484 3.95161 5.29688 4.61631 
2.67333 6.86795 5.62893 2.1351 9.50104 4.0221 2.85566 8.49819 4.13525 
4.11713 8.45537 4.03973 0.412694 5.68657 4.67359 0.129344 6.36162 4.8063 
0.954661 6.7708 4.45225 0.543688 5.6029 5.84072 2.51974 9.06758 4.52043 
2.2554 6.65143 4.14144 2.61549 5.39156 5.79405 2.70269 8.05633 5.40085 
3.59542 6.51732 4.17544 2.22963 8.70253 5.62716 2.31117 5.86468 4.39655 
2.09112 7.45132 5.95764 1.60696 6.59052 4.48511 0.926818 7.58038 4.40839 
4.32173 9.97455 4.26426 4.37554 7.64855 5.17057 1.80927 7.92498 4.85581 
2.45138 9.62912 5.23131 2.59444 7.07647 4.91685 1.7889 6.43116 5.85467 
4.06575 8.51129 5.26148 1.3892 8.62588 4.8355 1.23019 5.38796 5.65803 
4.60085 7.08431 4.44178 1.27118 8.6608 5.79184 0.123091 6.09738 5.65404 
1.93618 5.33469 5.09028 1.26902 7.12581 5.47941 1.19971 5.57029 4.75932 
[...]
POINT_DATA 1000
FIELD FieldData 7
id 1 1000 int
853 416 207 984 339 440 281 930 382 
284 56 418 91 533 25 689 735 443 
580 413 708 395 904 850 865 189 358 
947 993 582 357 623 307 263 568 309 
196 266 593 894 1000 78 3 810 778 
842 877 547 913 21 439 844 79 624 
333 548 300 848 956 782 293 540 327 
702 312 178 626 769 666 40 62 400 
744 579 228 957 90 860 638 208 88 
975 481 134 700 285 138 742 459 490 
478 760 833 870 506 231 823 347 104 
931 232 939 380 658 562 821 497 759 
115 983 674 619 96 747 190 572 352 
76 282 142 609 363 495 260 182 640 
827 466 586 371 270 614 306 415 610 
592 763 67 10 908 927 944 565 812 
949 785 211 989 492 5 963 780 661 
705 305 64 82 544 721 84 740 101 
241 121 616 277 673 410 55 373 224 
314 977 346 319 596 204 671 441 863 
452 237 470 2 955 245 464 7 50 
746 22 970 960 672 650 552 796 486 
155 468 74 338 168 862 954 509 483 
767 590 199 316 737 577 971 283 987 
498 298 257 717 393 733 198 383 683 
140 569 606 722 924 163 165 433 595 
430 573 408 214 264 881 966 980 891 
511 391 485 899 252 249 17 23 431 
152 664 670 773 412 420 571 261 216 
587 362 210 368 922 193 637 739 60 
528 679 682 100 655 218 425 801 615 
275 386 561 997 634 972 302 817 129 
461 209 467 545 46 118 28 41 458 
429 419 706 424 279 226 554 141 81 
765 991 14 334 267 111 603 29 244 
248 909 691 19 179 255 515 597 265 
243 187 53 636 847 925 120 839 723 
902 758 574 449 825 12 642 114 434 
177 514 38 994 560 472 176 442 269 
191 63 324 398 974 698 551 907 117 
867 771 693 570 512 289 523 788 195 
602 131 916 663 591 85 625 113 227 
83 332 686 344 112 250 402 838 811 
890 145 617 745 451 914 110 729 641 
558 781 622 234 476 477 456 576 714 
377 822 715 469 292 724 160 507 818 
143 631 754 59 378 718 175 898 34 
119 166 124 280 720 87 730 906 525 
221 589 524 390 943 72 990 225 676 
8 496 297 54 15 223 233 146 123 
734 335 969 48 272 594 69 475 564 
94 546 678 49 381 903 936 417 220 
736 621 183 876 315 517 505 726 457 
73 981 463 879 888 202 805 4 681 
776 291 423 404 840 719 775 229 30 
824 219 684 755 304 772 403 849 137 
578 884 953 384 965 946 605 127 764 
170 710 793 753 36 677 852 588 652 
713 80 557 690 217 941 447 656 654 
809 186 350 887 480 940 542 921 372 
106 581 254 952 109 354 389 905 699 
361 986 896 268 802 527 851 644 741 
598 9 318 858 172 414 912 843 482 
803 629 895 450 126 777 556 786 919 
526 185 133 566 273 139 247 806 65 
620 701 445 97 958 161 288 855 35 
251 454 792 961 794 665 364 828 130 
153 530 808 829 731 816 712 11 549 
409 253 647 575 436 428 154 951 608 
351 826 536 875 93 295 290 612 308 
798 356 516 421 995 156 426 532 611 
835 935 845 86 504 200 203 58 24 
813 61 169 770 892 484 95 697 406 
222 667 180 206 51 399 1 31 675 
278 910 783 748 205 959 662 345 917 
645 16 33 376 601 613 804 460 756 
132 815 159 510 978 869 446 102 375 
42 487 125 599 374 897 871 766 938 
337 646 435 336 348 751 988 320 479 
929 43 743 331 791 932 98 926 521 
868 310 643 761 738 787 687 422 503 
882 520 287 173 694 108 880 39 465 
861 660 136 541 992 162 147 201 360 
311 607 711 795 550 157 911 328 329 
502 797 353 321 148 648 325 857 26 
962 774 768 411 942 274 950 750 128 
841 392 627 313 618 567 455 151 317 
330 401 918 680 397 135 471 171 534 
807 181 837 213 438 493 259 340 883 
489 437 886 539 846 343 323 704 20 
651 920 341 982 695 832 901 194 149 
513 762 396 889 874 657 518 488 779 
728 75 394 522 385 831 873 164 820 
197 727 473 553 543 948 864 538 405 
370 240 583 499 996 707 633 789 407 
286 893 212 387 246 238 271 732 230 
92 45 258 294 685 985 600 71 158 
836 366 519 122 215 800 299 923 964 
342 688 367 500 900 99 799 885 6 
709 563 757 915 830 973 725 535 174 
866 107 359 945 57 491 388 262 531 
462 32 474 784 239 653 967 184 859 
703 365 116 70 584 933 669 639 559 
649 369 834 968 68 444 379 555 501 
585 998 256 604 322 937 192 872 979 
668 878 188 659 716 628 27 999 696 
18 814 150 103 66 630 144 167 856 
301 52 537 529 235 276 432 47 236 
632 752 749 77 37 427 928 326 494 
355 448 242 453 934 635 790 508 976 
854 692 349 44 819 303 105 296 89 
13 
type 1 1000 int
2 1 1 2 1 1 1 2 1 
1 1 1 1 2 1 2 2 1 
2 1 2 1 2 2 2 1 1 
2 2 2 1 2 1 1 2 1 
1 1 2 2 2 1 1 2 2 
2 2 2 2 1 1 2 1 2 
1 2 1 2 2 2 1 2 1 
2 1 1 2 2 2 1 1 1 
2 2 1 2 1 2 2 1 1 
2 1 1 2 1 1 2 1 1 
1 2 2 2 2 1 2 1 1 
2 1 2 1 2 2 2 1 2 
1 2 2 2 1 2 1 2 1 
1 1 1 2 1 1 1 1 2 
2 1 2 1 1 2 1 1 2 
2 2 1 1 2 2 2 2 2 
2 2 1 2 1 1 2 2 2 
2 1 1 1 2 2 1 2 1 
1 1 2 1 2 1 1 1 1 
1 2 1 1 2 1 2 1 2 
1 1 1 1 2 1 1 1 1 
2 1 2 2 2 2 2 2 1 
1 1 1 1 1 2 2 2 1 
2 2 1 1 2 2 2 1 2 
1 1 1 2 1 2 1 1 2 
1 2 2 2 2 1 1 1 2 
1 2 1 1 1 2 2 2 2 
2 1 1 2 1 1 1 1 1 
1 2 2 2 1 1 2 1 1 
2 1 1 1 2 1 2 2 1 
2 2 2 1 2 1 1 2 2 
1 1 2 2 2 2 1 2 1 
1 1 1 2 1 1 1 1 1 
1 1 2 1 1 1 2 1 1 
2 2 1 1 1 1 2 1 1 
1 2 2 1 1 1 2 2 1 
1 1 1 2 2 2 1 2 2 
2 2 2 1 2 1 2 1 1 
1 2 1 2 2 1 1 1 1 
1 1 1 1 2 2 2 2 1 
2 2 2 2 2 1 2 2 1 
2 1 2 2 2 1 2 1 1 
1 1 2 1 1 1 1 2 2 
2 1 2 2 1 2 1 2 2 
2 2 2 1 1 1 1 2 2 
1 2 2 1 1 2 1 2 2 
1 2 2 1 1 2 1 2 1 
1 1 1 1 2 1 2 2 2 
1 2 2 1 2 1 2 1 2 
1 1 1 1 1 1 1 1 1 
2 1 2 1 1 2 1 1 2 
1 2 2 1 1 2 2 1 1 
2 2 1 2 1 2 2 2 1 
1 2 1 2 2 1 2 1 2 
2 1 1 1 2 2 2 1 1 
2 1 2 2 1 2 1 2 1 
2 2 2 1 2 2 2 1 2 
1 2 2 2 1 2 2 2 2 
2 1 2 2 1 2 1 2 2 
2 1 1 2 1 2 2 2 1 
1 2 1 2 1 1 1 2 2 
1 2 2 1 2 2 2 2 2 
2 1 1 2 1 1 2 2 1 
2 2 2 1 1 2 2 2 2 
2 1 1 2 1 1 1 2 1 
2 2 1 1 2 1 1 2 1 
1 1 2 2 2 2 1 2 1 
1 2 2 2 2 2 2 1 2 
1 1 2 2 1 1 1 2 2 
1 2 2 2 1 1 1 2 1 
2 1 2 1 2 1 1 2 2 
2 2 2 1 2 1 1 1 1 
2 1 1 2 2 1 1 2 1 
1 2 1 1 1 1 1 1 2 
1 2 2 2 1 2 2 1 2 
2 1 1 1 2 2 2 1 2 
1 2 1 2 2 2 1 1 1 
1 1 1 2 1 2 2 2 2 
1 2 1 1 1 2 2 1 1 
2 1 2 1 2 2 1 2 2 
2 1 2 2 2 2 2 1 2 
2 2 1 1 2 1 2 1 1 
2 2 1 2 2 1 1 1 1 
1 2 2 2 2 1 2 1 1 
2 2 1 1 1 2 1 2 1 
2 2 2 1 2 1 2 2 1 
2 1 2 1 2 2 1 1 1 
1 1 2 2 1 1 1 1 2 
2 1 2 1 1 1 1 1 2 
1 1 2 2 2 1 1 2 1 
2 2 1 2 2 2 2 1 1 
2 2 1 2 2 2 2 1 2 
2 1 1 2 1 2 2 1 2 
1 2 1 2 2 2 2 2 1 
1 1 2 1 2 2 2 2 1 
1 2 1 1 1 1 1 2 1 
1 1 1 1 2 2 2 1 1 
2 1 2 1 1 2 1 2 2 
1 2 1 1 2 1 2 2 1 
2 2 2 2 2 2 2 2 1 
2 1 1 2 1 1 1 1 2 
1 1 1 2 1 2 2 1 2 
2 1 1 1 2 2 2 2 2 
2 1 2 2 1 1 1 2 2 
2 2 1 2 1 2 1 2 2 
2 2 1 2 2 2 1 2 2 
1 2 1 1 1 2 1 1 2 
1 1 2 2 1 1 1 1 1 
2 2 2 1 1 1 2 1 1 
1 1 1 1 2 2 2 2 2 
2 2 1 1 2 1 1 1 1 
1 
i 3 1000 int
203 1 0 -111 0 0 217 1 1 
224 1 1 -79 0 1 -28 0 0 
-11 0 0 -61 0 0 -270 -1 -1 
-111 0 0 -59 0 0 -154 0 1 
-19 0 0 321 1 0 -150 0 0 
-152 0 1 52 0 0 157 1 0 
227 1 0 -59 0 0 -168 0 1 
145 1 0 190 1 0 90 0 1 
-122 0 0 228 1 0 -83 0 0 
-17 0 1 36 0 1 -14 0 0 
-271 0 1 -55 0 1 255 1 -1 
-111 0 1 -84 0 0 110 1 0 
276 1 0 -282 -1 0 4 0 1 
13 0 0 -115 0 0 -36 0 1 
56 0 0 32 0 1 -161 0 1 
-144 0 1 237 1 1 54 0 0 
-35 0 0 -101 0 1 -89 0 0 
204 1 0 -127 0 1 10 0 -1 
-43 0 0 -153 0 1 142 1 -1 
-234 0 1 -111 0 1 69 0 -1 
-151 0 1 -300 -1 0 -63 0 0 
240 1 0 2 0 1 89 1 0 
-71 0 -1 -59 0 1 -2 0 0 
-45 0 0 -51 0 0 -145 0 0 
204 1 0 -60 0 0 -130 0 1 
29 0 0 49 0 0 -32 0 1 
96 1 -1 -45 0 1 61 0 0 
244 1 1 59 0 -1 -169 0 0 
150 1 1 53 0 -1 -54 0 1 
2 0 -1 2 0 0 -239 0 0 
-31 0 1 -58 0 1 -33 0 0 
-2 0 1 -117 0 0 -39 0 1 
252 1 -1 -23 0 -1 -6 0 0 
25 0 0 -99 0 1 -56 0 0 
-42 0 1 -77 0 0 123 0 1 
228 1 0 180 0 1 -92 0 -1 
175 1 -1 -14 0 -1 -63 0 0 
-94 0 1 -114 0 0 -208 0 0 
-50 0 1 -99 0 0 -104 0 0 
113 0 1 260 1 0 -102 0 -1 
-48 0 0 83 1 -1 -91 0 1 
-149 0 0 40 0 -1 -136 0 0 
-58 0 0 132 1 0 293 1 0 
-23 0 0 -119 0 1 168 1 0 
84 0 -1 -6 0 -1 51 0 -1 
-39 0 0 120 1 1 295 1 1 
-179 0 1 -88 0 1 7 0 0 
-88 0 1 -126 0 0 10 0 1 
98 0 1 322 1 1 201 1 0 
53 0 0 -154 0 0 22 0 -1 
112 1 0 -176 0 0 -86 0 -1 
-173 0 0 65 0 -1 44 0 -1 
27 0 -1 -18 0 0 237 1 0 
106 0 0 -91 0 0 -110 0 0 
350 1 1 270 1 -1 -51 0 0 
-153 0 0 172 1 -1 -68 0 -1 
160 1 0 -169 0 -1 -178 0 0 
-108 0 0 164 1 -1 267 1 0 
41 1 -1 -113 0 0 -143 0 1 
-30 0 0 36 0 0 -71 0 0 
24 0 0 -138 0 0 129 1 -1 
-65 0 0 8 0 1 -23 0 0 
16 0 0 -87 0 0 40 0 0 
-58 0 -1 185 1 -1 213 0 -1 
212 1 0 -19 0 -1 -51 0 0 
73 0 -1 27 0 -1 250 1 1 
34 0 0 7 0 0 -26 0 0 
146 1 0 95 1 0 -51 0 0 
222 1 -1 -125 0 -1 197 1 -1 
-110 0 0 -29 0 -1 -235 0 -1 
-153 0 -1 -85 0 0 222 1 -1 
48 0 0 -169 0 0 222 1 0 
217 1 0 -154 0 -1 -58 0 0 
-112 0 0 146 1 -1 102 0 -1 
-11 0 0 -89 0 0 95 1 -1 
138 1 0 247 1 -1 -149 0 -2 
-135 0 -1 -51 0 0 214 1 0 
19 0 -1 256 1 -1 140 1 0 
-34 0 0 -132 0 0 -39 0 -1 
-26 0 -1 -22 0 -1 -13 0 -1 
-88 0 0 198 1 1 13 0 -1 
-23 0 -1 -9 0 -1 -124 0 1 
-159 0 -1 207 1 0 -92 0 1 
-133 0 -1 -145 0 0 -139 -1 0 
66 0 1 131 0 0 -121 -1 1 
-129 -1 0 -272 -1 1 -40 -1 1 
59 0 1 4 0 0 -132 0 1 
-15 0 1 71 0 1 187 0 0 
65 0 0 22 0 1 214 0 0 
-137 -1 2 35 0 0 50 0 1 
101 0 0 2 0 0 46 0 0 
0 0 0 -258 -1 1 7 0 0 
-178 -1 1 -290 -1 -1 174 0 0 
-182 -1 0 114 0 0 92 0 0 
60 0 1 99 0 -1 18 0 0 
127 0 0 67 0 0 -246 -1 0 
327 1 0 -300 -1 0 365 1 1 
135 0 -1 95 0 1 186 0 1 
84 0 0 -176 0 0 40 0 0 
14 0 1 130 0 0 66 0 1 
-13 0 1 470 1 0 -203 -1 1 
-258 -1 0 -119 -1 1 77 0 1 
284 1 0 75 0 0 47 0 1 
100 0 0 -177 -1 0 156 0 0 
235 0 0 131 0 0 -382 -1 0 
-271 -1 0 -117 -1 1 238 1 0 
-145 -1 0 121 0 0 -191 -1 1 
-252 -1 -1 -142 -1 1 -60 0 1 
-58 0 0 -51 0 1 78 0 0 
-189 -1 1 31 0 0 150 0 0 
-175 -1 0 -18 0 1 115 0 0 
307 1 1 13 0 0 32 0 1 
39 0 0 146 0 -1 -99 0 0 
-289 -1 0 -283 -1 -1 -141 -1 0 
51 0 1 -115 -1 0 -75 0 1 
83 0 0 60 0 0 13 0 1 
81 0 1 27 0 0 -181 -1 0 
178 0 0 114 0 0 139 0 0 
125 0 -1 404 1 0 98 0 -1 
48 0 0 -154 -1 0 -197 -1 0 
65 0 0 -174 -1 0 80 0 -1 
-289 -1 1 81 0 -1 -276 -1 -1 
-157 -1 1 118 0 0 -261 -1 1 
152 0 0 127 0 0 -143 -1 0 
111 0 0 -332 -1 1 96 0 1 
-34 0 0 39 0 -1 -164 -1 1 
175 0 0 -138 0 0 79 0 -1 
82 0 0 26 0 0 -53 0 1 
-219 -1 0 10 0 1 77 0 0 
-64 -1 -1 169 0 0 106 0 1 
-80 -1 1 48 0 1 53 0 0 
-120 -1 1 203 0 1 -30 0 0 
84 0 0 191 0 0 60 0 0 
-54 0 0 -150 -1 1 125 0 0 
-102 -1 0 120 0 0 453 1 0 
-316 -1 1 -146 -1 0 183 0 0 
165 0 0 -372 -1 -1 -236 -1 0 
97 0 0 -201 -1 0 156 0 0 
114 0 0 37 0 0 -132 -1 0 
102 0 -1 -186 -1 0 -223 -1 0 
47 0 -1 -33 0 0 173 0 0 
9 0 0 85 0 -1 143 0 0 
-150 -1 0 47 0 -1 21 0 0 
-222 -1 -1 112 0 0 -285 -1 -1 
101 0 0 109 0 0 -93 -1 1 
159 0 -1 -184 -1 0 194 0 0 
19 0 0 -141 -1 0 125 0 -1 
99 0 1 88 0 -1 129 0 -1 
86 0 0 -164 -1 2 29 0 -1 
-133 -1 0 -3 0 0 -13 0 -1 
-57 0 0 -131 -1 0 146 0 0 
85 0 -1 -213 -1 -1 -171 -1 1 
-152 -1 0 78 0 0 29 0 0 
0 0 0 39 0 0 55 0 -1 
19 0 0 60 0 0 -27 0 -1 
44 0 0 133 0 0 334 1 0 
-274 -1 1 0 0 0 139 0 -2 
-108 -1 0 62 0 0 10 0 0 
-214 -1 0 170 0 -1 60 0 -1 
-29 -1 -1 131 0 -1 178 0 0 
170 0 1 426 1 0 120 0 -1 
-146 -1 -1 -187 -1 -1 33 0 0 
-173 -1 0 -147 -1 0 -278 -1 0 
21 0 0 -7 0 0 175 0 0 
-185 -1 -1 -162 -1 0 39 0 0 
29 0 0 19 0 -1 78 0 0 
-40 0 -1 -212 -1 0 -58 0 1 
-10 0 -1 42 0 0 -216 -1 -1 
130 0 -1 93 0 0 95 0 -1 
-17 0 -1 89 0 -1 106 0 -1 
41 0 0 -185 -1 0 -48 0 0 
155 0 -1 96 0 -1 174 0 -1 
67 0 0 -251 -1 -1 29 0 0 
-237 -1 0 93 1 1 -53 0 1 
-223 0 1 -63 0 1 199 1 0 
158 1 0 -86 0 0 -52 0 0 
55 0 1 -118 0 1 -87 0 1 
214 1 0 216 1 0 227 1 0 
185 1 0 -128 0 2 -25 0 -1 
-235 0 1 -78 0 1 -163 0 1 
-71 0 0 -32 0 1 -17 0 0 
-16 0 0 77 1 1 -71 0 1 
-103 0 0 -78 0 0 24 0 -1 
-67 0 0 59 0 1 -21 0 -1 
37 0 0 75 1 1 -1 0 0 
-166 0 0 364 1 1 -121 0 0 
-93 0 1 319 1 0 -93 0 1 
0 0 0 -195 0 0 167 1 0 
2 0 0 -38 0 1 104 1 0 
261 1 0 -179 0 -1 -101 0 0 
182 1 0 233 1 -1 -202 0 -1 
150 1 -1 -173 0 1 -195 -1 0 
-145 0 1 -10 0 0 165 1 1 
295 1 1 -215 0 2 -55 0 0 
-182 0 0 -106 0 0 -86 0 0 
-38 0 0 120 1 0 -48 0 0 
48 1 0 220 1 2 -4 0 1 
-54 0 -1 -275 0 0 -144 0 1 
-89 0 0 249 1 0 278 1 0 
-25 0 0 -14 0 0 167 1 1 
-67 0 0 -71 0 1 -70 0 0 
17 0 0 -84 0 2 78 0 0 
-97 0 0 342 1 0 -19 0 0 
133 1 0 -27 0 0 -160 0 0 
399 1 1 -220 0 0 -111 0 0 
190 1 -1 70 0 0 -98 0 1 
-3 0 0 -52 0 0 -52 0 0 
2 0 1 320 1 0 -206 0 0 
-62 0 1 175 1 -1 158 1 -1 
216 1 0 -47 0 1 -103 0 1 
-181 0 0 25 0 0 -111 0 1 
219 1 -1 -144 0 1 73 1 0 
153 1 -1 57 0 0 -50 0 0 
-59 0 1 -81 0 0 -37 0 0 
-39 0 1 73 0 0 -145 0 0 
-190 0 0 39 0 -1 213 1 -1 
234 1 0 -150 0 0 253 1 0 
-68 0 0 53 0 -1 28 0 0 
-37 0 0 -39 0 -1 -69 0 1 
292 1 0 -52 0 0 -12 0 0 
-48 0 1 -22 0 1 -132 0 -1 
-223 0 -1 192 1 0 -84 0 -1 
237 1 -1 -62 0 1 -97 0 1 
252 1 -1 -78 1 -1 190 1 0 
-132 0 1 225 1 0 36 0 0 
156 1 -1 -143 0 0 285 1 0 
-213 0 0 133 1 0 -58 0 0 
-180 0 -1 -25 0 0 -128 0 1 
36 0 0 176 1 -1 271 1 -1 
-65 0 -1 24 0 -1 9 1 0 
-49 0 0 -28 0 -1 225 1 -1 
-99 0 0 -137 0 -1 -320 -1 0 
105 1 -1 -33 0 0 84 1 0 
-12 0 0 -72 0 0 1 0 -1 
180 1 0 -61 0 0 61 0 -1 
97 0 0 -34 0 0 202 1 1 
4 0 0 43 0 0 84 0 0 
-24 0 1 -151 0 0 -72 0 0 
-14 0 -1 49 0 -1 -91 0 0 
-59 0 -1 200 1 0 -107 0 0 
-105 0 1 111 1 0 36 1 1 
-164 0 0 239 1 0 -80 0 0 
193 1 0 -309 -1 -2 40 1 -1 
-4 0 0 68 0 0 219 1 0 
208 1 0 -241 0 0 -189 0 0 
-2 0 0 -112 0 -1 -34 0 0 
-70 0 0 -23 0 0 -5 0 -1 
230 1 -1 -141 0 0 205 1 -1 
-134 0 -1 -84 0 0 -254 -1 0 
-33 0 0 77 0 0 164 1 -1 
-99 0 -1 49 0 0 -74 0 0 
-281 -1 -2 37 0 -1 -146 0 0 
-152 0 0 218 1 -1 160 1 0 
-20 0 -1 -41 0 0 242 1 0 
151 0 -1 -46 -1 0 169 0 0 
-173 -1 0 -227 -1 1 -143 0 -1 
-2 0 0 70 0 0 -254 -1 -1 
32 0 -1 -160 -1 1 85 0 1 
85 0 0 -14 0 0 6 0 0 
-199 -1 -1 -129 -1 2 47 0 1 
37 0 0 -1 0 0 -8 0 1 
78 0 0 63 0 0 -127 -1 0 
-192 -1 0 104 0 0 12 0 0 
98 0 1 -16 0 0 53 0 1 
-130 -1 1 151 0 0 -254 -1 0 
306 1 1 11 0 0 225 0 0 
-176 -1 -1 17 0 0 13 0 0 
104 0 -1 -90 0 0 356 1 0 
-106 0 1 -43 0 1 -112 -1 1 
-294 -1 0 130 0 -1 -229 -1 0 
28 0 0 -222 -1 1 17 0 0 
87 0 -1 118 0 0 17 0 0 
-160 -1 0 -295 -1 0 -18 0 0 
-80 0 0 -150 -1 1 -4 0 1 
3 0 0 130 0 0 115 0 0 
-251 -1 0 -123 0 1 5 0 0 
33 0 1 276 1 1 217 1 -1 
-4 0 1 -280 -1 0 71 0 0 
-213 -1 0 90 0 -1 -169 -1 0 
141 0 0 1 0 1 66 0 0 
-305 -1 1 -190 -1 1 253 0 0 
-26 0 1 229 0 1 10 0 0 
-14 0 0 -221 -1 1 -162 -1 1 
91 0 0 -118 -1 0 -382 -1 0 
-197 -1 1 -75 0 0 48 0 0 
96 0 1 15 0 0 208 0 0 
-236 -1 0 219 0 0 -262 -1 0 
-37 0 0 -315 -1 1 118 0 0 
94 0 0 124 0 1 -137 -1 1 
96 0 0 33 0 1 102 0 0 
-28 0 1 107 0 0 -107 -1 1 
138 0 -1 -2 0 1 -186 -1 -1 
135 0 0 85 0 0 369 1 0 
20 0 0 176 0 0 71 0 -1 
-7 0 1 -67 -1 1 159 0 -1 
70 0 0 -197 -1 0 -220 -1 -1 
156 0 0 55 0 0 29 0 -1 
163 0 0 40 0 1 88 0 0 
68 0 0 346 1 -1 -1 0 0 
-26 0 -1 138 0 0 101 0 -1 
50 0 -1 -268 -1 1 -1 0 0 
107 0 -1 159 0 0 113 0 -1 
-217 -1 0 -208 -1 0 -66 0 0 
143 0 -1 215 0 -1 72 0 0 
-49 0 1 -305 -1 0 329 1 0 
198 0 -1 56 0 0 -241 -1 1 
-187 -1 0 -249 -1 -1 64 0 0 
101 0 0 -132 -1 0 -18 0 0 
-319 -1 0 121 0 0 -183 -1 0 
63 0 0 -27 0 0 63 0 0 
261 0 0 133 0 0 94 0 1 
-206 -1 0 -35 0 -1 220 1 0 
-161 -1 0 -106 0 0 25 0 0 
122 0 1 164 0 -1 -114 -1 0 
42 0 0 5 0 0 102 0 0 
28 0 0 159 0 0 22 0 0 
-151 -1 0 -28 0 -1 39 0 1 
-177 -1 0 -47 0 -1 43 0 -1 
-45 0 0 -249 -1 1 126 0 -1 
32 0 0 -118 -1 0 115 0 0 
25 0 -1 210 0 -1 -207 -1 0 
69 0 -1 190 0 0 159 0 0 
-24 0 0 31 0 -1 -261 -1 0 
60 0 0 -149 -1 -1 -210 -1 0 
35 0 -1 34 0 -2 -242 -1 0 
167 0 0 -338 -1 -1 -34 0 -1 
28 0 -1 12 0 0 52 0 -1 
164 0 0 42 0 0 -348 -1 0 
71 0 -1 77 0 -1 -355 -1 0 
-226 -1 0 -339 -1 0 62 0 -1 
32 0 -1 188 0 -1 82 0 0 
96 0 -1 -61 0 0 171 0 0 
173 0 0 74 0 -2 -174 -1 0 
23 0 -1 
v 3 1000 double
-469.81952808 11.348994381 -9.1416814421 -387.58461288 3.4436931864 16.693621641 -387.49401546 8.7672368152 2.2089769567 
-414.18542587 4.2606344371 11.748938603 -298.72725434 8.6084890532 37.824031115 -404.91905042 16.384916715 17.240455342 
-91.201568166 21.382157253 -4.8365353241 -283.6573281 -5.3098577751 14.126023991 -51.684947042 2.5577579042 -25.843438377 
-243.00541787 -10.628349062 19.758652968 -184.61188618 -18.42661834 -7.4506400189 -277.40806186 -19.657374537 -16.439402294 
-169.97863061 -23.923863842 6.8104552152 -164.35370021 -12.278160856 -5.9143973602 -481.2162175 1.8736248413 -13.556270898 
-405.65022268 19.523332299 3.1383534373 -79.56829789 -10.546225676 14.416797688 -469.09630296 -1.513215856 13.555860258 
-84.85473973 -14.943368145 -24.233212503 -255.97857842 -15.542218556 -10.270615175 -400.94294046 -9.7714812215 14.518712631 
-402.87225607 18.624020927 -11.857922871 -181.18293498 2.9554233036 17.570140501 -123.12563649 2.3370168782 -20.461306518 
-325.13069606 3.0031080849 2.3762562013 -358.88760075 4.9406192239 -31.508862358 -481.45897132 20.430524799 -11.643319824 
-300.91086888 -22.887065165 7.9058710437 -138.30651837 -10.971987751 10.787887111 -192.05291602 -8.7877160847 -8.1241229233 
-390.43259446 20.089875741 -3.8617752134 -37.050579656 -7.7557883608 3.413223734 -191.68979976 -8.3807140722 -10.728577836 
-396.12127405 6.8708080452 -16.508017488 -239.10930146 -5.4339011481 -5.9233903254 -382.07720533 -3.9042626556 14.623612331 
-113.75008928 3.7863771847 2.3030047632 -204.81687169 -14.511920692 -14.093599283 -237.75665071 17.696193344 16.465415583 
-111.541677 -29.909003944 9.8821773625 -319.4158566 -11.571884123 -3.6666790215 -141.41840892 7.0120919356 -20.634507994 
-56.955582756 9.9127412883 -7.9007879046 -129.74658948 -0.90983868555 -3.9057226989 -207.07606732 30.370778066 -0.23341469241 
-292.18119137 20.535884637 12.159044074 -391.43008674 3.0158778215 -19.662003953 -78.845193869 -32.26527368 24.029250347 
-421.97136904 33.440797006 -32.72549461 -326.81590026 40.049020667 0.21133837958 -367.85042299 8.7963591672 -15.703793291 
-370.29653604 15.492994387 -13.345122854 -306.68137054 15.998724457 -18.475405332 -70.401115309 -9.4675726415 14.324429317 
-397.02799904 5.3942298858 23.922299379 -365.71448368 -4.0224959942 -13.257638138 -401.86480232 -6.5963202473 -2.0907399196 
-386.52251289 -0.44341118246 -22.411165559 -257.46753486 -11.219497163 7.9174499898 -293.89684855 -8.0318040599 -15.076839766 
-242.21992497 -3.6660523717 6.8986451476 -110.76584584 -14.789875489 13.13286084 -182.39113104 -16.159657851 1.6670266931 
-279.41557531 10.330182434 -13.135301498 -181.19820918 3.75871187 7.6699489164 -416.47692802 -22.76693401 -3.8199695552 
-437.70150871 -16.862253088 13.997347773 -270.18081531 -2.6832782122 -17.401975969 -411.28438537 -15.131096846 0.40955885753 
-77.971858311 0.27817438636 -4.0009879239 -107.23268572 -25.873960579 6.6456218845 -185.58003405 -7.1061141433 18.724731268 
-138.75135063 -7.4544586786 -1.312789353 -225.77944289 30.225642175 -7.1459251494 -201.30966138 15.17181166 1.1235767499 
-197.99255196 8.3255098129 1.075701232 -87.926625513 -1.8485327866 -18.509402901 -91.761551478 11.332203028 -6.1192102246 
-495.36407779 -13.936711992 15.050995526 -283.93572729 -0.5907555128 -3.5964247356 -0.51996766328 2.7253221623 6.9834282332 
-30.155793725 -15.549248211 17.471665356 -162.33424603 -8.6340239649 5.0790074204 -426.04965209 0.96642109913 -17.373192236 
-287.64896887 14.661413833 -15.697550248 -66.373083134 12.754650408 -28.41423803 -141.00116711 -19.021573647 -12.928690426 
-52.532932369 0.2457347565 -16.762741009 -353.4128677 13.87526741 9.5502031294 -478.7563303 46.693119737 16.768323873 
-82.063099192 9.4533692873 1.5262170481 -104.77265463 2.4412178419 0.66513095925 -241.68827655 3.0172644154 14.603877331 
-41.455076678 -25.8297947 15.156365299 -339.6434957 -15.351030196 -31.112581325 -100.64109742 8.3812675485 4.6292342975 
-412.3229527 -0.7005691777 -13.306110237 -214.57974225 -13.643922925 -9.1086028106 -16.873215933 -2.2361361607 15.962311362 
-110.30096806 -9.0010122904 21.23635332 -322.56872502 -3.4647838938 -9.8478345023 -163.63794159 0.40420757424 -11.619586153 
33.129075242 -18.976423003 3.094699065 -426.90189921 3.6000625561 -12.192203715 -95.673268413 8.7092956821 -0.63077721146 
-273.83957035 6.6050594251 -0.66475942629 -53.368556395 17.735723029 -0.99086445544 -128.94885821 -2.3858032251 10.41223926 
-284.89262382 -1.4860044465 -18.550069705 -420.33603618 -8.2983953402 -7.0768195222 -257.19613021 -21.734255398 15.310671596 
-415.42398692 5.4564111539 -28.742331366 -424.06869996 -13.664506389 -10.467613688 -310.11920128 -31.633705813 -6.33208596 
-219.49708743 5.7599866616 7.6396182823 -362.63977169 20.003825617 16.543316566 -64.959956879 13.725181201 -5.0067291629 
-117.19227066 23.446872202 9.6735465902 -115.57303571 -3.7646830287 16.676180483 -305.9885492 19.522523794 15.64472662 
-198.87788133 -5.8500344403 -12.520200989 -367.14892361 26.867647977 -13.570745382 -290.78740857 1.7001035946 -18.364900215 