# vtk DataFile Version 4.2
Generated by LIGGGHTS
ASCII
DATASET POLYDATA
POINTS 1000 float
2.0257 1.22904 1.04842 4.53678 4.59037 1.97356 2.47855 1.86174 1.90606 
0.251253 0.54431 0.938217 1.64182 0.585014 1.71725 3.71738 4.08615 1.77206 
4.71952 2.89554 0.034051 2.356 3.79123 1.21935 1.17024 2.89524 1.73295 
2.62329 0.620873 1.36498 1.36192 3.64853 0.263191 1.77594 2.07718 0.777419 
2.19375 3.04399 0.780981 4.37506 1.7573 1.43275 3.21848 2.77505 1.37875 
0.819854 1.99694 1.03757 3.4745 1.11201 0.961669 0.383247 1.2526 1.2945 
1.67756 2.50818 1.44617 2.37598 0.750224 0.405301 4.86628 1.25297 1.22995 
1.05047 0.895816 1.25281 3.83837 0.807631 1.71396 0.250092 2.01131 0.199487 
0.823153 2.79213 0.780279 1.52273 2.87609 0.00897287 0.914157 3.56416 1.57571 
3.67935 3.75496 0.581054 1.67589 4.29613 1.08662 4.0379 2.90701 0.64728 
3.07054 3.52748 1.43941 3.24523 0.544362 0.320612 3.04636 1.33583 1.67016 
4.0482 3.07993 1.65457 0.915355 4.24662 0.487602 3.74545 1.75576 1.61898 
1.0146 4.46333 1.64301 3.8827 1.3353 0.0831738 4.18172 4.67625 1.05418 
0.182057 4.70573 1.17724 3.29189 0.116421 1.18909 2.93145 4.80421 0.028587 
2.59844 2.2694 0.408606 4.16313 2.12931 0.649047 3.0227 1.97791 1.11571 
3.42324 2.00219 0.273994 3.54942 4.60058 0.638775 4.45372 4.53183 0.0178848 
4.54107 0.36819 1.54586 1.50276 0.0126368 1.26849 4.92928 3.18504 0.965896 
2.54224 1.07404 3.8435 1.69503 0.425442 3.14857 2.33176 2.33831 3.01356 
4.3304 0.908147 3.76098 4.81597 0.00979508 3.91978 0.910749 0.370517 3.26985 
2.06089 1.12726 2.67109 1.90104 2.98282 2.36764 4.52439 1.74973 2.50971 
1.25555 2.50952 3.32783 3.25655 2.18001 3.80009 4.03482 4.60995 3.26839 
0.828156 0.960323 3.90829 0.516893 0.621873 2.64502 1.80853 0.0148183 2.29704 
1.5467 1.51143 3.19037 2.52271 3.26721 3.10327 1.30856 1.20058 2.14997 
2.41454 4.45854 3.40165 3.42221 1.32613 3.57209 4.44465 4.08823 2.68587 
4.36449 3.34054 2.35566 0.534514 1.40444 3.20489 0.410799 1.33135 2.2078 
2.038 3.72798 3.11604 1.69923 2.06831 2.323 1.33574 3.50441 2.52722 
0.342336 3.3392 2.30669 3.59977 2.24789 2.12195 3.34058 4.51109 3.91482 
1.76753 3.5437 3.96009 0.680332 3.46481 3.24565 3.5578 0.845919 2.91536 
1.8154 4.41611 2.3257 0.172524 4.38396 2.06722 3.01024 2.40453 2.4157 
4.49097 2.67107 2.54989 2.79608 1.6751 3.06628 0.0542373 4.07653 2.97831 
3.46207 3.86204 2.73038 1.40546 4.31662 3.39844 2.64595 0.506937 3.23753 
3.73199 3.15855 2.85106 2.64724 3.97774 2.41429 3.27248 4.61681 2.7372 
-0.0214981 4.25689 3.88704 2.85788 0.954958 2.37875 2.67289 3.07382 2.2753 
2.94547 3.31753 3.78353 3.83765 0.0094468 3.66098 3.65262 2.09804 2.9604 
3.83486 4.82665 2.01428 3.75222 3.80178 3.62924 4.23567 0.710934 2.49836 
4.12171 2.78794 3.61007 4.92887 4.73669 3.35057 2.5225 1.83486 4.9143 
3.81479 0.378009 5.52511 3.37337 4.71679 4.96242 1.25511 0.207579 4.00189 
2.33273 0.497686 4.34624 1.32104 1.75592 5.84803 3.26034 3.79014 4.57926 
0.829965 4.35659 5.95963 4.69142 3.81843 5.32417 2.45498 4.45255 5.15419 
3.86048 2.88829 5.8557 2.52563 3.89681 4.1168 0.419653 1.42112 4.57404 
2.88286 4.49693 5.9831 0.549903 0.281325 4.54936 0.699697 0.308605 5.36004 
0.805399 1.14536 5.443 -0.00727626 0.856554 5.91104 4.79525 1.14005 5.78881 
1.45487 0.350974 4.83985 2.52875 2.90862 4.9011 0.93507 2.95762 5.71378 
1.82857 3.36157 4.99612 3.47492 2.17968 5.29819 1.23086 3.76444 4.40236 
1.31344 3.87582 5.35689 4.26087 4.78061 5.30035 -0.0243108 3.03478 4.03983 
2.00723 4.47291 4.50521 2.67324 3.79425 5.18789 1.90732 4.91512 5.37757 
4.49482 1.79509 4.29348 0.545486 3.66563 5.25647 2.69858 2.56927 4.07924 
2.46713 1.67705 4.02425 3.6623 3.64939 5.42211 0.378274 3.79834 4.3408 
0.629076 4.61564 4.83225 2.79405 2.62413 5.76889 4.22448 0.838819 4.79953 
3.80592 2.32057 4.45186 4.34545 1.72605 5.33985 4.28088 4.60153 4.15078 
4.9383 1.21525 4.57857 4.87841 2.92492 5.08611 4.36125 4.63116 7.31001 
2.28987 0.2496 6.53469 4.67077 1.18878 6.74597 3.94783 1.80159 7.85432 
0.814459 0.650954 6.42721 2.1483 4.30956 6.9367 1.31847 0.702755 7.51944 
0.380767 1.20784 6.89219 3.01305 1.10503 6.61442 2.16336 3.3003 6.07876 
4.77548 3.63075 7.81322 0.142097 2.04612 6.85953 0.203076 1.73283 6.00275 
1.96121 2.43254 6.14851 2.10809 1.44117 6.1884 0.540394 1.47257 7.70081 
1.2839 3.092 7.21903 4.01196 4.10208 6.24458 2.35312 2.40448 7.55451 
2.13643 1.11253 7.05364 2.68974 3.901 6.74993 1.69807 2.19818 7.02687 
3.71361 4.82142 7.85442 3.83691 3.79142 7.60206 0.221956 2.8336 6.66996 
4.53472 0.360669 7.29924 1.79026 3.9153 6.10082 0.0764225 2.68983 7.92483 
3.92602 1.15244 6.12796 3.05678 0.601532 7.78237 0.322216 3.48847 7.37322 
4.7936 3.54483 6.8247 0.385443 4.92146 6.5389 3.81944 1.0711 7.19623 
1.27823 4.19441 6.88169 1.06215 4.12545 7.92472 2.97058 2.28244 6.82758 
3.38736 1.82328 6.10583 3.11734 3.51141 7.21396 2.54055 4.13491 7.88898 
3.11325 1.55891 7.39294 2.18857 4.74895 6.21398 3.86647 3.24773 6.74505 
1.68941 1.48199 7.92486 0.335201 4.06977 6.69179 0.526718 4.41684 7.48363 
3.9098 2.34634 6.87639 3.45116 0.357566 6.61301 2.63747 0.0457241 7.28887 
2.35744 0.768618 7.97166 3.48198 4.75445 6.66228 3.61401 2.83506 7.66053 
4.92388 4.4626 6.04149 1.24052 0.678873 8.46828 4.1729 3.6249 9.74115 
1.70961 0.291401 8.88515 4.81121 2.02697 9.17719 1.73012 1.96074 8.81912 
1.98786 2.05221 9.73082 2.37609 1.3748 8.59065 3.59571 4.66 9.34061 
2.24753 1.08496 9.4126 3.54398 3.34682 8.44592 2.65528 3.91235 9.87301 
2.3581 2.91724 8.3701 0.977888 2.81233 8.14134 1.12718 1.9612 9.91281 
2.76313 2.02333 8.01285 2.36479 0.234289 8.9552 0.472654 0.349663 9.2146 
0.420427 1.25163 8.67076 1.28202 1.05675 9.72783 1.94345 0.180976 9.77944 
1.34321 2.94698 9.04678 2.41177 3.22053 9.30468 0.572469 2.07567 9.12887 
1.78735 3.89516 8.33594 2.95178 3.83518 8.60081 0.457817 2.79772 9.70403 
1.30282 3.85531 9.32585 3.90666 1.01672 8.91881 0.481897 4.7013 8.40024 
1.40361 4.94893 8.45389 4.53911 0.17938 8.98598 0.00524675 2.90991 9.07648 
2.90013 2.02928 9.54143 0.609321 3.92452 8.77454 3.98777 1.84899 9.45746 
3.59367 2.15374 8.81356 4.41341 3.00016 9.05386 0.102075 4.12123 9.96346 
0.909616 4.75339 9.34062 2.82936 2.488 8.78805 3.7925 0.390345 8.15017 
3.66418 0.0703432 9.11604 4.69844 4.49681 8.18461 3.01053 0.575265 9.48883 
2.95039 0.134037 8.59642 2.83062 4.63042 8.72167 4.05271 0.527841 9.86403 
4.14383 4.50619 8.72325 4.72218 1.06482 8.46204 4.95117 1.42827 9.81725 
4.9376 4.75432 9.2749 4.51694 6.1547 1.0831 0.155198 9.91628 0.488946 
4.07675 9.77522 0.277642 3.0952 9.63892 0.297719 2.20821 9.76873 0.3231 
0.209941 7.88386 1.7536 1.33073 9.31522 0.907137 0.532403 5.48546 1.89452 
1.62023 8.28433 0.515775 2.80091 8.05345 0.53089 0.998608 9.97409 0.418334 
0.770591 8.76823 1.65434 2.89404 6.31022 0.585702 3.78044 6.11066 0.207276 
2.46496 9.97748 1.7645 0.885765 5.02166 0.208043 4.80937 5.73984 0.220899 
0.554856 9.409 1.72419 1.48684 5.7837 1.62234 0.0262927 9.03776 0.993856 
3.38658 8.66836 1.8732 4.13522 9.47182 1.31166 2.25221 9.34029 1.05126 
0.229642 9.88552 1.43724 4.21658 5.47706 1.49876 1.41721 8.62726 1.79668 
0.541037 5.44778 0.703651 0.950751 6.20393 1.10544 3.03533 8.92424 0.83184 
0.536701 9.05647 0.267196 0.459989 7.7148 0.672614 0.560867 6.72857 1.23809 
4.80055 7.02625 0.822678 3.18315 7.69974 1.58651 1.1627 7.3777 0.4936 
1.47903 9.01888 0.0042748 0.340119 6.42457 0.265894 2.10803 8.57987 1.46505 
1.87122 6.44449 0.467667 2.04443 7.74247 1.88583 0.680167 7.54753 1.36781 
1.00008 6.06737 0.0767816 0.91392 8.4961 0.862233 2.97641 5.29259 0.844111 
1.96626 9.56966 3.66369 2.6189 6.99347 3.12552 -0.0517404 8.799 3.17 
3.64754 5.31009 3.66126 0.0973186 9.19626 3.87144 0.9525 9.47671 3.93573 
3.36219 8.42803 2.80526 1.23213 7.954 2.40517 0.0490636 9.09945 2.42115 
1.241 8.64438 2.91967 3.10721 9.68678 2.06504 3.15227 6.26494 3.04383 
4.25675 9.80614 2.5308 4.2177 6.85504 3.66429 3.86331 7.06134 2.07476 
3.23833 5.23456 2.98719 2.50274 5.24646 3.52181 3.51226 7.66548 2.59829 
3.92647 6.05895 3.09782 1.01816 7.61472 3.21454 4.47809 5.50503 3.25318 
0.202237 7.84743 2.71933 3.53469 5.50023 2.15442 1.33721 9.59777 3.05406 
0.739583 9.94028 2.4512 0.265457 7.89293 3.64556 0.747389 8.77905 3.52385 
3.18325 7.69385 3.5194 -0.0150936 5.03033 2.84975 2.54673 9.9331 2.67518 
4.17821 9.23586 3.504 0.801086 9.12889 2.52725 4.56463 6.56519 2.8285 
3.31493 5.93255 3.8336 2.00876 5.76364 2.76875 0.979801 5.04529 3.77559 
0.439997 7.08258 2.15074 4.20802 6.23423 2.01354 1.95868 9.09972 2.58691 
2.719 5.36764 2.5116 1.92751 7.77375 3.58143 2.34463 6.71649 2.21872 
1.76638 6.75157 3.51649 0.870747 6.71152 2.89753 4.62897 6.2271 3.87761 
4.88788 7.48141 3.31315 0.710469 8.7858 5.78538 4.67118 9.44808 5.50084 
3.84443 5.55604 4.52394 3.76135 8.58706 4.22594 2.61898 5.50517 4.78026 
4.20753 7.20523 5.12084 3.00937 8.13728 5.08399 1.5671 7.24957 5.48489 
2.9366 6.50757 5.23251 3.67008 7.29178 5.86289 1.02062 9.78993 5.75482 
4.17854 9.91262 5.10212 0.605771 8.63191 4.38832 3.442 8.12214 5.94254 
3.57465 7.78151 4.37806 3.15738 5.60392 5.25395 3.50816 9.01354 5.42457 
1.74045 9.63016 4.62182 3.43033 6.47715 4.47059 3.80712 6.38688 5.43636 
4.62935 6.26529 5.75944 0.526966 9.26318 5.02426 4.08904 6.41594 4.54874 
1.79186 9.70758 5.5587 4.10375 7.33872 4.31516 0.837689 5.54233 5.6452 
1.73471 5.11371 4.2479 0.291734 6.23221 4.14592 2.08449 5.85076 5.19373 
0.986456 5.91354 4.80622 2.55988 7.92777 5.9994 1.22127 8.58545 4.96228 
2.65978 7.39607 4.49144 2.45911 5.93961 4.14113 2.16487 8.45874 4.28829 
0.107873 5.19558 4.12301 4.83444 7.99505 5.02742 2.10242 8.34671 5.24855 
0.0523488 7.19637 5.36144 1.54183 6.3554 5.89215 2.67214 7.19474 5.43804 
2.7396 9.62245 5.31315 2.94615 5.08518 4.32056 3.45242 9.39299 4.41441 
4.72837 7.79094 5.85466 4.75183 6.4747 4.84774 4.78539 9.24022 4.57383 
4.82686 8.63103 5.66086 4.9004 7.08701 5.39644 2.41002 5.50991 6.4719 
3.41131 6.76261 7.13134 2.66479 7.42386 7.79623 3.45114 8.56347 7.81819 
4.24918 7.95308 6.36172 1.28582 6.93427 6.54941 -0.0643267 7.22611 6.40322 
[...]
POINT_DATA 1000
FIELD FieldData 7
id 1 1000 int
420 792 288 526 358 9 106 327 428 
25 539 2 159 400 527 67 750 41 
746 108 298 583 439 968 603 510 98 
458 766 250 908 597 147 828 430 22 
924 181 886 710 569 382 905 450 165 
530 380 696 523 797 465 747 925 835 
172 786 967 984 541 794 647 79 301 
78 440 724 278 445 769 265 110 486 
568 282 842 406 947 731 413 751 895 
921 957 418 860 803 454 975 189 75 
654 782 821 350 339 266 312 389 626 
190 345 180 931 254 907 844 56 783 
1 531 43 700 232 292 646 185 666 
478 653 980 845 763 92 191 93 120 
726 572 922 58 390 838 356 893 361 
464 459 610 364 433 913 501 620 82 
628 544 619 966 485 939 308 488 733 
352 163 861 262 926 291 665 521 671 
590 115 211 748 661 33 132 113 890 
899 971 283 84 586 524 703 826 201 
940 65 624 142 836 509 5 734 222 
658 929 11 393 974 157 285 184 927 
717 338 287 199 772 843 328 805 214 
72 740 737 711 887 90 573 42 857 
241 787 233 813 372 425 645 614 4 
868 983 863 621 810 125 870 639 321 
582 237 410 675 218 577 880 186 944 
623 806 565 559 917 977 168 249 443 
725 533 290 972 928 259 66 638 637 
334 419 953 457 279 246 914 396 649 
958 644 123 962 889 273 449 670 414 
548 779 127 591 472 357 29 303 455 
152 855 883 128 976 663 758 8 994 
735 946 739 901 442 63 342 884 820 
197 801 985 997 802 627 47 407 235 
911 560 112 571 518 370 473 839 712 
263 479 704 299 243 368 680 576 409 
990 179 234 723 209 867 950 682 497 
340 634 642 745 900 749 631 657 336 
535 500 384 435 859 982 959 275 164 
489 915 313 771 602 757 271 309 540 
687 114 94 62 846 245 436 319 133 
814 919 536 320 837 636 151 888 221 
695 600 395 81 160 131 528 732 550 
187 360 109 570 175 397 498 335 718 
70 158 869 99 784 297 981 730 684 
13 466 519 475 169 848 834 998 276 
154 54 423 59 27 706 53 681 686 
635 822 468 520 294 964 289 753 36 
347 119 949 595 878 689 286 589 150 
136 141 272 34 672 858 422 388 705 
840 679 494 584 467 470 534 198 392 
632 129 315 599 554 471 643 587 973 
668 135 377 30 349 693 453 296 775 
37 89 134 52 177 807 881 719 549 
270 952 20 137 130 80 149 23 252 
173 138 155 755 760 613 366 768 483 
941 809 713 616 18 566 39 322 427 
765 933 482 1000 853 401 421 446 978 
405 547 329 762 555 795 17 812 332 
744 38 593 785 456 579 295 207 592 
833 153 770 767 909 690 346 480 247 
999 715 51 930 367 778 641 213 269 
196 284 691 416 434 864 819 354 513 
948 664 871 851 875 216 877 96 699 
951 598 606 829 955 667 781 495 516 
394 932 21 612 709 24 253 557 55 
862 204 575 267 182 7 228 896 506 
492 987 816 12 193 702 552 674 741 
514 217 258 865 609 995 640 103 629 
918 10 660 64 580 989 348 823 798 
104 86 257 804 16 61 40 353 126 
403 139 529 375 743 200 415 105 74 
487 992 988 101 956 220 961 31 780 
891 281 307 431 651 650 260 452 502 
460 625 910 378 721 355 438 611 331 
102 399 437 761 167 224 229 656 759 
424 373 827 208 508 596 48 608 95 
408 954 876 754 210 708 148 314 318 
121 904 484 35 935 341 293 310 912 
374 277 316 162 722 648 333 938 311 
652 496 815 481 764 581 697 383 73 
545 578 969 91 683 633 178 692 116 
192 183 776 916 942 701 85 532 856 
738 386 385 171 986 111 817 302 832 
194 202 685 852 996 574 563 381 561 
274 344 391 894 727 300 49 323 426 
240 461 144 850 118 476 934 736 365 
800 698 100 264 906 227 897 522 14 
195 562 143 601 444 117 238 477 337 
615 923 902 564 83 244 280 849 351 
707 19 161 231 594 387 212 176 752 
3 490 799 215 808 790 742 669 841 
630 324 945 26 15 825 76 818 677 
505 885 542 203 789 507 662 777 831 
140 376 499 943 517 447 251 556 525 
788 873 451 673 872 469 156 493 145 
50 88 866 720 659 219 432 617 963 
729 970 511 622 504 553 174 898 558 
255 402 71 230 811 847 317 363 261 
226 305 44 512 793 694 122 879 854 
678 965 756 398 874 463 429 448 166 
791 6 688 979 543 57 546 474 359 
892 551 146 206 326 714 362 491 991 
304 676 604 567 256 830 379 188 515 
937 223 124 225 920 618 503 97 585 
404 655 45 537 325 774 371 32 936 
411 205 343 824 248 412 607 369 993 
716 882 796 28 605 236 69 107 170 
60 306 728 268 538 462 242 903 46 
960 441 417 588 77 68 773 330 87 
239 
type 1 1000 int
1 2 1 2 1 1 1 1 1 
1 2 1 1 1 2 1 2 1 
2 1 1 2 1 2 2 2 1 
1 2 1 2 2 1 2 1 1 
2 1 2 2 2 1 2 1 1 
2 1 2 2 2 1 2 2 2 
1 2 2 2 2 2 2 1 1 
1 1 2 1 1 2 1 1 1 
2 1 2 1 2 2 1 2 2 
2 2 1 2 2 1 2 1 1 
2 2 2 1 1 1 1 1 2 
1 1 1 2 1 2 2 1 2 
1 2 1 2 1 1 2 1 2 
1 2 2 2 2 1 1 1 1 
2 2 2 1 1 2 1 2 1 
1 1 2 1 1 2 2 2 1 
2 2 2 2 1 2 1 1 2 
1 1 2 1 2 1 2 2 2 
2 1 1 2 2 1 1 1 2 
2 2 1 1 2 2 2 2 1 
2 1 2 1 2 2 1 2 1 
2 2 1 1 2 1 1 1 2 
2 1 1 1 2 2 1 2 1 
1 2 2 2 2 1 2 1 2 
1 2 1 2 1 1 2 2 1 
2 2 2 2 2 1 2 2 1 
2 1 1 2 1 2 2 1 2 
2 2 2 2 2 2 1 1 1 
2 2 1 2 2 1 1 2 2 
1 1 2 1 1 1 2 1 2 
2 2 1 2 2 1 1 2 1 
2 2 1 2 1 1 1 1 1 
1 2 2 1 2 2 2 1 2 
2 2 2 2 1 1 1 2 2 
1 2 2 2 2 2 1 1 1 
2 2 1 2 2 1 1 2 2 
1 1 2 1 1 1 2 2 1 
2 1 1 2 1 2 2 2 1 
1 2 2 2 2 2 2 2 1 
2 1 1 1 2 2 2 1 1 
1 2 1 2 2 2 1 1 2 
2 1 1 1 2 1 1 1 1 
2 2 2 1 2 2 1 2 1 
2 2 1 1 1 1 2 2 2 
1 1 1 2 1 1 1 1 2 
1 1 2 1 2 1 2 2 2 
1 1 2 1 1 2 2 2 1 
1 1 1 1 1 2 1 2 2 
2 2 1 2 1 2 1 2 1 
1 1 2 2 2 2 1 2 1 
1 1 1 1 2 2 1 1 2 
2 2 1 2 1 1 2 1 1 
2 1 1 2 2 1 2 2 2 
2 1 1 1 1 2 1 1 2 
1 1 1 1 1 2 2 2 2 
1 2 1 1 1 1 1 1 1 
1 1 1 2 2 2 1 2 1 
2 2 2 2 1 2 1 1 1 
2 2 1 2 2 1 1 1 2 
1 2 1 2 2 2 1 2 1 
2 1 2 2 1 2 1 1 2 
2 1 2 2 2 2 1 1 1 
2 2 1 2 1 2 2 1 1 
1 1 2 1 1 2 2 1 2 
2 2 2 2 2 1 2 1 2 
2 2 2 2 2 2 2 1 2 
1 2 1 2 2 1 1 2 1 
2 1 2 1 1 1 1 2 2 
1 2 2 1 1 2 2 2 2 
2 1 1 2 2 2 2 1 2 
2 1 2 1 2 2 1 2 2 
1 1 1 2 1 1 1 1 1 
1 1 2 1 2 1 1 1 1 
1 2 2 1 2 1 2 1 2 
2 1 1 1 2 2 1 1 2 
1 2 2 1 2 1 1 2 1 
1 1 1 2 1 1 1 2 2 
1 1 2 1 2 2 1 2 1 
1 2 2 2 1 2 1 1 1 
1 2 1 1 2 1 1 1 2 
1 1 1 1 2 2 1 2 1 
2 1 2 1 2 2 2 1 1 
2 2 2 1 2 2 1 2 1 
1 1 2 2 2 2 1 2 2 
2 1 1 1 2 1 2 1 2 
1 1 2 2 2 2 2 1 2 
1 1 1 2 2 1 1 1 1 
1 1 1 2 1 1 2 2 1 
2 2 1 1 2 1 2 2 1 
1 2 1 2 1 1 1 1 1 
2 2 2 2 1 1 1 2 1 
2 1 1 1 2 1 1 1 2 
1 1 2 1 2 2 2 2 2 
2 1 2 1 1 2 1 2 2 
2 2 2 1 2 2 2 2 2 
1 1 1 2 2 1 1 2 2 
2 2 1 2 2 1 1 1 1 
1 1 2 2 2 1 1 2 2 
2 2 2 2 2 2 1 2 2 
1 1 1 1 2 2 1 1 1 
1 1 1 2 2 2 1 2 2 
2 2 2 1 2 1 1 1 1 
2 1 2 2 2 1 2 1 1 
2 2 1 1 1 2 1 1 2 
1 2 2 2 1 2 1 1 2 
2 1 1 1 2 2 2 1 2 
1 2 1 2 1 2 1 1 2 
1 1 1 2 1 1 2 1 2 
2 2 2 1 2 1 1 1 1 
1 1 2 1 2 1 1 2 1 
2 1 1 2 1 1 2 1 1 
1 
i 3 1000 int
-5 0 1 205 1 0 -28 0 -1 
-115 0 1 -53 0 0 252 1 0 
-55 0 0 -51 0 0 -77 0 1 
-120 0 0 -97 0 1 -41 0 1 
215 1 0 -124 0 0 10 0 0 
229 1 1 -121 0 1 -164 0 0 
-31 0 0 -157 0 1 -124 0 0 
-120 0 1 -57 0 0 219 1 1 
188 1 0 -47 0 0 -47 0 0 
37 0 0 -67 0 1 -50 0 1 
-78 0 1 -100 0 1 -114 0 0 
-48 0 1 -17 0 1 135 1 0 
-49 0 1 109 1 0 276 1 0 
96 0 0 205 1 0 -193 -1 -1 
-59 0 0 134 1 0 39 0 0 
-71 0 2 -44 0 1 34 0 0 
-119 0 1 178 1 0 -20 0 1 
-183 0 0 113 1 0 -44 0 1 
-166 0 0 -142 0 1 169 1 -1 
174 1 1 170 1 0 7 0 0 
-90 0 0 -102 0 1 71 0 0 
-11 0 1 3 0 0 -190 0 0 
188 1 -1 -28 0 0 -33 0 1 
-63 0 1 -79 0 1 180 1 1 
-64 0 0 199 1 0 -116 0 1 
-60 0 1 1 0 1 281 1 0 
-40 0 0 151 1 1 -79 0 0 
-67 0 1 47 0 0 -126 0 1 
-27 0 1 193 1 0 192 1 0 
182 1 1 179 1 0 196 1 1 
-76 0 1 84 0 -1 178 1 0 
165 1 0 -66 0 1 -198 -1 0 
10 0 1 -74 0 0 -54 0 -1 
-40 0 1 179 1 0 6 0 0 
30 0 0 -2 0 0 -114 0 0 
152 1 0 -53 0 0 -64 0 1 
-194 0 -1 -65 0 0 -111 0 0 
102 1 0 -75 0 1 -292 -1 -1 
-55 0 0 11 0 0 20 0 0 
-14 0 1 243 1 0 149 1 1 
-30 0 0 76 1 1 66 1 0 
140 1 0 122 1 -1 -145 0 -1 
132 1 -1 -81 0 0 34 0 0 
46 0 -1 113 1 -1 5 0 1 
34 0 0 12 0 0 -51 0 0 
23 0 0 15 0 0 46 0 -1 
-49 0 0 184 1 -1 -11 0 0 
154 1 0 -18 0 0 43 0 -1 
38 0 1 1 0 0 -62 0 1 
-63 0 1 -101 0 1 -47 0 0 
-72 0 1 -115 0 1 119 0 -1 
-85 0 0 164 1 0 -47 0 0 
-164 0 0 139 1 0 -111 0 0 
122 1 1 -76 0 0 -23 0 0 
-19 0 -1 123 1 -1 151 1 0 
193 1 -1 -64 0 -1 232 1 0 
53 0 0 45 0 -1 -36 0 -1 
-131 0 -1 52 0 0 -143 0 0 
115 0 0 223 1 0 -63 0 1 
-144 0 0 256 1 0 -73 0 0 
6 0 -1 -61 0 0 18 0 -1 
-95 0 -1 138 0 -1 -104 0 0 
29 0 -1 -61 0 0 229 1 0 
-52 0 0 -20 0 1 -19 0 -1 
85 1 -1 327 1 0 -55 0 0 
69 0 -1 56 0 0 23 0 0 
-88 0 0 102 1 0 180 1 0 
-219 0 -1 -61 0 1 -30 0 0 
36 0 -1 -107 0 -1 -19 0 -1 
170 1 0 -68 0 0 -56 0 0 
117 1 -1 140 1 -1 53 0 -1 
-107 0 0 -84 0 0 -21 0 -1 
284 1 1 -58 0 0 -104 0 0 
196 1 0 -127 0 0 -138 0 0 
113 1 -1 124 1 0 -151 0 -1 
-84 0 1 7 0 -1 -54 0 0 
4 0 0 44 0 0 -232 -1 0 
2 0 0 76 1 0 -8 0 -1 
-7 0 -1 -105 0 0 -50 0 -1 
-63 0 -1 12 0 -1 165 1 -1 
11 0 0 153 1 -1 -83 0 0 
-54 0 0 -90 0 0 -94 0 0 
-145 0 0 37 0 0 114 1 -1 
51 1 0 -76 0 1 114 1 -1 
-36 0 -1 263 1 -1 173 1 0 
15 0 -1 14 0 0 -134 -1 -1 
-78 -1 1 60 0 -1 -97 -1 2 
76 0 0 112 0 0 88 0 0 
38 0 0 379 1 0 187 0 1 
34 0 1 -24 0 1 42 0 1 
174 0 2 294 1 1 -25 0 0 
-133 -1 0 2 0 0 -177 -1 2 
17 0 0 -74 -1 1 129 0 0 
-117 -1 1 -3 0 0 -128 -1 1 
-259 -1 1 7 0 1 -230 -1 1 
106 0 0 150 0 1 20 0 0 
44 0 1 -230 -1 0 3 0 0 
55 0 1 53 0 0 82 0 0 
0 0 0 71 0 1 75 0 0 
48 0 0 84 0 0 22 0 0 
-119 -1 0 17 0 0 88 0 0 
-12 0 1 62 0 0 -127 -1 0 
100 0 0 -234 -1 -1 71 0 0 
38 0 1 37 0 1 -4 0 0 
-111 -1 0 33 0 0 11 0 0 
-204 -1 -1 54 0 0 6 0 0 
49 0 1 -188 -1 0 -18 0 0 
46 0 0 -28 0 1 99 0 0 
-74 -1 1 73 0 0 106 0 -1 
13 0 0 -59 0 0 27 0 0 
-146 -1 0 89 0 0 319 1 1 
10 0 0 115 0 0 -55 0 0 
104 0 0 -232 -1 0 41 0 0 
24 0 -1 32 0 0 169 0 1 
10 0 0 82 0 -1 -224 -1 0 
-39 -1 1 -144 -1 0 -197 -1 0 
33 0 0 92 0 0 99 0 0 
115 0 0 39 0 0 -29 0 0 
48 0 -1 -183 -1 1 54 0 -1 
134 0 0 -130 -1 0 58 0 -1 
87 0 -1 56 0 0 -148 -1 -1 
-135 -1 0 141 0 0 74 0 0 
-52 0 0 71 0 0 -223 -1 0 
154 0 0 -224 -1 -1 -7 0 0 
-45 0 0 -46 0 1 -27 0 0 
68 0 0 14 0 -1 134 0 1 
-184 -1 1 -117 -1 0 -163 -1 0 
51 0 0 -198 -1 0 -134 -1 0 
-14 0 0 347 1 0 90 0 0 
84 0 0 -32 0 1 108 0 0 
51 0 1 91 0 0 88 0 0 
79 0 -1 -247 -1 1 52 0 0 
-72 0 0 -187 -1 0 44 0 0 
-229 -1 1 26 0 -1 82 0 -1 
180 0 0 -89 -1 0 -179 -1 0 
86 0 0 -51 -1 1 -24 0 0 
-160 -1 -1 -54 0 1 118 0 -1 
96 0 -1 -159 -1 -1 57 0 0 
15 0 -1 92 0 0 -129 -1 -1 
57 0 0 214 0 0 -195 -1 1 
52 0 0 -120 0 0 -196 -1 0 
3 0 0 65 0 0 -212 -1 0 
81 0 -1 -132 -1 0 63 0 0 
53 0 0 26 0 0 52 0 -1 
-287 -1 0 -102 -1 0 9 0 0 
67 0 0 78 0 0 68 0 -1 
-207 -1 -1 67 0 0 -199 -1 -1 
-11 0 -1 0 0 0 98 0 1 
110 0 0 144 0 0 -117 -1 0 
79 0 0 77 0 0 87 0 -1 
2 0 -1 -70 -1 0 -165 -1 -1 
156 0 0 -22 0 -1 -7 0 -1 
-244 -1 -2 -173 -1 0 -139 -1 0 
-10 0 0 -17 0 -1 35 0 -1 
-89 -1 0 287 1 0 92 0 -1 
43 0 0 -7 0 0 -15 0 -1 
27 0 -1 -178 -1 -1 56 0 0 
74 0 -1 -188 -1 -1 85 0 0 
9 0 1 -22 0 0 -12 0 0 
2 0 0 4 0 -1 -246 -1 1 
25 0 0 68 0 0 54 0 -1 
57 0 -1 55 0 -2 -141 -1 -1 
-286 -1 -1 -125 -1 0 -132 -1 0 
167 0 0 55 0 0 -83 -1 0 
-13 0 -1 153 0 0 -143 0 0 
-91 0 1 12 0 0 -192 0 0 
-170 0 0 -48 0 0 -47 0 1 
-17 0 0 -121 0 1 147 1 1 
163 1 1 -50 0 1 39 0 1 
-46 0 0 -53 0 1 -43 0 1 
-12 0 1 -128 0 -1 146 1 0 
-24 0 0 167 1 0 -189 0 1 
-32 0 1 -44 0 1 242 1 1 
-96 0 0 117 1 0 -28 0 0 
214 1 0 -25 0 0 50 1 0 
-93 0 0 160 1 0 54 0 0 
172 1 0 -44 0 1 31 0 0 
10 0 0 57 0 0 -120 0 1 
-112 0 1 -29 0 0 -84 0 0 
-106 0 0 32 0 1 -136 0 0 
144 1 0 -79 0 1 22 0 1 
273 1 1 -61 0 0 -44 0 0 
116 1 -1 170 1 1 -27 0 0 
-8 0 0 25 0 0 -55 0 0 
-98 0 1 -85 0 1 115 1 0 
208 1 0 -102 0 2 -161 0 0 
-40 0 0 145 1 0 -3 0 1 
-36 0 0 123 1 -1 -147 0 1 
-31 0 0 229 1 1 -144 0 0 
215 1 0 -98 0 0 164 1 0 
-93 0 0 -102 0 0 -28 0 1 
-55 0 1 -48 0 1 -77 0 0 
221 1 0 97 1 0 -10 0 0 
-150 0 0 -40 0 1 -124 0 1 
191 1 1 -95 0 0 31 0 -1 
-40 0 0 -60 0 1 -129 0 -1 
-57 0 0 11 0 1 -41 0 0 
162 1 0 -69 0 1 -101 0 1 
148 1 -1 -70 0 0 -88 0 1 
-18 0 1 127 1 0 167 1 -1 
-193 0 0 149 1 0 113 1 0 
-44 0 0 -140 0 1 134 1 -1 
-143 0 0 51 0 -1 -65 0 0 
-109 0 1 -12 0 -1 -95 0 0 
-143 0 0 169 1 0 -8 0 0 
-91 0 0 173 1 0 190 1 0 
74 0 -1 -48 0 0 -108 0 0 
-79 0 0 -58 0 0 -107 0 1 
-101 0 -1 -43 0 0 -128 0 1 
-119 0 0 15 0 0 -153 0 -1 
-100 0 0 -151 0 1 4 0 0 
48 0 -1 173 1 0 68 0 0 
-25 0 0 208 1 -1 -163 0 0 
-3 0 0 -33 0 1 -43 0 0 
-155 0 -1 -113 0 0 -129 0 0 
-35 0 0 115 1 0 178 1 -1 
-9 0 -1 -35 0 0 -19 0 0 
164 1 -1 -60 0 0 -128 0 0 
-3 0 -1 137 1 0 5 0 0 
-120 0 -1 -136 0 0 21 0 0 
-100 0 0 -88 0 0 261 1 0 
-11 0 0 147 1 0 -149 0 0 
20 0 -1 -7 0 -1 198 1 -1 
-100 0 -1 25 0 -1 -45 0 0 
-123 0 0 26 0 0 -132 0 0 
-19 0 0 -34 0 0 -44 0 1 
-150 0 0 182 1 0 134 1 0 
13 0 -1 -41 0 0 -10 0 -1 
-11 0 -1 -122 0 -1 -93 0 -1 
-131 0 0 169 1 -1 -144 0 0 
-121 0 0 -99 0 0 -75 0 -1 
-23 0 0 -142 0 -1 -51 0 0 
-27 0 0 -271 -1 0 -88 0 0 
81 0 -1 -45 0 0 -19 0 0 
-16 0 -1 181 1 -1 -74 0 0 
-101 0 0 143 1 -1 -136 0 0 
-25 0 0 -88 0 0 -82 0 0 
212 1 -1 131 1 -1 32 0 0 
-131 0 1 -62 0 0 14 0 -1 
-137 0 0 63 1 0 11 0 -1 
-26 0 0 -137 0 0 -122 0 -1 
145 1 -1 -111 0 -1 195 1 0 
-23 0 -1 18 0 -1 -18 0 0 
-31 0 0 89 0 -1 141 1 -1 
72 0 -1 -43 0 0 -17 0 0 
-26 0 -1 -75 0 0 16 -1 0 
116 0 -1 104 0 0 119 0 0 
-11 0 0 56 0 0 -153 -1 1 
53 0 0 161 0 0 46 0 1 
26 0 1 101 0 -1 -128 -1 1 
-100 -1 0 41 0 0 86 0 0 
82 0 1 50 0 0 -158 -1 1 
201 0 1 95 0 0 -217 -1 0 
-25 0 0 58 0 1 126 0 0 
41 0 0 110 0 0 -3 0 0 
-242 -1 0 100 0 0 27 0 1 
-176 -1 1 -70 -1 0 13 0 1 
32 0 1 41 0 1 69 0 0 
-192 -1 -1 74 0 0 -4 0 0 
10 0 0 -16 0 1 105 0 -1 
-7 0 1 -237 -1 0 111 0 -1 
-166 -1 1 250 1 0 19 0 0 
93 0 1 160 0 1 -93 -1 1 
56 0 0 -230 -1 2 -188 -1 0 
282 1 0 68 0 0 -13 0 0 
-21 0 0 88 0 0 -121 -1 1 
48 0 0 -14 0 1 24 0 1 
-190 -1 1 125 0 1 91 0 0 
99 0 0 72 0 1 -155 -1 0 
-214 -1 0 113 0 0 140 0 0 
158 0 0 142 0 0 230 1 1 
19 0 0 155 0 0 -314 -1 0 
-119 -1 0 37 0 1 -4 0 1 
-325 -1 0 -106 -1 0 1 0 1 
-38 0 1 -125 -1 1 -184 -1 0 
187 0 0 68 0 1 20 0 -1 
55 0 0 -189 -1 0 132 0 0 
73 0 0 87 0 0 -163 -1 0 
3 0 -1 -257 -1 0 64 0 0 
85 0 0 115 0 0 83 0 0 
149 0 0 -110 -1 2 121 0 -1 
111 0 1 137 0 0 -3 0 1 
-162 -1 0 35 0 0 -203 -1 1 
-155 -1 0 -73 0 0 -142 -1 0 
-87 -1 1 -162 -1 -1 69 0 0 
103 0 0 -165 -1 0 61 0 0 
-125 -1 0 -10 0 0 57 0 0 
-65 -1 0 114 0 -1 -221 -1 -1 
79 0 0 -163 -1 0 26 0 1 
130 0 -1 -6 0 0 144 0 0 
44 0 0 193 0 0 152 0 0 
33 0 0 64 0 0 35 0 -1 
44 0 -1 -107 -1 0 12 0 -1 
46 0 0 82 0 1 85 0 0 
174 0 1 199 0 -1 -23 0 -1 
54 0 0 69 0 0 -247 -1 1 
83 0 -1 -43 0 0 65 0 0 
-135 -1 1 -164 -1 0 82 0 0 
101 0 0 50 0 0 24 0 0 
-7 0 0 48 0 -1 -12 0 0 
-130 -1 0 64 0 -1 72 0 -1 
53 0 -1 151 0 -1 -204 -1 0 
104 0 0 155 0 1 18 0 -1 
26 0 -1 60 0 -1 -94 -1 1 
100 0 -1 99 0 0 153 0 0 
-3 0 0 22 0 0 52 0 -1 
45 0 -1 23 0 -1 -28 -1 1 
88 0 0 -149 -1 0 131 0 0 
24 0 0 59 0 0 -19 0 0 
53 0 -1 12 0 0 -10 0 0 
-54 0 1 -12 0 0 354 1 0 
49 0 0 86 0 -1 70 0 0 
-148 -1 0 115 0 -1 93 0 1 
25 0 0 5 0 0 254 1 -1 
-151 -1 0 11 0 0 -198 -1 -1 
-71 -1 0 2 0 -1 117 0 0 
-102 -1 0 -182 -1 0 -86 -1 1 
-2 0 -1 17 0 0 -113 -1 0 
10 0 0 -217 -1 0 94 0 0 
124 0 0 118 0 -2 -166 -1 0 
-26 0 0 185 0 -1 23 0 0 
-10 0 -1 -115 0 -1 -62 -1 0 
10 0 0 -232 -1 -1 -218 -1 0 
80 0 0 -34 0 0 36 0 0 
-39 0 -1 -9 0 0 18 0 -1 
51 0 -1 28 0 0 -151 -1 0 
-101 -1 0 -205 -1 1 131 0 -1 
46 0 0 80 0 -1 26 0 0 
40 0 -1 208 0 0 129 0 -1 
-283 -1 0 -36 0 -1 92 0 0 
178 0 0 49 0 0 101 0 0 
67 0 0 141 0 0 111 0 0 
-91 -1 -1 66 0 -1 13 0 0 
-264 -1 0 
v 3 1000 double
-399.24328262 13.769924489 25.892991313 -9.8049456616 5.9717794425 -15.666934973 -274.00743427 -8.3973536015 6.3206976124 
-428.63675989 -1.7845170993 -3.9410284621 -424.05002646 15.987905157 -3.7422159986 -32.276916863 -37.387861617 -7.2855842034 
-176.12870519 10.32014164 -10.299884401 -95.551486836 8.7646280573 6.9050533163 -177.21785069 -23.795900378 8.723801609 
-421.17117157 -0.52638820796 -1.3762214946 -101.65419073 -2.5557407633 4.5769894686 -267.83450962 -11.297870139 -22.144997839 
-178.98033496 -3.3337034156 -4.8913043296 -335.56918146 28.30043891 1.6090707903 -188.10572038 -27.298902843 -6.7018653672 
-271.52766373 1.8446959546 1.3022712272 -383.87558224 13.788090195 -15.85429965 -376.55584599 1.2804526081 12.140635345 
-174.84263744 -21.837739846 -5.37831554 -410.90953509 5.6410716839 -1.6049235415 -396.66457256 -14.851895726 -6.5997954526 
-398.62866325 3.1989498201 -32.965682247 -439.87983732 -5.1893510556 11.662491747 -290.38306998 -10.121289478 3.808281155 
-186.67629673 4.9135332582 -12.022084231 -164.34445575 -26.53504412 -13.198411496 -141.63572012 14.781699838 -24.862327858 
-128.05955205 -3.6808051324 -1.1885210376 -70.762332014 11.658544699 -20.203341402 -163.76869252 -1.3116155238 15.000843012 
-128.62364033 -3.2078386317 -12.030934622 -441.26299336 9.0986337258 -0.48924001085 -340.55049475 -19.126510727 4.1882218793 
-196.08308463 11.850903304 -16.178285635 -97.631632807 -1.1968518822 11.399881854 -338.89181439 6.7794973288 -9.1110415648 
-41.999218323 20.044301932 -7.6592323693 -369.71215584 -5.4225503778 3.8735579599 -51.545787306 14.338357292 1.176798669 
-25.542602655 -7.2099495503 -7.0915494316 -471.25944026 -5.6789737257 8.1191383692 17.54622983 -12.543879003 8.8087417555 
-279.00545089 13.140690225 -15.960828486 -309.58306716 6.037435055 -5.918857588 -283.05107331 -1.6935164495 -19.912082337 
-297.76630254 3.1986765824 -2.8180495609 -21.566965395 -2.5797070427 -20.405300765 -23.31405119 -3.9459833917 -13.201484312 
-430.8447563 -25.13769747 6.1118410017 -519.36141073 14.359014869 2.8581102247 -215.87118206 17.144696255 8.4361607258 
-389.27017701 -4.118800964 -7.9826641234 -456.31469569 21.634175601 9.9679402997 -282.86812394 12.94533042 29.216021514 
-365.25163091 -4.410288172 -16.415645097 -487.37513767 4.7919021958 6.2123383678 -475.19594175 -3.2399985255 3.9163230201 
-410.13902612 10.023337328 -6.8166346523 -158.51178158 -26.944420088 -6.8481559529 -336.15204533 -15.575081919 6.7444921708 
-226.8881885 -3.6305554698 22.076172177 -285.48408437 8.0800958505 4.4520291087 3.1424658839 -6.5737637557 -7.8791943425 
-426.88994537 25.228550744 20.762832225 -436.29579981 8.0880771397 -13.788848739 -498.56478249 -14.469351854 16.394161519 
-372.14482816 12.187657486 32.895114641 -119.65826552 -33.12705023 -14.525784939 -425.24253464 19.244934655 -13.170768352 
-10.191003784 -9.7544879268 -17.793679843 -384.23570693 2.0377308429 38.12634444 -98.84077566 7.4623908859 16.546658458 
-210.89770437 42.694805283 -25.498158613 -376.40241691 14.679920138 -26.018428158 -406.27561249 26.789349634 7.5633246372 
-102.50159195 -12.41135988 -24.866632649 -258.56587934 -9.3892683783 18.468985649 -150.56048906 0.27929774125 -7.1755810533 
-118.4525491 -22.666529907 6.8271967189 -285.09741019 30.796731962 -18.618345917 6.8543620871 -32.58014676 0.71474886894 
-91.273680467 -36.435252551 -18.627206141 -108.36563705 -23.749921036 16.254841386 -436.5179135 -12.754688985 12.206425765 
-39.576534136 0.58641594991 -13.698898106 -42.360078675 -9.3924346317 -6.0421784449 -289.89625413 11.95147919 10.213225003 
-265.31461609 -5.2367743921 -0.80042475394 -358.33103931 -7.1152420486 -7.3322682401 -72.860774602 -6.440134738 -6.72699263 
-99.280350278 -13.274299615 -7.9457097336 -36.645024768 -13.188732085 -12.528349095 -459.11951069 13.681315028 -9.3247807698 
-214.95428326 -15.624577957 1.0696457719 -92.572657038 -10.447820922 -27.562614855 9.247110853 -21.453859695 -17.022646876 
-62.794785747 17.475277506 -12.28844251 -415.72039308 -12.698425555 7.544750935 -184.30756181 6.9163850613 -28.122761231 
-131.63048044 -6.1353791738 11.058539303 -466.99036069 -5.6684643905 -3.2675013219 -327.80085963 19.229823922 12.579823247 
25.357584735 -8.3590177155 -1.4821569321 -136.65510275 -1.3498842919 10.589325793 -431.38838187 0.17498654643 9.2264022403 
-267.0251919 12.257747332 25.923045646 -46.095947305 -12.816048343 3.9278637432 -240.64809397 -25.72237153 27.393220016 
-443.23296652 0.42492475724 10.478454642 2.6917852193 -15.743653307 19.382803466 -467.13548925 16.333276029 5.5921158461 
-476.37530365 -9.7976500894 13.124788378 -324.81175554 10.154795788 -12.570518912 -130.23906217 10.798550595 4.4804876576 
-57.813770348 9.2321976204 -9.5568141346 -147.22405069 24.944366315 -21.681820487 -11.051338407 -3.5245227249 6.0980456434 
-192.24881926 -12.573311712 -11.477481941 -96.655916808 10.063679143 11.654578482 -414.09008396 8.082386209 5.0874649009 
-39.29653016 -12.273891573 11.278939081 -484.84942613 -0.54832425056 -5.892043878 -514.90008248 4.9452144751 10.90885002 
-442.79202179 24.414540955 -14.318343889 -431.35702883 4.6153957711 7.3493018528 -380.50921458 7.3742978693 0.35267458422 