# vtk DataFile Version 4.2
Generated by LIGGGHTS
ASCII
DATASET POLYDATA
POINTS 1000 float
0.0748958 0.755879 1.69875 0.706698 0.577268 1.02176 1.9082 0.61801 1.49795 
2.51064 1.41769 0.496385 0.542237 1.586 1.33803 0.932762 1.63481 0.371792 
1.54962 0.56261 0.68675 0.583056 2.5638 1.55102 2.58605 0.629063 0.675378 
2.13 2.09528 0.724991 3.0242 3.31659 0.511885 3.9678 1.71396 1.52316 
4.83282 4.84701 1.4596 0.0463111 0.853953 0.738046 0.494185 2.83093 0.375288 
2.09087 4.49171 1.154 1.2382 2.44291 0.895214 2.26792 3.78857 0.53776 
1.12539 1.00361 1.71071 1.76111 1.8655 1.5322 2.05023 3.68464 1.78979 
4.50322 3.9219 1.38888 1.27944 2.52438 0.0192585 4.51058 2.27068 0.0309444 
4.24191 3.03824 1.25315 1.02461 4.90568 0.969305 2.74683 2.19626 1.57157 
3.71537 2.69542 0.363593 3.41311 1.61647 0.604562 3.97189 3.65064 0.602896 
0.767835 3.75098 1.59813 3.13076 0.587875 1.4441 3.69868 2.31439 1.0715 
1.26923 4.18206 0.882777 2.90457 4.08993 1.45248 0.830536 4.26469 0.0535705 
3.84415 0.0288311 1.21975 3.9195 4.59497 0.05296 3.02751 4.56515 0.0363808 
-0.00997015 3.85798 0.680059 3.20675 1.43908 1.95128 2.97326 3.02478 1.25732 
3.56822 4.95393 0.793565 3.6843 0.867751 0.658456 1.89889 0.0462167 2.8908 
0.909882 1.69042 2.25876 0.741601 0.295844 3.22913 1.527 1.47675 3.18924 
0.706221 0.825094 2.51117 3.94463 1.90261 3.99703 2.4507 2.71095 3.22221 
0.428386 2.16114 2.82122 4.01044 4.11329 2.1662 2.25696 1.32244 3.02509 
3.65625 0.907096 3.70952 0.899122 1.77159 3.58919 2.62359 0.187462 3.63407 
3.56718 1.18839 2.77591 0.150046 2.47919 3.97891 0.997586 3.05748 3.36845 
4.00075 3.65486 3.55615 2.44974 4.90707 3.67882 2.48937 1.50704 2.21844 
1.80833 0.88213 3.89591 0.876113 0.889468 3.86223 2.02923 3.91823 3.61797 
2.37855 2.26035 2.55433 0.142736 1.56024 3.39638 4.28326 2.90029 3.71037 
2.46878 0.556211 2.17799 1.20705 2.59615 2.31683 4.09211 0.343633 2.64744 
0.101752 2.70889 2.39036 0.897296 4.6951 2.4491 3.25665 1.64499 3.68904 
4.37458 1.20893 2.29784 3.69176 4.26704 3.01579 3.10664 2.54636 3.79427 
3.66384 2.91939 2.04825 3.10294 0.3457 2.71792 0.332107 4.79092 3.27184 
2.83118 3.16842 2.35222 3.04628 4.38973 2.35654 4.89666 2.49086 3.12887 
2.7265 0.933265 3.38148 3.59393 2.94077 3.02171 -0.0483219 4.8662 2.41297 
4.54101 0.990882 3.46778 0.34897 4.02233 3.77169 1.74437 4.34796 2.33289 
0.943394 3.43332 2.44395 2.84274 4.06211 3.28234 1.24376 4.01128 3.21552 
3.63514 2.09201 3.03244 4.45395 4.79596 3.12163 4.63502 2.06858 2.3191 
4.64784 2.86596 2.03814 4.64555 3.67204 2.52229 4.7525 0.128629 3.37771 
4.82891 4.2284 3.82641 1.45993 0.16026 5.48218 1.9074 2.34882 4.91643 
2.25188 1.27376 5.35522 2.63458 2.28562 5.49559 0.0668201 3.83483 4.81245 
2.3878 3.73248 5.12652 1.73602 3.73632 4.40575 3.28297 3.87842 5.24977 
1.48188 3.63188 5.14239 1.36382 2.80306 4.12003 0.914121 0.427169 4.68107 
0.418008 1.60179 4.32605 1.85532 0.607121 4.73789 0.12213 1.93909 5.19137 
1.28027 2.66499 5.13885 1.56083 2.16901 5.95276 0.786059 3.0473 5.54862 
2.75359 0.273098 5.88129 1.3236 1.33351 5.40444 1.209 1.64946 4.54165 
4.21936 1.30558 5.6886 0.555451 0.464772 5.6687 0.561119 1.28854 5.27943 
4.53433 4.6228 4.39044 3.75306 1.31657 4.69593 0.025185 0.538836 4.89423 
1.97086 4.64094 5.626 4.75229 1.55335 4.27238 3.22801 1.23443 5.57998 
0.930846 4.08835 4.32827 4.10878 2.90997 5.78364 0.164338 4.62742 5.80286 
0.834359 4.17113 5.30074 3.28645 3.26329 4.36467 4.46992 4.52528 5.40148 
3.7473 0.485 5.09048 1.64297 3.26185 5.9536 3.95265 4.80825 4.74216 
3.92052 3.37652 4.96934 3.3212 2.16278 4.46144 3.08869 0.136101 4.42383 
4.472 0.367522 5.6552 3.74924 2.17924 5.11901 2.99812 1.12617 4.46743 
4.55119 2.89039 4.78753 2.65299 4.59494 5.35721 4.49467 0.494923 4.30341 
4.96211 2.24524 5.14706 4.93201 2.82018 4.02542 1.44721 4.01208 7.03438 
0.322381 2.21847 6.71036 0.0507728 0.636289 7.53377 4.42325 0.975367 6.64865 
1.2555 3.05338 6.887 4.3266 2.23492 7.68322 2.36352 0.773071 7.75298 
3.78115 2.76167 7.43792 1.83789 0.321164 6.97019 2.11991 2.88527 7.52143 
3.63489 1.60547 7.07062 0.88599 0.411314 7.24937 0.60368 1.93287 7.97329 
0.651716 3.1055 6.33583 0.579688 3.05372 7.3448 4.51916 3.19282 6.87833 
2.03934 2.65638 6.66717 3.11512 4.24826 6.12069 4.75715 4.32853 6.52922 
2.60495 3.799 7.09496 2.14015 4.12082 6.28831 4.33078 0.267475 7.30549 
1.2163 2.95447 7.86519 1.90125 1.38919 7.1464 4.40075 1.30844 7.5459 
2.39439 4.28223 7.71828 2.49707 0.939084 6.28174 1.7264 1.39854 6.21191 
0.557672 4.02517 7.15958 2.60658 4.86618 6.94187 0.0516065 3.26745 6.99151 
3.31991 0.589014 7.95311 3.98467 4.36846 7.34796 -0.013764 4.56357 7.03563 
1.83785 1.92854 7.85196 1.24609 3.93328 6.06668 0.946472 4.87702 6.98671 
3.46378 0.10639 7.18732 2.94229 2.42033 6.40655 -0.0018202 2.9257 7.94414 
3.89904 2.09442 6.14911 1.20509 4.79588 6.08307 4.33428 3.65934 7.93082 
3.06731 2.07742 7.83092 1.86541 4.87505 6.91739 3.18511 4.75125 7.45709 
1.78063 4.75957 7.82466 3.13579 3.23783 6.10773 0.310444 4.53084 7.87283 
4.97843 0.551574 6.37917 1.88166 0.877662 8.64215 4.60128 0.906148 8.29516 
3.65213 1.69467 9.70052 1.23188 0.667592 9.79459 2.19091 0.810135 9.79102 
1.39006 1.81444 9.4028 4.81349 0.088868 8.18991 3.33745 2.19321 8.74594 
1.9485 3.22452 9.09352 2.50375 3.57819 8.16476 1.23977 1.62163 8.54954 
0.603459 2.62199 8.57223 0.345827 1.66504 8.86185 4.25998 2.93412 8.31654 
2.55998 0.264516 9.10001 0.247921 0.726126 8.39896 0.232467 1.04364 9.75519 
0.921411 0.921487 9.05163 4.1524 1.0636 9.62777 1.06022 2.54789 9.26272 
2.33408 4.41259 9.31774 2.09796 1.68879 9.64933 3.78251 0.643433 8.82002 
4.36962 0.151882 8.90417 1.72128 2.546 8.46205 2.33793 1.88045 8.68716 
3.48002 3.86879 8.16927 4.7648 0.542733 9.80309 0.565383 3.2103 9.33129 
0.982778 3.54386 8.35251 1.67433 4.25632 8.5998 3.64038 4.50615 9.09688 
2.83486 3.89327 9.25427 4.90149 3.89892 8.84908 2.89587 4.5022 8.47669 
4.47368 2.4043 9.08412 2.88897 1.81467 9.71059 3.77851 2.61617 9.54885 
4.17038 3.90956 9.1764 2.8266 2.8491 8.19267 4.33937 1.63093 8.58015 
0.226466 4.54735 9.42511 3.49879 3.49539 9.75689 3.32485 2.94529 8.96636 
0.176172 3.76766 8.21376 3.50472 1.41919 8.28277 4.95335 1.62269 9.65473 
4.23376 6.89214 0.500993 1.6695 9.2613 1.86495 0.292844 8.95154 0.943268 
1.67397 6.11267 0.118327 2.74886 7.59477 0.217514 3.65689 9.0108 1.13337 
1.16156 8.99827 0.753417 1.39342 6.21255 1.01587 3.1937 7.16393 1.47184 
0.268645 8.22967 1.54702 0.0737334 9.92317 1.68016 1.45656 9.82733 0.104889 
3.04845 6.35142 0.25634 3.63572 9.83994 0.227175 1.57015 7.48756 1.59669 
3.49854 5.71889 1.34624 2.35988 8.32381 1.71861 0.536021 9.17213 1.84327 
1.60707 9.79268 1.10646 2.79091 5.19359 1.95801 3.67405 5.83248 0.320114 
3.70728 7.30872 0.606841 2.15287 7.14003 1.79745 2.68911 9.83192 0.791392 
3.32254 8.0668 0.924266 0.449627 8.4504 0.15572 3.27041 8.28075 1.87007 
-0.025796 9.85361 0.684608 2.95605 9.10028 1.32737 4.41588 5.16002 1.98973 
1.8182 5.2933 0.683587 0.461143 7.66346 0.760941 2.24201 8.03834 0.851957 
2.04627 9.01228 0.832682 4.53972 5.98896 0.87777 0.403474 6.85373 1.18365 
4.35189 8.97713 0.395558 1.76005 8.7135 0.0325053 2.59926 5.92731 1.15177 
0.521423 6.20283 0.535007 1.58956 7.10937 0.401318 3.74359 7.93799 0.0585079 
0.610318 5.36412 0.559559 1.9863 6.22325 1.72851 0.681083 5.33634 1.51865 
1.17361 8.29675 1.77791 3.28485 8.81912 0.285723 0.670471 6.10914 1.60433 
2.30863 7.02688 0.885795 1.3688 8.04249 0.806567 4.69569 7.48806 1.47629 
4.67583 6.62587 1.66542 4.71938 9.74124 1.14881 4.84925 6.88986 0.770216 
4.87711 8.73787 1.28446 1.13296 8.71597 2.66962 -0.007485 8.47333 3.22194 
2.48311 9.57786 3.1449 3.15186 6.00568 3.40593 4.12958 7.60733 2.32634 
1.22241 6.6399 3.84034 1.81764 8.94415 3.57207 3.43106 6.78999 2.8626 
0.97543 6.43098 3.1036 2.8661 7.46666 2.43522 2.51754 8.75871 3.15881 
3.9263 6.81648 2.10105 3.90162 5.7699 3.69558 0.393711 9.37679 2.79662 
3.08401 8.097 3.63306 2.72653 6.61991 2.30869 3.76872 7.96436 3.03195 
3.57495 5.01044 3.24264 2.77609 8.21931 2.65357 3.51413 5.53505 2.59216 
4.13116 5.95682 2.07424 3.27659 9.68452 3.64066 4.03079 9.1655 2.12246 
3.9944 9.27716 3.19418 0.299971 5.71261 3.25685 0.438053 7.47429 2.00196 
0.496073 7.44293 3.69598 2.19874 6.59153 3.14492 1.57345 8.01983 3.19041 
1.88231 8.05684 2.35311 1.92231 8.94441 2.62917 2.13767 7.20934 3.81042 
2.77266 9.56396 2.15232 1.67643 5.74599 2.7796 1.72352 5.206 2.08054 
1.45119 5.00027 3.27048 0.688328 6.68296 2.27934 1.84948 7.78287 3.91895 
0.628956 7.8625 2.79348 1.47729 6.38077 2.35225 4.67459 7.38995 3.76527 
4.65865 8.75683 2.89535 4.77935 5.80924 2.80344 4.83523 5.89863 3.89105 
0.462732 8.07639 4.58453 2.83125 8.16976 5.46405 3.78005 7.41434 5.24992 
2.88938 5.99649 4.42179 4.581 8.32975 5.52395 4.29663 9.43066 5.50999 
3.41746 6.98002 4.05164 2.36424 9.24741 4.19888 2.50033 7.82034 4.56183 
3.08593 7.40134 4.9825 2.7327 6.92731 5.74028 0.487197 6.40552 5.09318 
1.71851 5.94528 4.28428 2.51399 8.70552 4.86893 3.16134 9.627 5.11305 
2.95459 6.3728 5.3223 2.73907 8.67057 4.0129 3.45155 5.65034 5.36808 
4.18992 9.67406 4.63654 3.6536 8.5859 5.8362 4.16534 5.91791 4.57992 
3.80689 6.54853 5.13234 1.97161 7.22513 5.55391 1.34995 9.27068 5.13972 
2.06145 9.86835 4.40344 0.504997 9.18835 5.38814 1.23496 5.03049 4.16394 
-0.0831774 8.39856 5.25127 0.854236 5.06591 5.11734 0.172323 5.28022 4.86824 
1.30782 8.2813 4.17332 -0.0678427 6.9778 5.59143 0.371192 5.63019 5.72545 
2.48709 6.72176 4.27485 2.19132 9.68361 5.28961 0.729482 5.83543 4.20679 
1.29861 6.68943 4.65569 2.16249 6.03438 5.11821 1.48406 7.56844 4.91601 
4.267 8.71925 4.44579 1.59686 6.40259 5.47062 1.88003 8.74981 5.50234 
2.4722 5.42653 5.37625 3.06032 5.19662 5.99911 2.55226 7.61778 6.21246 
0.0458964 6.39873 6.96818 4.67264 8.7888 6.33254 3.30787 9.16902 6.91793 
3.12179 9.45191 7.76957 4.45993 5.10714 6.67642 0.521186 8.90594 6.6252 
4.79543 8.79033 7.31887 3.8834 6.60948 6.17988 3.58962 5.20567 6.59452 
2.50143 6.03304 7.06116 2.92462 6.50717 6.3485 3.86016 8.58243 6.82427 
[...]
POINT_DATA 1000
FIELD FieldData 7
id 1 1000 int
420 876 183 722 966 769 108 130 968 
975 908 25 710 853 549 972 482 391 
439 851 870 691 573 322 293 849 454 
39 23 819 767 503 196 654 90 98 
633 621 623 527 603 626 765 762 598 
557 269 207 193 918 741 445 301 232 
877 575 967 358 957 364 356 742 450 
295 267 464 913 189 620 523 731 925 
148 380 844 217 56 995 339 901 792 
327 902 895 78 782 562 763 88 808 
216 153 62 400 789 770 361 406 434 
540 224 612 258 7 64 826 871 624 
58 307 418 79 823 228 222 506 896 
308 524 798 754 43 702 370 10 909 
550 251 93 415 922 641 625 674 460 
821 42 919 816 751 414 337 865 495 
346 955 673 544 180 257 987 105 290 
35 988 31 640 291 509 890 726 899 
347 102 311 1 667 992 926 608 705 
910 980 211 403 665 485 84 917 5 
378 590 468 95 201 586 24 932 33 
959 86 733 927 204 447 437 132 331 
783 237 120 159 316 569 2 565 616 
743 891 277 199 746 935 954 167 708 
614 210 863 607 22 521 66 208 17 
880 761 577 810 438 582 136 843 671 
904 740 147 465 510 941 382 430 162 
827 16 310 462 701 73 87 152 776 
578 242 302 141 273 750 129 325 194 
779 14 680 916 461 404 928 497 583 
49 649 412 597 704 864 446 832 545 
945 341 627 946 960 894 882 914 52 
986 409 889 387 137 472 419 670 323 
752 920 574 45 133 724 536 518 34 
505 969 215 723 634 729 883 351 745 
707 950 825 195 444 642 839 712 300 
985 243 235 532 151 617 997 948 522 
542 385 38 560 727 313 83 100 156 
663 571 990 230 54 174 831 594 703 
85 884 490 469 570 206 442 874 500 
99 398 160 191 515 564 432 402 982 
940 718 234 512 933 609 8 676 971 
145 848 732 866 504 473 164 757 53 
289 974 790 508 451 355 688 305 599 
937 838 496 219 245 97 386 470 448 
788 915 363 965 328 246 836 694 381 
436 725 546 553 50 791 517 618 491 
388 360 678 68 423 964 72 146 643 
271 897 646 223 226 417 205 689 537 
225 934 976 615 236 239 830 886 315 
4 457 998 520 326 429 696 651 753 
467 554 377 296 69 784 359 119 756 
330 595 103 123 379 662 135 684 453 
681 979 585 519 142 805 693 229 422 
494 559 999 541 60 984 75 181 265 
842 165 41 860 905 20 947 794 977 
9 443 416 526 778 218 958 480 930 
67 374 198 530 333 421 177 803 155 
744 760 250 644 713 264 868 138 568 
350 214 312 690 96 699 1000 427 768 
711 18 857 514 126 247 278 284 962 
989 389 428 263 785 282 828 254 835 
566 809 513 440 952 921 399 21 846 
658 104 405 939 182 944 833 266 579 
12 51 802 592 161 270 850 951 413 
606 288 354 253 390 65 660 61 280 
285 875 661 786 931 200 666 478 487 
131 747 593 367 572 309 55 260 629 
394 320 197 501 488 456 650 375 466 
552 459 172 113 40 619 185 531 647 
486 345 516 332 190 184 820 956 983 
74 938 101 353 759 283 700 717 639 
806 687 163 861 748 709 697 764 780 
383 596 82 929 115 892 766 580 441 
645 338 611 813 139 481 492 352 318 
121 737 529 220 961 393 168 373 408 
845 656 329 787 484 233 483 28 372 
581 675 795 804 150 543 433 252 533 
887 106 249 157 797 48 317 91 652 
912 186 812 149 80 721 125 978 547 
268 648 292 613 173 502 321 555 348 
11 298 410 314 425 539 719 424 212 
772 170 303 738 856 953 735 698 259 
274 563 117 29 248 638 588 817 561 
637 755 340 911 739 683 924 213 973 
534 240 458 368 171 942 852 343 758 
112 209 144 736 455 401 118 47 774 
576 715 602 677 923 227 477 855 299 
179 664 837 178 548 996 655 963 231 
176 653 426 366 906 841 344 476 275 
334 885 63 659 395 475 396 600 26 
342 587 994 591 3 449 800 76 859 
111 489 685 143 114 692 435 888 695 
203 799 507 110 604 867 622 407 628 
81 781 907 829 431 771 493 376 384 
19 657 872 847 479 818 682 814 70 
556 244 92 319 294 324 893 221 734 
558 15 630 499 801 720 535 261 238 
631 669 371 551 749 811 6 255 873 
335 336 463 528 686 807 306 166 936 
281 900 511 71 498 59 796 730 862 
57 124 474 169 188 122 881 869 898 
970 158 822 716 991 175 793 879 525 
777 601 943 584 632 154 706 36 107 
610 77 297 44 94 262 672 140 256 
32 815 903 127 668 728 187 411 134 
840 362 109 13 272 349 369 635 89 
287 128 981 679 27 773 824 993 589 
834 636 365 605 357 392 241 202 276 
46 192 471 878 538 397 37 279 452 
116 30 949 567 304 286 714 858 854 
775 
type 1 1000 int
1 2 1 2 2 2 1 1 2 
2 2 1 2 2 2 2 1 1 
1 2 2 2 2 1 1 2 1 
1 1 2 2 2 1 2 1 1 
2 2 2 2 2 2 2 2 2 
2 1 1 1 2 2 1 1 1 
2 2 2 1 2 1 1 2 1 
1 1 1 2 1 2 2 2 2 
1 1 2 1 1 2 1 2 2 
1 2 2 1 2 2 2 1 2 
1 1 1 1 2 2 1 1 1 
2 1 2 1 1 1 2 2 2 
1 1 1 1 2 1 1 2 2 
1 2 2 2 1 2 1 1 2 
2 1 1 1 2 2 2 2 1 
2 1 2 2 2 1 1 2 1 
1 2 2 2 1 1 2 1 1 
1 2 1 2 1 2 2 2 2 
1 1 1 1 2 2 2 2 2 
2 2 1 1 2 1 1 2 1 
1 2 1 1 1 2 1 2 1 
2 1 2 2 1 1 1 1 1 
2 1 1 1 1 2 1 2 2 
2 2 1 1 2 2 2 1 2 
2 1 2 2 1 2 1 1 1 
2 2 2 2 1 2 1 2 2 
2 2 1 1 2 2 1 1 1 
2 1 1 1 2 1 1 1 2 
2 1 1 1 1 2 1 1 1 
2 1 2 2 1 1 2 1 2 
1 2 1 2 2 2 1 2 2 
2 1 2 2 2 2 2 2 1 
2 1 2 1 1 1 1 2 1 
2 2 2 1 1 2 2 2 1 
2 2 1 2 2 2 2 1 2 
2 2 2 1 1 2 2 2 1 
2 1 1 2 1 2 2 2 2 
2 1 1 2 2 1 1 1 1 
2 2 2 1 1 1 2 2 2 
1 2 1 1 2 1 1 2 1 
1 1 1 1 2 2 1 1 2 
2 2 1 2 2 2 1 2 2 
1 2 2 2 2 1 1 2 1 
1 2 2 2 1 1 2 1 2 
2 2 1 1 1 1 1 1 1 
2 2 1 2 1 1 2 2 1 
1 2 2 2 1 2 2 2 1 
1 1 2 1 1 2 1 1 2 
1 2 2 1 1 1 1 2 2 
1 2 2 2 1 1 2 2 1 
1 1 2 2 1 1 2 2 2 
1 2 1 1 1 2 1 1 2 
1 2 1 1 1 2 1 2 1 
2 2 2 2 1 2 2 1 1 
1 2 2 2 1 2 1 1 1 
2 1 1 2 2 1 2 2 2 
1 1 1 2 2 1 2 1 2 
1 1 1 2 1 1 1 2 1 
2 2 1 2 2 1 2 1 2 
1 1 1 2 1 2 2 1 2 
2 1 2 2 1 1 1 1 2 
2 1 1 1 2 1 2 1 2 
2 2 2 1 2 2 1 1 2 
2 1 1 2 1 2 2 1 2 
1 1 2 2 1 1 2 2 1 
2 1 1 1 1 1 2 1 1 
1 2 2 2 2 1 2 1 1 
1 2 2 1 2 1 1 1 2 
1 1 1 2 1 1 2 1 1 
2 1 1 1 1 2 1 2 2 
1 1 2 1 1 1 2 2 2 
1 2 1 1 2 1 2 2 2 
2 2 1 2 2 2 2 2 2 
1 2 1 2 1 2 2 2 1 
2 1 2 2 1 1 1 1 1 
1 2 2 1 2 1 1 1 1 
2 2 1 2 1 1 1 1 1 
2 2 2 2 1 2 1 1 2 
2 1 1 1 2 1 1 1 2 
2 1 2 1 1 2 1 2 2 
1 2 1 2 1 2 1 2 1 
1 1 1 1 1 2 2 1 1 
2 1 1 2 2 2 2 2 1 
1 2 1 1 1 2 2 2 2 
2 2 1 2 2 2 2 1 2 
2 1 1 1 1 2 2 1 2 
1 1 1 2 1 1 1 1 2 
2 2 2 2 2 1 1 2 1 
1 2 2 1 2 2 2 2 1 
1 2 1 1 2 2 1 1 1 
1 2 1 2 1 1 1 2 1 
1 2 2 2 1 1 2 1 2 
1 1 2 1 1 2 1 2 2 
1 2 2 1 2 2 2 1 2 
1 2 2 2 1 2 1 1 1 
1 2 2 2 1 2 2 2 1 
2 1 1 1 1 1 2 1 2 
2 1 2 1 2 2 2 1 1 
2 2 1 2 2 2 1 1 2 
1 1 1 2 2 2 1 1 2 
1 2 2 1 1 1 2 2 2 
1 1 1 1 1 1 2 2 2 
2 1 2 2 2 1 2 2 2 
2 2 2 2 2 1 2 1 1 
2 1 1 1 1 1 2 1 1 
1 2 2 1 2 2 1 1 1 
2 1 1 1 1 1 1 2 1 
1 1 2 2 1 2 2 2 2 
2 2 1 2 1 1 1 1 1 
1 1 1 2 2 1 1 1 1 
1 1 2 2 1 1 2 2 2 
2 
i 3 1000 int
-15 0 1 -85 0 1 114 1 -1 
-116 0 0 -69 0 1 -42 0 1 
-167 0 1 -53 0 0 235 1 1 
201 1 1 -81 0 1 -130 0 0 
95 0 0 176 1 0 -150 0 0 
14 0 0 68 1 0 -5 0 0 
-68 0 0 -156 0 0 -1 0 1 
188 1 0 -115 0 1 137 1 0 
-142 0 1 41 0 1 211 1 0 
-99 0 0 -129 0 1 -58 0 1 
-102 0 1 10 1 0 234 1 0 
-79 0 1 52 0 0 -50 0 0 
-166 0 1 1 0 1 -55 0 1 
4 0 0 207 1 0 -58 0 -1 
237 1 0 -122 0 1 -71 0 1 
165 1 0 -155 0 0 186 1 1 
188 1 0 -109 0 0 -112 0 0 
-34 0 0 70 0 0 -83 0 1 
207 1 1 151 1 -1 182 1 -1 
-63 0 0 42 0 0 -55 0 0 
33 0 0 4 0 -1 152 1 0 
132 1 -1 -152 0 0 22 0 0 
-17 0 0 196 1 0 -22 0 0 
-131 0 1 301 1 0 126 1 0 
-29 0 1 -44 0 1 170 1 0 
-65 0 0 -54 0 0 -133 0 1 
-70 0 1 -132 0 0 231 1 0 
-54 0 0 256 1 1 -83 0 0 
-21 0 1 81 0 -1 127 0 1 
89 1 1 64 0 0 88 0 0 
-130 0 1 24 0 0 -44 0 0 
-133 0 0 -73 0 0 -59 0 0 
-56 0 0 -63 0 1 -113 0 0 
-247 -1 0 -154 0 0 -25 0 1 
-115 0 1 -72 0 0 46 0 -1 
279 1 0 -12 0 0 14 0 -1 
43 0 -1 218 1 -1 -137 0 1 
-109 0 1 222 1 -1 -116 0 1 
249 1 0 -102 0 0 -15 0 -1 
-82 0 1 -70 0 1 -170 0 0 
-111 0 0 -123 0 0 207 1 0 
-17 0 0 -162 0 1 -96 0 1 
51 0 0 -75 0 0 137 1 -1 
-4 0 -1 28 0 0 -33 0 0 
-36 0 0 -52 0 0 -19 0 0 
192 1 0 -89 0 0 -139 -1 0 
-12 0 0 171 1 1 140 1 0 
152 1 0 -107 0 -1 -76 0 1 
228 1 0 9 0 1 143 1 -1 
-5 0 0 -1 0 0 -46 0 0 
185 1 0 152 1 0 189 1 0 
-139 0 1 14 0 0 162 1 0 
-124 0 0 -122 0 0 -112 0 0 
-43 0 -1 145 1 -1 -140 0 -1 
-13 0 -1 -18 0 -1 -21 0 0 
-204 0 -1 -42 0 0 -140 0 0 
161 1 0 -47 0 0 -152 0 0 
-51 0 1 165 1 1 168 1 0 
-10 0 -1 136 1 1 -109 0 1 
114 0 0 36 0 0 26 0 -1 
-160 0 0 -22 0 -1 10 0 0 
-23 0 0 -78 0 0 247 1 0 
183 1 -1 -76 0 0 250 1 0 
149 1 0 -34 0 1 117 0 -1 
19 0 0 -141 0 1 57 0 0 
-93 0 -1 48 0 0 -10 0 -1 
-74 0 1 -116 0 0 -155 0 -1 
233 1 -1 -133 0 -1 218 1 -1 
-49 0 0 -106 0 0 -37 0 0 
-65 0 0 16 0 -1 -142 0 0 
-227 0 -1 -37 0 -1 -69 0 0 
195 1 -1 184 1 -1 -146 0 0 
140 1 0 159 1 -1 -60 0 0 
81 0 0 152 1 -1 -86 0 0 
-91 0 0 -32 0 0 -114 0 -1 
6 0 0 -141 0 0 184 1 -1 
41 0 0 13 0 -1 -8 0 -1 
2 0 -1 -34 0 0 -25 0 0 
149 1 -1 -75 0 0 -121 0 -1 
-23 0 0 -53 0 -1 -32 0 -1 
-219 -1 -2 -20 0 0 165 1 -1 
-53 0 0 -122 0 0 79 1 0 
133 0 0 98 0 0 1 -1 0 
17 0 1 50 0 1 -142 -1 1 
113 0 0 -305 -1 1 114 0 0 
-87 -1 1 -191 -1 2 -132 -1 1 
-200 -1 0 130 0 -1 -260 -1 0 
-1 0 0 30 0 1 -160 -1 0 
-113 -1 0 276 1 0 12 0 1 
19 0 0 174 0 1 -132 -1 1 
-1 0 1 48 0 1 -237 -1 1 
-111 -1 1 115 0 -1 -28 0 1 
-46 0 1 5 0 0 123 0 -1 
91 0 0 14 0 0 0 0 0 
91 0 0 188 0 1 12 0 0 
-4 0 1 42 0 1 174 0 1 
60 0 1 347 1 1 3 0 0 
-201 -1 0 -182 -1 0 9 0 1 
120 0 0 -90 -1 1 -259 -1 0 
24 0 -1 -195 -1 1 17 0 1 
105 0 1 143 0 1 -205 -1 0 
-178 -1 0 -208 -1 0 161 0 1 
-179 -1 0 129 0 0 77 0 0 
109 0 0 88 0 -1 184 0 1 
7 0 0 0 0 1 -55 -1 1 
-343 -1 0 27 0 -1 128 0 -1 
-212 -1 1 82 0 1 -245 -1 0 
-25 0 1 110 0 0 117 0 -1 
81 0 0 -58 0 0 17 0 0 
56 0 0 -8 0 0 90 0 1 
46 0 1 233 0 0 -9 0 1 
-216 -1 1 -238 -1 0 -79 0 1 
55 0 0 -10 0 1 -164 -1 -1 
164 0 0 -9 0 0 52 0 0 
91 0 0 53 0 1 13 0 0 
109 0 0 72 0 0 89 0 -1 
73 0 0 -139 -1 1 -156 -1 0 
87 0 1 73 0 0 -209 -1 0 
151 0 0 -248 -1 1 -50 0 1 
21 0 0 110 0 0 49 0 0 
-181 -1 -1 109 0 -1 94 0 0 
153 0 0 -213 -1 -1 21 0 0 
50 0 0 -180 -1 0 65 0 -1 
-5 -1 -1 -193 -1 0 -54 0 0 
63 0 -1 -27 0 0 -44 0 0 
79 0 1 119 0 -1 51 0 0 
159 0 0 -210 -1 1 -268 -1 1 
40 0 -1 74 0 0 53 0 0 
68 0 -1 78 0 0 63 0 0 
-229 -1 -1 350 1 0 -180 -1 0 
-294 -1 0 33 0 1 148 0 0 
-41 -1 1 64 0 -1 85 0 -1 
-86 -1 0 4 0 1 87 0 -1 
14 0 -1 -24 0 0 24 0 0 
103 0 -1 102 0 -1 28 0 0 
91 0 0 59 0 0 57 0 -1 
71 0 -1 35 0 -1 199 0 0 
137 0 -1 -218 -1 0 47 0 0 
70 0 0 -36 0 -1 30 0 0 
-265 -1 1 37 0 0 47 0 -1 
-3 0 0 -100 -1 1 94 0 -1 
-188 -1 0 -208 -1 0 35 0 -1 
119 0 0 -234 -1 0 70 0 -1 
181 0 0 -8 0 0 16 0 1 
-48 0 0 59 0 0 -55 0 0 
13 0 -1 -152 -1 0 111 0 0 
-106 0 -1 -130 -1 0 136 0 0 
-115 -1 0 66 0 -1 56 0 -1 
164 0 -1 -170 -1 0 -279 -1 0 
285 1 -1 301 1 -1 59 0 0 
-163 -1 -1 45 0 -1 -116 0 0 
70 0 0 -5 0 0 3 0 0 
34 0 -1 25 0 -1 68 0 0 
313 1 0 -212 -1 -1 -270 -1 1 
60 0 -2 -118 -1 0 -53 0 1 
-14 0 0 2 0 0 -107 -1 1 
73 0 -1 117 0 0 18 0 0 
-22 0 -1 -168 -1 0 -101 -1 1 
6 0 -1 62 0 0 62 0 -1 
27 0 0 94 0 0 -128 -1 0 
-146 -1 -1 -97 0 -1 -120 -1 -1 
63 0 -1 -133 -1 0 -264 -1 -2 
42 0 -1 -158 -1 0 -41 0 0 
189 1 0 48 0 1 190 1 1 
219 1 1 124 1 0 -65 0 1 
-126 0 1 31 0 0 -173 0 0 
-29 0 1 -66 0 0 -202 0 0 
-6 0 1 0 0 0 128 1 0 
273 1 0 129 1 0 -101 0 0 
-126 0 1 -153 0 1 8 0 0 
187 1 2 -111 0 2 -45 0 0 
248 1 1 -29 0 1 -7 0 1 
-77 0 2 -28 0 0 187 1 0 
55 0 1 216 1 0 38 0 1 
164 1 0 -55 0 1 -54 0 1 
318 1 1 -201 0 1 -20 0 0 
-90 0 2 -51 0 1 -70 0 0 
186 1 0 -22 0 0 8 0 1 
130 1 0 -99 0 0 29 0 -1 
-100 0 0 -34 0 0 -136 0 -1 
134 1 0 -48 0 1 -27 0 0 
-88 0 0 195 1 -1 -169 0 0 
204 1 -1 -100 0 0 -148 0 0 
66 0 0 -84 0 0 -84 0 1 
-88 0 1 291 1 1 216 1 0 
-55 0 1 -6 0 0 -49 0 1 
257 1 1 184 1 0 -80 0 0 
-10 0 0 4 0 0 -72 0 1 
-125 0 -1 -91 0 1 -44 0 1 
-60 0 0 -4 0 0 7 0 0 
-48 0 0 50 0 -1 -86 0 1 
-16 0 0 -224 -1 0 -48 0 0 
-95 0 0 -8 0 1 49 1 1 
-31 0 0 1 0 1 -102 0 1 
94 0 1 -44 0 0 -46 0 0 
-135 0 -1 -36 0 -1 -56 0 1 
-204 0 0 129 1 -1 -72 0 0 
-5 0 0 -136 0 0 -132 0 0 
61 0 -1 -48 0 1 -72 0 -1 
-153 0 1 30 0 0 -133 0 0 
15 0 0 -20 0 1 -127 0 -1 
100 1 0 -192 0 0 17 0 1 
136 1 -1 -87 0 0 83 1 0 
127 1 0 -131 0 0 -161 0 -1 
169 1 -1 51 0 0 111 1 0 
172 1 0 -118 0 1 -72 0 0 
-50 0 0 183 1 -1 104 1 0 
74 0 -1 12 0 0 -176 0 0 
42 0 -1 -41 0 0 -73 0 1 
6 0 0 -67 0 0 -98 0 0 
201 1 1 193 1 0 -106 0 1 
-137 0 0 -44 0 1 54 0 0 
-142 0 0 -96 0 0 1 0 -1 
-4 0 0 13 0 -1 -105 0 0 
128 1 0 -83 0 -1 -152 0 0 
116 1 0 -94 0 0 92 1 0 
-96 0 0 165 1 0 181 1 0 
-55 0 0 213 1 -1 141 1 0 
-29 0 -1 -47 0 0 -157 0 0 
-81 0 0 -96 0 0 38 0 -1 
-23 0 1 140 1 -1 54 0 -1 
-69 0 0 188 1 0 47 0 0 
128 1 -1 115 1 0 -45 0 0 
211 1 0 -40 0 0 69 0 -1 
-148 0 0 -97 0 0 -85 0 0 
232 1 -1 -65 0 0 -22 0 0 
283 1 0 -15 0 0 103 1 -1 
65 1 0 -153 0 -1 -23 0 -1 
-32 0 0 -108 0 0 -131 0 0 
-65 0 0 31 0 0 -113 0 0 
163 1 -1 62 1 -1 -140 0 0 
-21 0 0 -71 0 -1 -88 0 -1 
-165 0 -1 100 1 -1 -161 0 0 
206 1 -1 164 1 0 280 1 -1 
154 1 -1 -59 0 -1 -80 0 1 
-59 0 0 191 1 -1 80 0 -1 
-8 0 0 -12 0 -1 -38 0 0 
9 0 -1 174 1 -1 24 0 0 
-20 0 -1 -54 0 0 199 1 0 
-262 -1 0 29 0 -1 57 0 -1 
40 0 -1 210 1 0 -320 -1 -1 
-47 0 0 178 1 0 -138 0 0 
-11 0 -1 -33 0 -1 -28 0 0 
-21 0 -1 -135 0 -1 -56 0 -1 
-96 0 0 -150 0 0 -102 0 0 
162 0 1 -24 0 1 196 0 0 
-61 0 2 140 0 0 157 0 1 
214 0 1 -173 -1 1 88 0 0 
50 0 0 78 0 0 -148 -1 -1 
-214 -1 -1 34 0 1 -168 -1 0 
115 0 0 -247 -1 0 72 0 -1 
74 0 1 48 0 0 73 0 0 
-111 -1 2 -46 0 0 14 0 0 
-229 -1 -1 23 0 0 67 0 0 
-50 0 1 253 1 1 -9 0 1 
47 0 1 -184 -1 1 37 0 0 
40 0 0 -22 0 0 51 0 0 
-194 -1 1 -76 -1 1 3 0 0 
11 0 0 -254 -1 0 21 0 0 
-246 -1 2 24 0 0 53 0 0 
170 0 1 -124 -1 0 -186 -1 1 
99 0 0 158 0 0 144 0 0 
8 0 1 154 0 0 -135 -1 1 
120 0 0 -247 -1 0 17 0 0 
117 0 0 110 0 0 -216 -1 0 
63 0 0 -131 -1 1 -85 -1 0 
-231 -1 1 93 0 0 -37 0 1 
71 0 1 268 1 0 124 0 -1 
-10 0 1 95 0 0 71 0 0 
76 0 0 -113 -1 1 -148 -1 0 
83 0 0 39 0 0 96 0 0 
-122 -1 0 119 0 0 65 0 0 
-20 0 1 -30 0 1 155 0 0 
-11 0 1 -21 0 1 79 0 0 
-283 -1 1 58 0 0 24 0 0 
312 1 0 114 0 1 -203 -1 1 
135 0 0 94 0 -1 29 0 1 
100 0 0 -243 -1 -1 169 0 0 
52 0 -1 374 1 0 95 0 0 
-169 -1 0 140 0 0 -161 -1 0 
-90 -1 1 104 0 1 50 0 0 
56 0 0 38 0 0 37 0 1 
59 0 1 173 0 0 -125 -1 0 
-69 -1 0 -112 -1 -1 -149 -1 0 
205 0 0 -183 -1 0 -25 0 0 
-120 -1 0 100 0 0 -3 0 0 
25 0 0 78 0 0 143 0 0 
38 0 0 -204 -1 1 92 0 0 
123 0 -1 -336 -1 0 78 0 0 
21 0 -1 85 0 0 124 0 0 
13 0 0 95 0 0 -64 0 0 
71 0 0 -127 -1 2 94 0 0 
70 0 0 -253 -1 -1 46 0 -1 
122 0 0 -7 0 0 -230 -1 0 
34 0 0 -277 -1 0 -23 0 0 
21 0 0 -211 -1 0 58 0 0 
27 0 -1 -156 -1 1 -180 -1 0 
-105 -1 0 101 0 0 162 0 0 
87 0 -1 61 0 -1 -98 -1 0 
81 0 -1 63 0 -1 29 0 0 
-7 0 -1 -160 -1 0 -22 0 -1 
88 0 0 191 0 0 88 0 -1 
21 0 -1 -179 -1 -1 -47 0 0 
140 0 0 126 0 0 63 0 0 
226 0 0 13 0 0 116 0 0 
-12 0 -1 -16 0 0 -40 0 0 
206 0 -1 -68 -1 1 -117 -1 0 
-36 0 -1 72 0 0 31 0 -1 
161 0 -1 164 0 1 -244 -1 -1 
-176 -1 -1 109 0 0 -144 -1 0 
-103 -1 0 29 0 -1 4 0 0 
63 0 0 -217 -1 -1 -225 -1 1 
48 0 -1 147 0 0 121 0 -1 
80 0 -1 -6 0 0 -177 -1 0 
-21 0 -1 111 0 0 12 0 0 
195 0 -1 154 0 -1 -33 0 -1 
-146 -1 0 9 0 0 27 0 0 
-66 0 0 -6 0 -1 -146 -1 0 
-9 0 0 56 0 0 53 0 0 
18 0 -1 -182 -1 -1 73 0 0 
-32 0 0 -311 -1 0 -141 -1 0 
192 0 0 64 0 0 106 0 -1 
-10 0 -1 -147 -1 0 -104 -1 -1 
15 0 0 37 0 0 87 0 0 
55 0 0 -153 -1 0 -208 -1 -1 
31 0 0 -246 -1 0 -14 0 -1 
306 1 1 106 0 -1 -217 -1 0 
93 0 0 32 0 0 89 0 0 
149 0 0 215 0 0 88 0 -1 
-306 -1 -1 410 1 -1 25 0 0 
53 0 0 29 0 0 100 0 1 
30 0 0 -170 -1 0 82 0 0 
386 1 0 -3 0 -1 22 0 -1 
-157 -1 -1 
v 3 1000 double
-426.94773602 7.5218598189 -10.304703392 -419.4514549 -8.928646516 -8.2275799599 -443.86531745 6.3479427713 -6.6908654174 
-329.1162178 -4.2312441385 -13.049366356 -263.27458 -11.761115821 -8.9456004975 -333.71847879 2.6876079042 3.9959543026 
-421.61270991 7.0815297911 -2.3765486971 -225.25398044 0.4972946583 -27.242262182 -412.14130258 -7.3014892893 -10.884275865 
-301.61853471 28.248204304 -17.848130987 -109.9088273 -14.661432854 6.0811274758 -298.92932711 -3.0315250076 11.522571771 
6.1268457352 1.2498575101 -37.131486746 -421.07335895 -15.82179402 -8.640700659 -264.99589424 12.182532885 6.851638123 
-74.459861146 15.548046126 23.25518194 -268.92766408 11.355531895 14.20621513 -114.38128721 -7.6930938644 12.861428345 
-432.1869594 17.228067178 -4.7268195704 -277.06351914 -22.811087658 -1.8812683059 -82.650873516 -27.190020669 2.31740741 
-100.25121949 3.121845481 -16.767075553 -263.99780041 13.01764299 22.958323433 -248.2817775 -18.797626793 -0.21995073178 
-162.98634475 -1.1289890173 3.2039471167 2.0022377897 -18.876828368 -2.8509972206 -261.55809507 -6.0696287814 -16.847541689 
-179.07247996 -6.7793150101 3.838090778 -330.79480838 5.1984866618 -4.9715071889 -105.63173235 1.9548678672 -12.872333583 
-122.38187597 -0.10059498717 -15.49005038 -457.07169909 17.078516939 -9.3396857484 -257.80152843 7.6253660348 18.530082841 
-63.841305415 -35.50646106 -7.2962021714 -82.705969205 -3.0092381922 20.186298919 -79.232108132 1.6265724318 1.9714455968 
-486.27580186 2.1819538471 12.682880146 -56.267137222 -6.7208153723 16.960960143 -27.102475106 -10.259787556 15.496219199 
-174.82009362 30.497641899 -18.067379637 -313.70111846 -9.3518301207 -11.552236531 -173.71694662 5.1492501839 -6.2674338124 
5.722992674 -8.1126974243 16.635126903 -375.3382842 -25.039343633 0.61438655705 -498.31686404 -5.7984057661 -6.8448120309 
-344.19821039 25.617908107 -11.904698596 -470.97091569 -24.973165622 17.124525524 -355.03850882 -2.0547620435 -11.56894812 
-432.6086885 -3.731515966 6.8472574085 -297.02829537 22.964461733 -21.75687398 -199.62233245 7.5506721994 -18.180589301 
-237.92860654 -2.942047954 5.5378885432 -70.106095785 5.2107759096 -20.922304594 -349.41593583 3.5152641158 -10.347417817 
-390.60137035 -20.144453585 -1.8470203212 -330.10079896 29.022135319 -0.069360614885 -501.01543896 12.920120994 18.865845433 
-359.15293414 -11.925377264 15.975875314 -265.72060422 13.24661562 7.7098300295 -169.99766944 -8.9630760102 -16.517988941 
-76.69882588 0.60915214564 -11.963518686 -6.7524800123 2.7442449499 2.6248965601 -336.33613708 -13.110342008 -14.212063693 
-401.02112308 3.0410900044 2.5379420963 -404.26079175 -0.37228419346 -5.0535891343 -55.830948245 -6.0049739829 -3.2297696626 
-281.06175549 13.818533506 -19.226115514 -319.14194917 -29.558518909 1.8567839186 -186.74972391 -28.734088806 -19.000090086 
-458.40431232 -1.8890084679 1.5500318094 -233.65786051 10.182860219 -3.7340409885 -470.53845658 -6.9046614875 4.9443122031 
-210.00960175 17.632486807 -22.576781268 10.601802796 -9.1075512518 -4.1651645925 -320.35677006 -16.363755448 -20.737324503 
-360.29194008 -21.661750356 -15.850897021 -45.601927455 -15.991247322 -16.839685699 -203.40415118 5.3483708272 -16.309072008 
-161.31993674 -3.8645194805 -22.07593937 -465.06420907 -2.5424884436 18.809457914 -2.8709499827 4.1717350413 -11.727311089 
-145.96819208 -5.2407784887 19.158242147 -18.662239841 -11.850652886 4.411132163 -238.73097181 -24.258526436 5.4145066759 
-383.90897337 -1.6389800213 6.7420444858 -188.86201407 21.498235707 -12.090038166 20.413940703 -7.8566789715 -21.227129927 
-425.34146409 25.323115581 -5.7916400485 -67.941652283 -19.73551059 -11.99167282 -43.440526074 -8.4384528119 7.4507370487 
-135.6793848 -1.7668477092 -6.6054866769 -49.085970966 -11.422964713 3.5224251591 -76.865847979 -6.0677209788 -7.7857324772 
-312.80259278 9.3044905518 -33.316847845 -56.554056557 27.148758479 -13.306253754 -289.39652314 -9.5518660653 8.9850908012 
-191.31965915 8.6116075821 -16.103540345 -101.45642939 1.9405363713 7.8045810977 -471.6463093 -17.385230964 9.6501697487 
-79.954034861 -3.6095923071 -30.288623273 -473.9366975 0.53299409066 10.292035481 -218.68390525 -18.238158212 -20.976224181 
-401.66816918 8.6289737129 12.725442987 -237.02076573 -9.7315115482 4.3609864042 -98.178276803 -10.603944945 12.72265882 
-140.84714144 -3.5239571264 -10.885768235 -90.729809166 -1.7386190355 -6.1580595384 -152.87505619 23.010278295 1.0218470826 
-101.45266098 -15.690220874 2.5917424169 -227.76407858 -0.17093528381 -20.382454916 -459.10826562 -11.888274587 13.190696231 
-330.1156766 -16.231447849 7.6762839754 -458.441823 14.577707033 24.059966064 -317.11836349 12.388819826 -7.0523987652 
-220.39663748 -8.464548494 -23.651083655 -266.95831651 4.0834830805 -2.4270425362 -208.48592843 7.0828335342 -22.604025439 
-472.01827953 -2.9023157466 -3.9467357237 -360.1260763 -2.2700651429 11.940979118 -318.48011689 13.525979332 -1.3139826442 
-407.36177627 16.993830694 -14.277662068 -464.4822988 6.9317385992 20.385541912 -352.16354155 -20.599174172 7.1056646927 
-37.965369763 9.8921630188 5.9327365385 -365.5208586 7.2078288409 5.0667733405 -450.97669363 3.5000671095 1.6959343805 