ITEM: TIMESTEP
11500
ITEM: NUMBER OF ATOMS
1000
ITEM: BOX BOUNDS xy xz yz pp pp pp
0 10 0
0 10 0
-0 10 0
ITEM: ATOMS id type type x y z ix iy iz vx vy vz fx fy fz omegax omegay omegaz radius 
579 2 2 3.90047 2.832 1.94122 -6 0 0 -191.578 -10.9737 6.48019 -107.711 558.346 -97.912 0 0 0 0.5 
574 2 2 2.38451 4.23808 0.614761 -3 0 1 -74.8584 -2.08837 17.2208 1393.17 321.188 -783.38 0 0 0 0.5 
388 1 1 1.44383 1.83782 0.107797 -29 0 1 -300.17 -2.14803 4.08095 1597.3 -456.499 -82.4293 0 0 0 0.5 
789 2 2 2.23525 3.23866 1.27331 -36 0 0 -188.012 22.3419 -11.996 2041.16 16.1167 828.206 0 0 0 0.5 
800 2 2 0.741701 1.28875 0.904031 57 1 0 -356.06 -10.6897 1.64405 1174.62 -2352.91 173.329 0 0 0 0.5 
814 2 2 0.617008 1.99278 1.95797 -26 0 1 -296.611 -2.5067 1.69501 425.724 -222.726 1324.49 0 0 0 0.5 
231 1 1 2.69102 2.55024 1.74498 -20 0 1 -211.964 -5.12417 -38.3214 570.534 -972.516 -102.249 0 0 0 0.5 
108 1 1 3.37333 1.0443 0.954199 -17 0 1 -372.977 21.3821 8.20478 -379.146 1899.11 301.514 0 0 0 0.5 
373 1 1 0.51852 1.92273 0.220424 -12 0 0 -283.925 -11.8223 -5.69564 -845.1 -48.795 -299.38 0 0 0 0.5 
400 1 1 1.29072 2.18907 1.06914 -15 0 0 -287.244 -9.39753 -12.4852 -62.4177 744.192 928.152 0 0 0 0.5 
627 2 2 4.28698 3.83479 1.33174 0 0 0 -91.8753 -10.6973 -3.98456 -398.818 174.924 1179.05 0 0 0 0.5 
882 2 2 3.94428 2.49105 0.0840684 -4 0 0 -180.444 -16.387 -7.61194 -4028.35 2919.9 1651.77 0 0 0 0.5 
747 2 2 0.0812508 0.920171 1.67976 -50 0 1 -404.184 -1.47434 -7.08196 -270.849 282.009 810.7 0 0 0 0.5 
974 2 2 4.80062 2.78848 1.63193 93 1 1 -186.529 0.712355 4.19076 533.944 1493.82 -836.355 0 0 0 0.5 
172 1 1 2.59337 0.0411303 1.3631 -39 0 0 -451.052 -13.7811 -25.3582 -3792.5 174.529 -1373.47 0 0 0 0.5 
249 1 1 2.62537 0.827894 1.90423 -25 0 1 -400.545 -13.6382 -9.46427 1887.85 -4099.21 -2546.58 0 0 0 0.5 
531 2 2 1.47061 2.77244 1.73405 -16 0 0 -175.761 -14.97 18.5132 299.313 -1797.89 -1446.49 0 0 0 0.5 
487 1 1 1.86957 2.93727 0.508656 -32 0 0 -177.027 -17.3717 -19.0247 457.2 -1026.32 -43.6562 0 0 0 0.5 
392 1 1 2.46294 4.19799 1.58777 -10 0 0 -49.1647 -11.1419 10.256 460.487 -512.225 -1510.97 0 0 0 0.5 
431 1 1 0.30798 2.05985 1.18012 -18 0 0 -292.454 -4.21425 4.66303 7.78439 1135.13 -361.11 0 0 0 0.5 
360 1 1 4.30345 0.435757 0.0577096 -28 0 1 -397.142 -8.99542 1.73584 -2503.31 -42.9938 -1876.33 0 0 0 0.5 
849 2 2 1.40095 3.45448 0.913528 -8 0 1 -159.129 16.3403 11.1414 -974.959 838.314 -1021.23 0 0 0 0.5 
921 2 2 2.68602 1.11834 0.362709 -14 0 1 -369.836 -12.4436 -6.82695 -469.021 2898.53 1114.12 0 0 0 0.5 
136 1 1 4.75471 4.49 1.91019 -15 0 0 -23.8864 -25.4196 -27.5426 -1193.25 -364.572 -1263.82 0 0 0 0.5 
872 2 2 1.51981 4.4237 0.227076 -3 0 0 -66.7361 13.8903 9.81437 997.242 -1614.7 916.714 0 0 0 0.5 
96 1 1 0.579818 3.51141 1.06906 -7 0 1 -157.865 -8.77555 20.1266 1575.67 -1534.09 1294.85 0 0 0 0.5 
319 1 1 0.549547 4.07206 0.22706 2 0 0 -75.374 6.29054 -0.489492 727.204 1129.62 218.911 0 0 0 0.5 
473 1 1 4.84861 4.22896 0.636379 3 0 0 -105.237 16.2279 2.6708 -294.474 2230.67 1176.49 0 0 0 0.5 
35 1 1 4.62495 0.265857 0.804365 -31 0 1 -444.617 6.24936 6.64664 2641.95 -2671.12 1932.59 0 0 0 0.5 
434 1 1 4.61661 0.826127 1.93606 -19 0 0 -341.665 -14.8837 2.35431 474.267 -1042.58 703.409 0 0 0 0.5 
598 2 2 2.7998 3.74385 0.142385 -6 0 1 -121.567 -16.8287 -10.3937 -361.661 -1797.53 1004.96 0 0 0 0.5 
739 2 2 3.22492 4.99678 0.231848 3 0 1 -6.17898 -1.4305 15.758 36.2079 -172.3 71.595 0 0 0 0.5 
455 1 1 0.40918 4.80486 1.70896 5 0 0 -27.3372 23.2587 29.5029 426.973 1361.31 391.634 0 0 0 0.5 
157 1 1 0.843852 4.40941 1.09699 -3 0 0 -42.8513 4.10055 -8.3151 -1254.08 -1518.26 165.379 0 0 0 0.5 
316 1 1 2.6778 1.66677 1.80582 -34 0 0 -305.304 -5.74728 -3.67535 1851.34 924.348 -457.617 0 0 0 0.5 
755 2 2 2.94632 1.95603 0.732937 -23 0 0 -302.578 7.34352 -14.3712 -521.536 -1078.85 -786.19 0 0 0 0.5 
785 2 2 3.88783 1.3163 1.86844 62 1 0 -339.389 -1.72784 21.508 284.847 18.296 459.328 0 0 0 0.5 
768 2 2 3.74202 0.277543 1.04071 -27 0 -1 -445.24 -4.33092 -20.435 -520.126 -2071.12 1186.99 0 0 0 0.5 
903 2 2 3.70416 2.69503 1.0205 -5 0 0 -195.734 -5.67617 -11.6961 91.5198 63.252 425.886 0 0 0 0.5 
224 1 1 3.40709 1.87097 1.5044 -35 0 1 -306.698 26.0093 4.22567 804.973 1227.62 -1031.35 0 0 0 0.5 
718 2 2 3.02628 0.0249846 0.56614 -23 0 1 -447.749 -23.9447 -39.7686 667.247 -1188.53 2873.44 0 0 0 0.5 
100 1 1 1.72467 4.44653 1.12675 -3 0 0 -51.2229 -1.03942 4.79804 -737.612 1108.9 2308.29 0 0 0 0.5 
1000 2 2 4.37781 1.16592 1.03852 -19 0 0 -360.583 -3.956 7.1477 -397.363 1842.45 430.849 0 0 0 0.5 
144 1 1 3.51263 4.10199 1.10934 -9 0 0 -94.1728 -2.34436 -12.5688 -892.03 513.231 841.81 0 0 0 0.5 
819 2 2 4.68238 2.77546 0.630519 -8 0 1 -180.989 -2.65368 8.05271 -260.648 -93.7624 -129.512 0 0 0 0.5 
620 2 2 3.5775 4.99813 1.6627 -2 0 0 43.2095 -19.7351 3.98046 -378.464 404.351 119.912 0 0 0 0.5 
905 2 2 1.47957 3.45037 3.76352 -6 0 0 -151.018 14.4126 10.2157 212.43 2283.96 1492.49 0 0 0 0.5 
932 2 2 4.06552 3.64828 3.28907 -3 0 0 -98.8789 -1.68945 2.06157 920.302 535.729 -1766.31 0 0 0 0.5 
697 2 2 1.97804 1.4715 2.24752 -12 0 0 -267.71 -17.5814 -23.1243 -6548.48 2679.41 3835.06 0 0 0 0.5 
36 1 1 1.06171 2.12553 2.63242 -33 0 0 -216.382 1.30638 -20.8374 1105.05 -656.293 -344.576 0 0 0 0.5 
511 2 2 2.79323 3.06038 3.98997 -10 0 -1 -154.079 8.02563 -5.58942 1504.53 47.2121 1489.81 0 0 0 0.5 
275 1 1 1.80126 3.15525 2.81603 -6 0 0 -154.282 7.93137 -6.48909 -1404.78 1425.28 -533.596 0 0 0 0.5 
519 2 2 4.28564 4.41004 2.88536 -8 0 0 -32.7717 10.8975 -1.20027 584.46 -1300.73 86.665 0 0 0 0.5 
717 2 2 2.13137 3.16316 3.63194 -25 0 0 -142.13 -0.960212 -11.1253 -1019.99 1194.12 -109.729 0 0 0 0.5 
391 1 1 2.42527 4.07743 3.191 1 0 0 -14.07 -11.1481 14.1895 -1649.26 -34.5029 1275.89 0 0 0 0.5 
827 2 2 4.76126 3.20859 2.87902 -8 0 0 -116.781 -9.68605 -7.93744 1110.02 -1123.98 730.938 0 0 0 0.5 
836 2 2 0.730281 1.43549 3.74845 39 1 0 -319.833 -7.86405 0.853744 0 0 0 0 0 0 0.5 
667 2 2 2.46784 2.28331 3.35286 -36 0 0 -228.285 -17.6678 38.1744 881.904 -1336.24 -2042.48 0 0 0 0.5 
505 2 2 1.40008 1.40095 2.93945 -15 0 0 -254.386 -40.7909 12.5974 -8.37495 247.366 -220.921 0 0 0 0.5 
784 2 2 4.28721 1.1525 2.95748 -28 0 1 -358.712 14.2223 13.2681 742.199 -755.815 -264.674 0 0 0 0.5 
86 1 1 4.16209 3.68881 2.30458 -11 0 1 -112.83 -10.67 0.546727 2476.5 -2799.16 609.684 0 0 0 0.5 
39 1 1 0.458315 2.44946 3.08793 -27 0 0 -222.401 -7.1768 1.92584 -172.537 652.961 57.4325 0 0 0 0.5 
151 1 1 2.19054 2.57175 2.58413 -11 0 0 -192.463 -29.0683 -25.8478 -1001.54 1518.99 -568.467 0 0 0 0.5 
773 2 2 2.76524 3.94756 2.39901 -6 0 0 -43.2623 5.11777 -0.758603 578.116 746.873 465.028 0 0 0 0.5 
145 1 1 2.45487 0.021017 3.20142 34 1 0 -453.008 3.8882 -12.0026 -2892.37 2434.16 1239.78 0 0 0 0.5 
279 1 1 2.74484 3.25635 2.16139 89 1 0 -106.672 -19.7508 -9.66587 -1258.07 -1639.07 1271.78 0 0 0 0.5 
804 2 2 1.21115 2.40971 3.51095 -56 0 0 -209.46 5.74993 -15.3533 1272.96 -27.3866 239.804 0 0 0 0.5 
938 2 2 3.37777 4.77503 3.86997 7 0 0 9.84709 -0.972364 0.0510806 4.09771 1218.35 -1444.97 0 0 0 0.5 
973 2 2 3.54866 2.75405 3.57556 -9 0 0 -159.043 -23.8826 2.47379 142.13 -1660.99 432.088 0 0 0 0.5 
756 2 2 3.20143 3.33147 3.08631 -8 0 1 -112.001 -11.9724 -17.0248 -167.835 2105.29 -868.096 0 0 0 0.5 
94 1 1 0.702008 3.33376 3.41561 -12 0 0 -140.644 -9.56793 -3.94785 1344.96 -1494.64 10.6881 0 0 0 0.5 
54 1 1 0.122743 4.92218 2.69158 1 0 1 -13.4571 8.13262 21.7146 60.6127 -1604.52 62.728 0 0 0 0.5 
644 2 2 4.48609 2.9655 3.77328 73 1 0 -181.477 -6.93318 -4.21631 616.717 -1005.8 166.338 0 0 0 0.5 
650 2 2 3.64641 4.23081 2.08308 -5 0 0 -41.3292 -6.06854 4.70113 -1962.97 581.535 -1954.12 0 0 0 0.5 
880 2 2 3.00898 4.82857 2.45933 18 0 0 -2.07537 21.0702 -0.144548 -1304.69 212.984 -714.072 0 0 0 0.5 
457 1 1 1.11337 4.77225 3.60556 2 0 0 2.20054 -9.29931 -12.8527 -7.00133 152.429 -130.45 0 0 0 0.5 
507 2 2 3.28199 1.80429 3.85926 -19 0 0 -244.808 -21.1026 8.93534 -216.405 729.718 1340.98 0 0 0 0.5 
641 2 2 0.634105 4.13501 2.11956 -7 0 0 -93.6865 10.2163 24.07 521.391 271.158 934.992 0 0 0 0.5 
999 2 2 3.34808 4.26242 3.11686 -9 0 0 -30.9037 1.53015 -17.0956 -727.763 487.192 643.296 0 0 0 0.5 
730 2 2 4.29662 0.302974 2.64417 -42 0 0 -455.448 -11.2508 -6.97709 -2518.76 2415.14 -1212.32 0 0 0 0.5 
543 2 2 3.5426 0.702272 3.75255 -27 0 0 -372.994 -0.0621554 2.38294 -82.5068 275.693 -552.818 0 0 0 0.5 
586 2 2 3.37909 0.145213 2.84417 34 1 0 -443.314 1.74562 22.7425 -666.212 -398.798 317.718 0 0 0 0.5 
240 1 1 3.41888 1.3427 3.01102 -33 0 0 -366.614 13.1554 -1.21253 -465.837 -844.81 -975.805 0 0 0 0.5 
430 1 1 0.0679564 3.59305 2.82805 -6 0 0 -114.424 -8.51266 0.687402 -1013.18 -282.514 -700.974 0 0 0 0.5 
461 1 1 3.01743 2.18298 2.56752 46 1 0 -240.698 -2.21343 -4.47056 2309.63 -1857.1 -521.164 0 0 0 0.5 
208 1 1 2.09542 4.76722 2.14413 4 0 0 -18.4189 1.42759 18.3465 -402.898 1039.3 545.101 0 0 0 0.5 
886 2 2 3.35231 0.647009 2.22573 61 1 0 -391.189 20.5116 -7.72524 1240.04 -556.537 761.869 0 0 0 0.5 
659 2 2 1.11111 3.44589 2.10123 -5 0 0 -149.225 -0.49113 29.3204 1066.26 -1308.45 490.919 0 0 0 0.5 
420 1 1 4.83067 4.93028 3.63128 9 0 0 38.374 4.25889 2.8298 -1170.58 -767.985 1165.2 0 0 0 0.5 
803 2 2 4.94746 0.0987969 2.73973 26 1 0 -470.078 -5.13144 3.45157 2907.01 387.726 1419.5 0 0 0 0.5 
807 2 2 4.91023 2.03195 2.01343 -7 0 0 -270.858 -24.7243 11.6218 -3645.28 1785.35 501.869 0 0 0 0.5 
304 1 1 4.93193 2.07175 3.46756 -14 0 0 -283.83 9.81255 17.4435 -37.9069 -162.741 67.4402 0 0 0 0.5 
679 2 2 4.6569 2.92913 5.68182 -4 0 0 -129.317 -8.55684 21.5068 1176.68 -437.118 1440.59 0 0 0 0.5 
521 2 2 3.89036 4.94627 4.59023 3 0 0 14.0298 14.0564 2.8855 -39.8889 637.969 -405.93 0 0 0 0.5 
767 2 2 3.39332 2.58385 4.56013 -16 0 0 -189.522 -15.1946 10.1473 320.175 -254.25 304.207 0 0 0 0.5 
750 2 2 1.36968 2.68609 5.1669 -24 0 0 -170.611 -6.44371 3.43529 1195.59 -509.469 -1507.57 0 0 0 0.5 
743 2 2 2.13737 2.77777 4.61945 -14 0 0 -164.712 -18.3035 -9.81629 -200.21 92.8714 -1373.09 0 0 0 0.5 
332 1 1 2.00339 0.293831 5.07427 -26 0 0 -499.775 17.2916 -12.3148 -376.889 -3014.28 -1168.95 0 0 0 0.5 
646 2 2 1.01139 2.47284 4.33194 -8 0 0 -186.307 9.50296 7.6354 1205.55 981.28 -1069.86 0 0 0 0.5 
910 2 2 2.72078 4.13487 4.28768 -15 0 0 -39.4478 7.75586 7.14022 -1662.44 597.646 648.216 0 0 0 0.5 
366 1 1 4.86957 4.36357 5.8234 -4 0 0 -13.6335 -17.861 15.273 -2485.56 -66.7198 834.547 0 0 0 0.5 
901 2 2 2.44573 1.52122 4.71298 -21 0 0 -331.177 26.4368 -38.0907 2622.12 666.047 1957.65 0 0 0 0.5 
497 1 1 0.593883 1.45861 5.13123 44 1 0 -249.243 -59.3411 5.82923 1242.11 -374.926 1417.28 0 0 0 0.5 
282 1 1 2.12933 0.425787 5.97547 38 1 -1 -420.316 -5.77771 10.3211 -233.318 138.837 -761.114 0 0 0 0.5 
918 2 2 0.762798 2.05293 5.79587 -5 0 0 -214.494 -9.56303 13.9097 -2610.38 -296.782 -1134.93 0 0 0 0.5 
408 1 1 3.99846 3.33937 5.52026 -5 0 0 -93.6868 -4.94599 -0.775096 -1926.29 1535.97 -802.556 0 0 0 0.5 
79 1 1 1.46305 1.7478 5.43231 -7 0 0 -256.843 -0.545183 -2.41383 1079.26 1043.94 929.05 0 0 0 0.5 
778 2 2 0.54056 0.51267 4.42188 -54 0 1 -499.38 33.2587 8.03309 4336.17 -2540.23 601.006 0 0 0 0.5 
616 2 2 1.92891 3.54318 4.65664 -1 0 0 -104.455 21.3547 -1.02455 562.503 65.5121 405.091 0 0 0 0.5 
266 1 1 1.23163 1.93572 4.58755 -39 0 0 -256.352 -21.274 14.1726 -1112.64 -352.216 733.175 0 0 0 0.5 
418 1 1 1.95063 1.10283 5.52183 -13 0 0 -322.571 -5.15529 -13.6871 -1471.18 809.483 1788.55 0 0 0 0.5 
900 2 2 0.242374 2.06794 4.95054 -8 0 0 -187.577 -7.41305 -20.3978 1165.26 200.888 -1223.35 0 0 0 0.5 
117 1 1 2.41905 2.26806 5.34904 -16 0 0 -260.298 0.318932 17.2542 502.067 -1307.73 897.425 0 0 0 0.5 
69 1 1 3.2261 3.48113 5.99888 -15 0 0 -85.8055 -12.7975 7.77126 -803.877 226.689 397.792 0 0 0 0.5 
245 1 1 1.14879 3.56429 4.86591 -12 0 0 -128.12 -6.1865 4.03475 -902.311 655.401 -52.9951 0 0 0 0.5 
725 2 2 2.65442 3.83801 5.29354 -2 0 0 -59.8963 -8.55386 -25.7853 384.674 -464.792 55.2333 0 0 0 0.5 
658 2 2 2.23436 4.57276 5.65734 -3 0 0 -30.5118 9.77013 -11.7204 -199.716 349.329 172.969 0 0 0 0.5 
668 2 2 0.837613 2.95872 5.71061 -6 0 0 -166.597 -4.04163 16.1257 -2362.87 371.649 -267.643 0 0 0 0.5 
761 2 2 1.73348 1.41866 4.31537 -29 0 0 -303.846 -35.6881 -26.4748 -800.966 -2159.39 -2362.87 0 0 0 0.5 
968 2 2 3.46438 0.0852772 5.33025 47 1 0 -483.387 -3.82733 32.946 -145.997 1280.75 -692.997 0 0 0 0.5 
399 1 1 3.58931 1.21184 5.65275 -23 0 -1 -359.334 9.3013 9.5141 747.949 -310.552 -540.998 0 0 0 0.5 
154 1 1 1.8169 4.28026 4.11869 2 0 0 -44.2964 22.034 -8.598 -416.075 -697.34 -1526.6 0 0 0 0.5 
256 1 1 0.453544 2.82884 4.2599 -11 0 0 -175.986 24.1673 5.68893 335.147 -34.8537 1224.76 0 0 0 0.5 
933 2 2 4.45161 4.18714 4.0022 -1 0 0 -71.3086 11.9965 -9.37975 -404.57 1438.98 -250.024 0 0 0 0.5 
771 2 2 4.35298 1.00503 5.38818 -23 0 -1 -355.258 0.723791 14.8544 857.471 -401.66 48.5474 0 0 0 0.5 
529 2 2 1.09562 4.45187 4.73738 -5 0 0 -42.0965 11.2074 -9.5854 2367.09 -527.099 2334.15 0 0 0 0.5 
513 2 2 4.54657 1.41259 4.10374 -16 0 0 -329.568 4.99599 -7.60126 -809.42 841.127 -1344.87 0 0 0 0.5 
962 2 2 0.71572 3.77343 5.73156 0 0 0 -93.0969 19.3022 18.1195 1333.67 -1182.52 -1291.75 0 0 0 0.5 
374 1 1 3.5521 3.85112 4.0074 -2 0 0 -73.8095 -10.5601 1.74454 -459.537 -250.297 -700.698 0 0 0 0.5 
689 2 2 0.330051 4.69647 4.18874 -16 0 0 14.1443 -22.5538 7.71678 -1264.91 -1274.17 -1969.96 0 0 0 0.5 
33 1 1 2.7936 1.06086 5.34973 53 1 0 -355.737 -2.89753 -3.79338 1977.97 -233.408 -1226.14 0 0 0 0.5 
737 2 2 0.223438 4.81054 5.24654 -4 0 0 -16.7655 -6.30722 -11.3206 1555.34 -1262.84 -470.994 0 0 0 0.5 
867 2 2 4.19291 3.55755 4.68645 -22 0 0 -102.478 11.5822 -20.2219 1453.97 143.263 1721.87 0 0 0 0.5 
340 1 1 4.45135 4.40086 4.95932 -5 0 0 -10.4077 -9.92466 17.2917 -640.716 -1946.36 -1814.14 0 0 0 0.5 
216 1 1 3.6574 0.704356 4.67029 -26 0 0 -389.576 16.4143 14.5105 -1572.64 1418.09 1241.66 0 0 0 0.5 
201 1 1 4.44156 2.79625 4.70846 -24 0 0 -169.031 -31.0868 11.5019 -2899.87 -693.305 1640.18 0 0 0 0.5 
271 1 1 4.9809 1.06623 4.69893 -42 0 0 -354.715 5.47509 16.5641 1348.21 -354.132 1039.36 0 0 0 0.5 
492 1 1 1.99436 0.0464856 7.49321 -53 0 0 -503.531 0.284971 22.8094 -896.552 194.525 -571.744 0 0 0 0.5 
995 2 2 2.45185 1.72559 7.66949 -23 0 0 -273.831 -0.912925 5.0872 2339.35 -2023.54 -1264.84 0 0 0 0.5 
52 1 1 1.57538 1.71338 7.70289 68 1 0 -250.923 -9.20162 27.9931 -502.943 -2173.43 1226.51 0 0 0 0.5 
384 1 1 2.14734 0.927932 7.28101 -19 0 0 -389.931 6.73653 12.0955 -225.704 76.766 1710.61 0 0 0 0.5 
38 1 1 2.44181 1.99308 6.58244 -28 0 0 -284.129 30.8885 12.3493 -2016.7 1767.6 1323.83 0 0 0 0.5 
187 1 1 0.488268 1.89326 6.72806 -22 0 0 -253.063 -13.5018 29.347 -604.995 -230.767 -1399.95 0 0 0 0.5 
247 1 1 1.91233 1.03659 6.45672 -34 0 0 -362.002 4.49973 10.4576 310.021 -849.448 -1024.63 0 0 0 0.5 
65 1 1 2.33157 4.44286 6.91678 1 0 0 -34.6903 1.89585 -9.58086 -527.189 841.887 -357.77 0 0 0 0.5 
503 2 2 1.26435 3.01706 6.48922 -15 0 0 -185.733 22.8748 27.5516 -660.569 949.266 556.689 0 0 0 0.5 
860 2 2 3.12859 4.95145 7.812 3 0 0 -24.7166 12.5166 -11.924 629.976 246.502 -327.825 0 0 0 0.5 
439 1 1 1.86463 3.76923 6.20868 -4 0 0 -75.1279 -5.50057 -5.84449 -320.863 -2033.82 -1928.15 0 0 0 0.5 
241 1 1 1.57357 1.74744 6.47888 61 1 0 -283.744 19.4748 13.7761 -1504.77 1694.6 913.652 0 0 0 0.5 
569 2 2 -0.0137531 1.49424 7.79074 69 1 -1 -319.409 16.1329 -1.64404 638.624 -3526.69 -1573.35 0 0 0 0.5 
343 1 1 1.41823 3.37349 7.43914 -6 0 0 -110.04 6.54137 -22.0442 1289.61 774.198 486.905 0 0 0 0.5 
47 1 1 2.53777 3.57286 6.86927 -23 0 0 -115.828 -3.08981 -8.95384 -1610.94 1506.63 284.391 0 0 0 0.5 
594 2 2 0.842908 1.38683 6.36365 -16 0 0 -269.204 -41.267 -18.3323 -140.033 80.759 -1706.59 0 0 0 0.5 
797 2 2 1.07294 0.143966 7.9164 59 1 -1 -523.141 3.57774 12.9095 -120.442 633.662 1467.5 0 0 0 0.5 
347 1 1 4.08495 4.73178 7.44854 2 0 0 -33.7643 14.5785 -9.2863 47.5385 -260.513 180.824 0 0 0 0.5 
839 2 2 0.632909 2.6904 7.32423 -17 0 0 -193.318 31.8066 13.8136 900.822 1194.04 238.231 0 0 0 0.5 
34 1 1 1.13411 0.826022 7.72418 52 1 0 -398.048 35.8858 11.7343 2610.68 604.358 -1021.05 0 0 0 0.5 
259 1 1 0.843446 0.798746 6.91159 -23 0 -1 -365.282 1.17573 2.33037 -3065.57 2105.99 3271.1 0 0 0 0.5 
243 1 1 0.221005 2.47625 6.33874 -11 0 0 -197.035 17.8898 -10.3335 1276.53 985.69 -717.913 0 0 0 0.5 
935 2 2 2.36474 2.62401 7.68222 -5 0 0 -209.041 5.5901 8.3044 1798.25 -169.568 1707.11 0 0 0 0.5 
603 2 2 1.15917 0.281677 6.58916 29 1 0 -460.566 14.2567 -11.8881 -251.387 -2178.55 -2679.68 0 0 0 0.5 
265 1 1 1.85052 2.71733 7.03621 -10 0 0 -168.899 -14.7421 -2.10491 249.676 -1833.5 -2445.24 0 0 0 0.5 
573 2 2 0.94606 1.98231 7.41589 -8 0 0 -241.885 -8.41742 22.7922 -1029.25 71.282 387.258 0 0 0 0.5 
446 1 1 2.42156 3.48219 7.95334 -9 0 0 -138.27 4.48379 6.28498 1927.96 -1092.77 -730.381 0 0 0 0.5 
448 1 1 3.35854 3.61876 7.3076 -2 0 0 -144.211 -4.40462 7.60772 -1110.93 -1259.39 423.308 0 0 0 0.5 
460 1 1 3.24127 4.40477 7.0905 2 0 0 -36.1414 11.0521 -18.902 855.33 997.095 -660.565 0 0 0 0.5 
299 1 1 0.323915 4.29348 7.33281 -13 0 0 -93.1717 20.2214 -35.013 4051.81 -1900.87 1472.66 0 0 0 0.5 
608 2 2 4.06375 3.31756 6.48196 -3 0 0 -78.3025 -14.9986 10.6491 -258.366 -38.7459 -1122.58 0 0 0 0.5 
716 2 2 3.15901 1.58925 6.26204 -27 0 0 -344.379 22.887 4.07413 1770.94 -685.339 171.218 0 0 0 0.5 
876 2 2 4.5089 2.66199 7.71877 -4 0 0 -183.483 -8.57986 18.6799 301.942 -600.366 -76.5724 0 0 0 0.5 
223 1 1 0.786783 3.72363 7.36883 -10 0 -1 -113.818 -7.00331 -17.852 -1205.2 -251.179 -179.776 0 0 0 0.5 
846 2 2 0.259704 4.47241 6.12756 -3 0 0 -53.6969 9.16152 -17.1999 -826.67 1736.82 1865.71 0 0 0 0.5 
225 1 1 0.037381 3.6322 6.70052 -10 0 0 -120.084 -2.981 -10.6085 316.521 88.003 235.093 0 0 0 0.5 
222 1 1 4.84826 1.31459 6.26254 72 1 0 -322.627 8.66332 3.48615 -1707.99 2929.85 -504.155 0 0 0 0.5 
352 1 1 2.9506 2.81069 6.91852 -7 0 0 -204.493 11.8594 -3.14479 2007.65 -3239.7 879.644 0 0 0 0.5 
348 1 1 1.52845 4.53491 6.38503 -4 0 0 -25.1855 -6.04146 -24.3348 -263.795 1391.5 -1289.2 0 0 0 0.5 
762 2 2 2.83654 0.826342 7.88085 -36 0 -1 -399.767 6.12047 21.255 656.913 -96.8316 571.734 0 0 0 0.5 
754 2 2 4.52657 1.61254 7.31574 -16 0 0 -287.754 -13.05 8.53203 1369.26 37.8478 -518.088 0 0 0 0.5 
924 2 2 4.66754 2.30682 6.81763 -12 0 0 -212.378 5.10395 -1.34207 -340.237 -182.465 623.577 0 0 0 0.5 
635 2 2 2.87304 0.698243 6.76128 -36 0 0 -392.843 -3.69173 -5.15719 208.466 -65.981 -149.299 0 0 0 0.5 
437 1 1 0.119911 0.0577286 7.55655 -33 0 0 -536.785 31.9935 -0.316964 1316.86 -3395.73 -1613.15 0 0 0 0.5 
372 1 1 3.93167 0.801035 7.75858 -15 0 0 -398.444 -8.06287 7.94623 -623.83 -883.49 -1548.07 0 0 0 0.5 
524 2 2 4.11172 3.43432 7.44214 -12 0 0 -147.665 11.0662 3.65835 2413.5 380.666 1330.37 0 0 0 0.5 
958 2 2 4.39534 0.61902 6.90179 37 1 0 -400.477 -13.6253 8.44646 -1175.41 -264.095 -239.768 0 0 0 0.5 
908 2 2 3.71565 1.77166 7.50562 -17 0 0 -291.137 1.69391 -4.12071 -1323.79 194.791 475.175 0 0 0 0.5 
862 2 2 1.63683 2.49681 6.02841 -27 0 0 -184.727 0.492402 8.19608 1611.29 -549.958 -511.09 0 0 0 0.5 
564 2 2 3.87804 4.35059 6.30109 -1 0 0 -25.1894 -1.86295 -14.4286 0 0 0 0 0 0 0.5 
838 2 2 1.1243 4.93205 6.99305 -1 0 0 7.47653 -31.3901 -0.93904 -730.569 -917.232 1564.4 0 0 0 0.5 
795 2 2 4.74365 0.628264 8.14703 -34 0 -1 -397.556 -6.66855 -11.0935 -1062.51 -93.4575 96.8022 0 0 0 0.5 
916 2 2 1.4009 2.72104 9.79463 -16 0 -1 -244.47 1.2878 -10.6111 1834.41 668.464 638.814 0 0 0 0.5 
30 1 1 1.0275 4.26029 8.30128 -2 0 0 -60.9017 -11.385 -12.1546 -1243.15 -1192.9 -217.888 0 0 0 0.5 
139 1 1 1.54686 3.5816 9.91406 -6 0 0 -142.843 11.4355 -1.6712 634.965 -347.856 -539.086 0 0 0 0.5 
258 1 1 2.25497 3.71901 9.29617 -22 0 0 -138.204 5.19939 -11.5385 2408.35 -1096.67 200.729 0 0 0 0.5 
226 1 1 0.640092 1.2146 8.41457 -21 0 0 -349.308 -3.35207 11.8284 -936.109 949.018 2701.98 0 0 0 0.5 
308 1 1 1.25764 3.46957 8.94021 -2 0 0 -144.59 18.4157 -2.63193 -660.096 382.161 -495.525 0 0 0 0.5 
758 2 2 2.30271 2.09582 8.51169 -19 0 -1 -255.8 -5.87783 6.30345 737.388 -1024.42 -358.105 0 0 0 0.5 
899 2 2 0.88242 1.55665 9.3511 -25 0 -1 -301.06 -5.66741 1.85774 829.78 -325.355 87.7283 0 0 0 0.5 
672 2 2 1.86042 4.01388 8.21138 -13 0 -1 -103.806 12.5821 0.892313 1660.72 816.631 527.026 0 0 0 0.5 
562 2 2 2.08766 0.419371 9.12961 28 1 0 -436.764 5.07485 5.29142 0 0 0 0 0 0 0.5 
533 2 2 3.64006 1.4452 8.39126 63 1 -1 -314.906 -1.63111 7.15151 -229.976 1194.91 1022.93 0 0 0 0.5 
227 1 1 0.161195 2.35562 8.39838 -18 0 0 -268.368 16.3818 1.86574 1404.37 136.348 633.959 0 0 0 0.5 
335 1 1 1.89954 2.80009 8.95492 -20 0 0 -198.838 -10.3104 16.6563 575.955 198.838 1401.84 0 0 0 0.5 
42 1 1 0.0716564 1.87468 9.26555 -25 0 0 -305.555 -2.55084 -9.93265 3492.82 -2121.74 602.444 0 0 0 0.5 
811 2 2 3.99692 4.7535 9.0975 -1 0 0 -37.7864 -7.20181 -9.02986 861.368 -1683.59 -525.805 0 0 0 0.5 
393 1 1 2.33283 4.58075 8.96452 -9 0 -1 -80.0641 21.9522 3.64884 3088.05 -1460.59 2940.58 0 0 0 0.5 
66 1 1 2.75767 2.92557 9.24754 -7 0 0 -188.749 7.29592 22.6787 1289.37 -1834.23 -73.7511 0 0 0 0.5 
618 2 2 1.52729 2.9865 8.17296 -3 0 0 -160.928 -10.8266 -9.58683 -280.326 -143.786 422.139 0 0 0 0.5 
640 2 2 3.99531 0.44916 8.97208 -29 0 0 -391.094 1.09387 14.5891 -497.883 772.368 -540.576 0 0 0 0.5 
770 2 2 0.629466 2.68869 9.62469 -19 0 -1 -248.316 -20.6947 -4.28366 1726.04 -1843.21 -909.332 0 0 0 0.5 
656 2 2 0.961113 2.19031 8.54413 -23 0 0 -264.561 14.7006 10.3724 1363.91 -281.87 248.512 0 0 0 0.5 
609 2 2 0.346995 3.94118 9.14674 -3 0 -1 -80.814 -2.26111 -20.8085 1633.8 -952.414 503.573 0 0 0 0.5 
56 1 1 0.468521 3.30894 8.49559 -9 0 0 -134.494 -10.7427 -23.8971 418.795 -608.89 -948.287 0 0 0 0.5 
317 1 1 3.23455 3.935 9.45909 -9 0 0 -148.345 29.6465 6.89118 1245.67 669.943 -2425.4 0 0 0 0.5 
363 1 1 0.857813 4.78452 8.91547 1 0 -1 -11.5982 -12.6647 4.63084 -962.602 -356.327 -504.665 0 0 0 0.5 
563 2 2 4.44213 4.07847 8.05611 -3 0 0 -70.7014 -6.20762 11.9165 -1286.89 -392.983 -959.039 0 0 0 0.5 
264 1 1 1.14864 4.98684 9.77872 -1 0 -1 -2.6885 3.8996 -2.8196 -276.103 1313.39 -1450.38 0 0 0 0.5 
592 2 2 1.49445 4.36361 9.26791 2 0 -1 -45.0714 -20.4283 -1.03224 -2433.06 1552.85 1058.99 0 0 0 0.5 
327 1 1 0.322297 4.67277 8.08824 2 0 0 -30.2893 11.9998 2.52755 -434.977 346.648 -144.559 0 0 0 0.5 
749 2 2 0.527281 0.00904771 8.72277 -64 0 0 -534.855 29.5025 5.7549 2139.63 -979.021 1574.05 0 0 0 0.5 
809 2 2 2.8626 0.305979 9.8181 37 1 -1 -442.601 11.8541 3.29442 -300.383 -559.245 -4225.62 0 0 0 0.5 
354 1 1 3.27328 3.34371 8.31854 -6 0 0 -131.304 -0.264706 11.7196 342.4 -423.61 -71.6676 0 0 0 0.5 
928 2 2 3.99869 4.89328 9.99652 -5 0 -1 -10.2383 11.0527 7.29701 -346.201 1135.7 -836.185 0 0 0 0.5 
864 2 2 0.664177 3.47571 9.66396 -8 0 0 -139.307 -8.6259 11.56 154.784 -1793.09 115.728 0 0 0 0.5 
835 2 2 2.8476 4.15468 8.57648 -4 0 0 -120.294 15.048 -17.9439 1851.73 -1273.57 -1058.74 0 0 0 0.5 
775 2 2 3.13755 1.27523 9.53849 -35 0 -1 -348.533 18.7087 -2.25407 -54.5581 -18.9571 99.5915 0 0 0 0.5 
40 1 1 4.60265 4.44783 9.61496 -4 0 0 -59.2268 -2.38687 15.1798 898.857 -1136.63 25.989 0 0 0 0.5 
861 2 2 2.29052 4.91621 8.11614 2 0 0 -19.056 -2.06045 -4.8931 365.902 -251.965 -759.858 0 0 0 0.5 
857 2 2 0.157854 4.67349 9.45436 3 0 -1 -6.96723 14.2627 9.4262 697.4 665.781 1061.16 0 0 0 0.5 
106 1 1 4.45288 3.44899 9.7907 -10 0 -1 -116.704 -12.2513 -5.71339 -1699.76 735.117 753.099 0 0 0 0.5 
380 1 1 4.45445 2.72855 9.17199 -12 0 0 -174.942 -16.964 -7.72892 -2042.82 1952.02 529.979 0 0 0 0.5 
368 1 1 4.59098 1.44112 8.6663 -10 0 -1 -308.199 5.07459 10.107 -161.381 848.168 -653.228 0 0 0 0.5 
596 2 2 4.57637 2.06676 9.86019 -17 0 0 -242.223 -5.17742 13.0424 4227.4 -3051.34 -1097.75 0 0 0 0.5 
203 1 1 0.706848 9.96633 0.286003 -27 -1 0 467.186 3.05933 -24.2118 -1701.37 1701.62 2546.22 0 0 0 0.5 
575 2 2 0.589837 8.17458 0.357088 48 0 0 304.465 6.61496 -30.4569 -929.759 271.631 -731.96 0 0 0 0.5 
463 1 1 3.23562 9.90451 1.83602 39 0 1 489.898 0.673099 -26.8628 3096.95 659.802 777.866 0 0 0 0.5 
582 2 2 2.50831 5.14538 0.637046 11 0 0 -5.99021 1.92898 8.83068 -1383.73 891.252 674.506 0 0 0 0.5 
292 1 1 3.98843 7.28908 1.32333 -64 -1 0 218.962 -4.23573 -13.1705 955.582 -2680.39 577.491 0 0 0 0.5 
58 1 1 4.917 7.1048 1.13229 21 0 0 207.531 -9.58742 -18.3752 21.6038 -236.95 -816.873 0 0 0 0.5 
160 1 1 2.85917 7.54564 1.3388 24 0 0 294.988 -25.4678 3.85864 -849.142 -244.452 1271.18 0 0 0 0.5 
357 1 1 0.632567 9.13793 1.39187 -36 -1 1 408.64 3.34675 -11.9544 0 0 0 0 0 0 0.5 
986 2 2 4.27635 7.86064 0.0518055 22 0 1 257.403 -21.1005 4.92979 -160.802 -964.516 -1647.72 0 0 0 0.5 
614 2 2 0.00450518 8.43069 0.798927 15 0 1 311.759 9.69674 0.761577 -1162.36 508.594 877.413 0 0 0 0.5 
26 1 1 0.274911 8.23544 1.85973 40 0 0 318.252 10.0365 1.77337 -350.491 2580.18 645.714 0 0 0 0.5 
252 1 1 2.68464 8.47373 0.886174 50 0 1 328.329 -6.39245 -24.3417 -40.4716 -573.989 -836.059 0 0 0 0.5 
763 2 2 3.92504 6.92177 0.22877 1 0 1 118.588 11.9428 2.47363 2402.47 -1410.87 -720.506 0 0 0 0.5 
73 1 1 4.78583 7.88131 0.791199 14 0 1 258.009 13.3572 2.81503 3864.67 -4162.17 2815.71 0 0 0 0.5 
441 1 1 4.71129 5.3401 1.39874 11 0 1 14.5219 9.61679 2.60864 1090.5 -2159.74 2075.04 0 0 0 0.5 
109 1 1 3.78644 5.95775 0.275709 2 0 0 46.524 5.9231 19.1069 2402.16 -1257.92 1884.96 0 0 0 0.5 
542 2 2 3.6088 7.94528 1.75614 -59 -1 1 263.086 -0.399279 -0.462145 600.016 915.041 -510.337 0 0 0 0.5 
88 1 1 0.883202 7.54225 0.784228 6 0 1 212.693 18.9902 27.9357 1544.65 -1229.83 -638.354 0 0 0 0.5 
301 1 1 3.97067 9.52255 0.381993 32 0 0 505.138 7.04332 18.112 2.26749 99.7845 -1073.77 0 0 0 0.5 
713 2 2 1.65128 9.53835 0.511758 -45 -1 1 474.263 -6.63187 -11.9324 0 0 0 0 0 0 0.5 
610 2 2 3.61314 6.46212 1.77203 8 0 0 138.584 12.2716 -0.0599262 -2896.48 2689.32 319.296 0 0 0 0.5 
555 2 2 1.81003 5.29789 1.41729 -6 0 0 32.2563 19.6315 -11.703 776.44 -3874.24 1713.88 0 0 0 0.5 
590 2 2 3.95578 5.05752 0.856768 4 0 0 14.0308 5.02403 1.21685 465.302 370.301 211.857 0 0 0 0.5 
753 2 2 2.21766 8.06435 1.75682 26 0 1 317.134 -6.04771 -3.83545 295.466 -960.16 964.793 0 0 0 0.5 
78 1 1 2.07049 5.94836 0.204568 8 0 1 112.506 -16.8166 -17.4633 50.5488 -482.149 412.337 0 0 0 0.5 
390 1 1 3.04791 7.19528 0.493065 5 0 0 165.549 12.1909 1.90685 -276.936 1917.7 -78.7713 0 0 0 0.5 
407 1 1 3.02499 6.41504 0.170716 11 0 0 105.094 -6.71231 -0.245307 -3403.79 2315.41 144.801 0 0 0 0.5 
103 1 1 0.552201 5.08926 0.307321 -1 0 0 22.7226 -16.4272 13.2011 1202.72 -3201.12 1147.06 0 0 0 0.5 
337 1 1 1.95123 9.4585 1.85376 40 0 0 481.893 -14.1038 -45.0928 -3017.17 2497.77 -469.989 0 0 0 0.5 
605 2 2 0.118222 5.64192 0.335657 5 0 0 80.023 -6.98466 -2.85477 -2195.85 1237.08 1019.79 0 0 0 0.5 
175 1 1 1.63844 6.19526 1.02486 10 0 0 153.895 -28.7252 4.01272 -820.949 2209.41 -2095.54 0 0 0 0.5 
685 2 2 1.38334 6.9031 1.3472 8 0 1 216.399 4.53118 -2.14276 2669.37 762.1 -594.573 0 0 0 0.5 
238 1 1 4.30954 8.6074 0.460035 -42 -1 1 424.631 -18.4552 10.6679 -3446.09 4807.41 -2612.57 0 0 0 0.5 
578 2 2 3.56674 7.94845 0.736702 15 0 0 291.077 10.392 13.6199 -2998.45 -1005.91 -900.853 0 0 0 0.5 
541 2 2 0.54877 7.46807 1.69323 18 0 0 224.516 2.75525 -1.46838 551.898 1170.25 1351.95 0 0 0 0.5 
82 1 1 0.876786 6.82363 0.371111 8 0 0 127.582 -0.47275 6.60873 -1285.11 536.941 1235.38 0 0 0 0.5 
153 1 1 0.8567 6.94148 1.60276 10 0 0 197.461 -38.1623 5.61827 -2330.17 -1397.35 -879.682 0 0 0 0.5 
570 2 2 4.39408 9.81493 1.56817 -29 -1 1 483.744 7.64202 28.1464 -343.59 -1033.68 -1280.77 0 0 0 0.5 
330 1 1 0.274205 6.29466 0.995771 9 0 0 157.798 -3.03905 -8.03142 424.048 -98.1553 385.423 0 0 0 0.5 
906 2 2 1.09238 6.01378 0.232906 13 0 0 103.851 -25.822 18.1538 594.359 -112.858 1327.43 0 0 0 0.5 
419 1 1 0.0117219 7.31322 0.894313 8 0 0 202.39 -9.4816 -4.84068 1348.45 249.164 1360.86 0 0 0 0.5 
781 2 2 1.68788 8.35538 1.16382 31 0 1 314.195 7.03473 -13.5082 24.452 489.387 -198.26 0 0 0 0.5 
285 1 1 1.486 8.38006 0.317586 39 0 0 293.056 23.4471 -13.5928 1072.78 275.656 -779.996 0 0 0 0.5 
386 1 1 2.39089 6.53878 1.62736 12 0 0 145.639 20.2462 18.7516 -141.865 356.965 118.388 0 0 0 0.5 
199 1 1 4.81766 8.71081 1.59411 -69 -1 0 431.52 -23.0217 4.42601 -1489.28 89.814 -461.213 0 0 0 0.5 
960 2 2 2.71969 8.97077 1.61015 39 0 1 425.439 -7.92194 -23.5247 3240.19 -1704.52 -1103.81 0 0 0 0.5 
690 2 2 2.70668 5.95016 0.944347 1 0 0 102.624 10.0326 5.7774 -389.799 -921.341 -243.3 0 0 0 0.5 
969 2 2 1.24993 8.05096 1.95659 23 0 0 327.829 -16.2031 -20.77 -5746.67 -317.18 -2374.73 0 0 0 0.5 
125 1 1 4.14311 8.9649 1.19698 -42 -1 1 414.837 -6.47122 7.11773 -553.166 2340.53 1501.81 0 0 0 0.5 
593 2 2 4.16929 5.9748 1.21209 6 0 1 87.1551 7.66423 1.45325 -1143.27 1762.12 -2622.41 0 0 0 0.5 
466 1 1 2.56049 7.29056 3.91676 16 0 0 217.018 -16.974 -3.23036 1587.99 -760.006 -567.387 0 0 0 0.5 
365 1 1 3.03237 9.78081 3.76217 -44 -1 0 528.665 1.08206 34.7255 -3180.28 -280.59 -1337.02 0 0 0 0.5 
302 1 1 3.50294 9.25181 2.21886 33 0 1 436.344 -27.0493 -9.7318 -217.94 -146.773 -589.806 0 0 0 0.5 
404 1 1 3.20908 6.28121 2.89797 7 0 0 110.234 1.22744 2.98805 -590.368 66.2163 -354.079 0 0 0 0.5 
684 2 2 4.51843 8.05622 3.74815 25 0 0 309.829 -11.0242 -9.62534 1982.51 -1925.69 1231.37 0 0 0 0.5 
3 1 1 4.06428 8.48523 3.20044 27 0 1 353.373 -14.381 -3.02986 2086.67 -1547.85 -1473.92 0 0 0 0.5 
729 2 2 3.51948 8.28797 2.42587 40 0 1 343.081 -4.93494 15.4205 665.116 -317.51 643.198 0 0 0 0.5 
137 1 1 1.02604 9.11286 3.89174 -54 -1 0 376.709 10.3349 -4.22053 -457.338 18.9833 -665.149 0 0 0 0.5 
704 2 2 1.69528 9.19251 2.86147 48 0 0 480.801 3.77263 -26.2632 -3275.58 -256.838 -35.5435 0 0 0 0.5 
286 1 1 0.240037 7.98033 3.97556 34 0 0 318.848 -1.80396 13.113 -229.659 1723.92 1592.2 0 0 0 0.5 
917 2 2 4.04523 6.22353 3.04865 8 0 0 113.935 24.445 10.4294 -451.278 1382.59 460.071 0 0 0 0.5 
410 1 1 4.39516 5.09826 2.29306 -1 0 0 10.928 6.98126 -4.49607 598.513 -655.375 1900.46 0 0 0 0.5 
121 1 1 3.02909 9.399 2.89902 44 0 0 450.988 -8.74798 9.73218 1469.41 452.568 670.893 0 0 0 0.5 