# vtk DataFile Version 4.2
Generated by LIGGGHTS
ASCII
DATASET POLYDATA
POINTS 1000 float
1.22201 1.98423 1.16267 1.46757 0.0975842 1.10822 1.84298 0.854532 1.58076 
2.4402 1.28162 0.72463 4.61958 1.66895 0.855871 0.334184 2.42239 0.784945 
0.730347 2.47814 1.49835 1.0967 0.96875 1.96677 1.95849 1.75536 1.28371 
1.22822 3.2929 0.680013 2.44793 0.417846 0.815403 4.44269 3.39953 1.82941 
3.99595 0.712413 0.817841 0.504727 1.35115 0.144066 3.51344 2.42386 1.82893 
0.592765 1.61097 1.79549 3.52855 0.252137 1.84369 4.51823 3.07895 1.01003 
1.63053 1.79554 0.344903 0.123741 1.10684 1.04678 0.33866 0.294927 1.12424 
2.36585 4.63279 1.17216 4.17247 0.0375424 1.52908 1.01965 2.41778 0.31298 
4.22146 2.2582 0.922992 3.35996 1.55143 1.61583 1.60193 3.293 1.46515 
0.538669 0.136512 0.279205 2.24128 4.19281 0.281105 3.65411 2.35601 0.325731 
3.78406 4.3283 1.30601 1.80259 2.74256 1.99046 0.41001 3.14526 1.33141 
0.0980528 2.91276 0.370563 2.64734 3.46757 1.3593 3.42286 1.42628 0.494782 
3.47043 4.96108 1.94881 3.54191 1.04885 1.38431 2.63132 2.37708 1.84471 
1.25801 4.07002 0.195179 4.28368 1.91804 1.76514 1.58475 4.85389 0.730181 
4.46788 4.88384 0.318107 2.74382 0.254559 1.95035 3.81248 3.41879 1.18466 
1.42238 4.09028 1.14334 3.19189 0.541958 0.462237 3.23588 2.43624 1.07443 
3.14479 4.41666 0.584011 3.27888 3.17994 0.407572 4.80732 4.28765 1.84322 
1.26964 1.4441 3.01959 0.472443 2.32308 2.3848 1.29433 2.87424 2.71964 
4.1857 2.51673 3.53484 2.01194 0.350983 3.18855 3.33753 4.13426 2.05985 
0.126969 0.687671 3.74566 2.05358 3.70354 2.19096 2.88841 1.06726 2.80782 
2.26407 0.619389 2.32036 1.96099 1.94163 2.41136 0.206106 1.37462 2.53594 
1.48317 1.89282 3.99171 0.482511 1.58657 3.34826 -0.0163335 2.15448 3.70536 
3.96893 2.38291 2.51205 3.55775 3.39536 2.13978 4.17377 3.24881 2.61156 
2.27579 3.39284 2.78402 2.67013 2.32282 2.90928 0.794762 2.35271 3.9401 
2.22389 4.11353 3.28089 1.52761 3.12805 3.57013 2.07273 1.45463 3.26198 
2.20679 4.92198 3.50344 0.516055 3.01041 3.47372 2.96921 4.73371 2.43279 
3.58441 1.58506 3.94408 4.17993 0.348876 2.53862 4.46866 4.1088 3.78034 
2.8193 0.852729 3.67749 0.888299 4.75766 3.83405 4.00979 1.66935 3.11315 
2.87756 3.19015 2.82166 0.251477 3.86748 3.51567 4.24271 3.38868 3.53948 
3.51796 3.03088 3.15534 0.518232 3.37353 2.25468 2.94133 0.141604 2.93646 
0.274563 0.131887 2.44612 3.28828 4.92758 3.32423 0.559185 4.54319 2.81962 
3.69625 1.00811 2.53764 2.83032 1.68967 2.31353 4.76257 1.90309 2.58126 
3.39003 2.22415 3.50415 3.67157 3.94203 3.30055 1.42379 4.16845 2.01675 
4.84075 3.15092 2.9483 4.88533 2.01677 3.55216 4.89804 1.18154 3.17258 
4.91963 4.86015 2.65889 2.28399 3.69045 4.35067 4.59617 2.13525 4.36587 
4.02721 0.974645 4.30043 0.514976 1.70148 5.43101 0.182613 0.103162 4.87202 
1.95696 2.76601 4.2045 0.50547 2.57262 5.72296 2.38944 1.34868 5.86799 
4.02088 3.38521 4.8155 4.65493 3.0069 4.25717 0.0199922 2.12744 4.68516 
1.90865 2.68381 5.18742 3.8447 2.17469 4.98954 3.11675 3.23153 4.00677 
4.76676 3.75831 4.46483 0.558804 0.44561 5.76932 1.43307 1.76222 4.94324 
0.567139 0.992433 4.55037 2.29879 1.57522 4.09112 2.38417 1.51787 4.96787 
1.46738 0.0947158 5.08244 2.46743 0.461893 5.55596 3.3631 1.31149 4.8589 
1.83997 0.584712 4.25386 0.761482 4.07271 4.50058 2.76909 2.5553 4.7423 
1.7149 3.97026 5.07903 1.57555 2.20018 5.9464 4.3799 0.279845 4.03755 
3.48022 1.68806 5.91723 4.36973 2.34472 5.80472 4.58368 3.83484 5.85244 
1.7092 4.60557 4.2942 3.7682 4.85665 5.11023 3.00434 4.58385 4.208 
0.78775 4.01113 5.49113 0.952198 4.84331 5.38032 3.36911 0.816371 5.69 
1.86703 4.89741 5.141 3.87575 0.381143 5.0868 0.277736 3.14917 5.01793 
4.2955 4.71578 4.03821 2.82889 4.93224 5.03212 2.39284 3.58724 5.93682 
3.13831 3.21751 5.91539 4.35044 4.24184 5.11797 4.58184 0.324157 5.84036 
4.3271 3.01155 5.47219 3.71083 2.70321 4.33191 2.30588 0.526971 6.78995 
3.78099 1.74808 7.76805 1.40964 0.259205 6.15397 1.1659 2.29774 7.75087 
2.29344 1.83753 6.5553 4.80849 3.04701 6.47603 3.94359 2.93316 7.72149 
1.43342 0.538966 7.13483 2.03212 3.59636 7.40521 3.50581 3.52106 7.46343 
0.577161 1.24226 6.32893 4.25292 3.59383 6.59288 0.688171 2.15853 6.58567 
1.71507 2.21232 6.89903 2.88764 0.819824 7.59801 0.565467 3.32513 6.02409 
4.79017 1.28101 6.27455 4.08337 1.27554 6.95018 3.52234 2.54683 6.98569 
0.650781 1.00706 7.49591 1.94271 1.38266 7.38996 3.11987 2.31633 6.01487 
2.81479 1.80973 7.60963 1.74938 4.17766 6.04379 2.86052 2.78816 6.78506 
3.59695 4.8698 6.07339 1.82859 4.99473 6.00389 1.08073 3.32586 7.31051 
4.75646 2.13333 6.71323 4.0055 4.30007 7.02888 3.11492 4.5074 7.20995 
1.87929 4.72852 7.15116 2.73345 3.65884 6.90814 0.286112 4.26317 6.32444 
1.68023 0.0172981 7.55621 2.9524 1.37193 6.78057 1.19947 4.38012 7.77961 
1.06182 4.00516 6.7418 4.67336 0.361056 7.66762 4.66692 2.64803 7.40212 
4.65417 3.77738 7.37342 0.462907 4.56824 7.98933 4.78017 1.85634 7.80756 
4.92717 4.72853 7.23895 2.43163 2.17444 9.06625 3.45204 2.93834 9.55498 
2.89621 3.57993 8.00135 0.676134 4.99068 9.4031 0.89217 2.37011 9.44442 
2.30323 1.49035 8.3818 0.350768 1.04359 8.67236 1.84697 3.21989 9.99063 
4.54347 4.0449 9.01256 1.56892 0.657155 8.25305 1.3371 3.04118 9.0965 
1.78766 2.35844 9.62309 1.05247 3.17537 8.23955 0.87877 3.18835 9.86691 
0.236315 0.615739 9.39411 2.26982 0.89562 9.80794 0.631031 0.334297 8.33633 
0.617974 1.59965 9.29661 1.43108 3.84714 9.10133 1.55065 1.1686 9.36928 
3.22796 4.09504 8.82368 0.468134 1.69791 8.25727 4.15563 0.656381 9.83657 
0.703183 2.47405 8.58229 0.413853 3.52615 9.22214 4.68029 4.35472 8.12276 
2.08003 4.66513 9.50918 2.67666 4.34422 8.06781 4.03341 4.73383 8.09707 
2.83881 3.74498 9.67632 1.14484 4.44821 9.45077 2.82927 0.761316 8.5707 
0.557177 3.7218 8.23193 4.24645 2.91749 9.30527 1.8103 4.54124 8.5914 
3.33182 1.94161 8.88501 2.89222 1.82459 9.89192 3.97658 0.148649 8.75593 
3.69702 0.860078 9.03491 3.06746 3.10472 8.81148 4.15208 1.75885 8.90556 
4.74753 1.62969 9.69826 3.07322 4.78292 9.48638 3.16145 2.5387 8.14385 
1.99307 2.18375 8.03895 3.84816 3.65493 8.28961 4.2852 4.30193 9.58998 
4.34157 2.23768 9.8495 4.39364 2.43556 8.30247 4.48178 0.0379689 9.59601 
4.52004 1.1094 8.50649 4.49671 3.21705 8.58179 4.96099 0.966293 9.25302 
0.808037 8.44957 1.28572 3.88684 7.99444 1.47042 4.14174 6.77323 0.680606 
2.98842 8.78327 0.658026 3.35803 5.65428 1.89464 3.3354 7.57695 1.99234 
0.556887 9.5376 1.87835 4.00431 8.70503 0.8214 1.05754 9.25877 0.926553 
4.04286 9.22259 0.0377452 3.40752 8.72813 1.29003 2.90618 6.86732 1.42735 
4.01995 7.09806 0.034143 4.67041 5.05387 1.55028 0.0258761 8.84456 1.23823 
3.65033 9.87261 0.339725 3.05695 8.424 1.95193 0.0393768 8.59302 0.369869 
2.78759 7.75864 1.18046 3.3 7.23816 0.553006 1.27819 6.61012 1.92108 
2.86146 8.02791 0.283253 1.87124 9.28682 1.23076 3.27846 5.83188 0.118106 
3.56438 6.53716 1.87136 1.30905 5.30263 0.125596 0.319256 7.64936 0.922084 
0.550502 6.23163 1.02005 4.60008 8.44334 0.334814 3.97929 6.17647 1.22938 
2.43219 7.17815 0.334271 1.19834 5.8103 1.26614 4.18021 7.63259 0.761124 
0.782267 6.69571 0.164292 0.315262 7.74834 1.85032 2.2138 5.75345 1.10532 
3.30327 6.4011 0.821401 1.87615 6.24949 0.24517 4.86662 6.23505 1.79735 
2.19249 7.38722 1.80184 4.08036 5.76411 0.339929 1.56195 8.84228 0.157896 
0.460725 7.0406 1.21486 3.60285 5.27893 1.03617 0.863895 7.75246 0.371064 
2.48563 9.23785 0.808553 2.68807 6.33412 0.150677 4.64632 7.55598 1.52849 
4.73027 9.52978 1.24171 4.7937 6.91011 0.974036 4.82749 8.6914 1.6824 
1.24341 5.70404 2.70799 3.59186 7.48605 3.39468 1.45948 8.84631 3.5324 
3.34249 6.81411 2.63067 4.73361 8.00957 2.36818 2.14609 9.75244 3.82436 
2.8056 7.33792 2.64269 3.90075 6.69729 3.37361 4.23433 8.62558 2.90242 
0.583544 9.07264 3.86677 1.46337 7.12566 3.69797 4.02005 9.41837 3.78094 
2.04585 6.65978 3.67669 0.221828 8.5677 2.12723 0.403085 9.75289 3.27349 
0.789137 6.16509 3.54997 3.24696 9.74536 3.78895 2.75011 7.77531 3.44044 
0.827691 9.10921 2.73288 -0.0568442 7.76532 3.85278 1.33757 5.67729 3.70114 
2.4847 6.01835 3.48608 4.05092 5.83538 2.43129 2.49766 6.13144 2.45965 
0.229024 5.083 3.39359 4.34842 7.22112 2.45458 2.24422 7.85724 2.57816 
1.89316 7.94362 3.36359 4.2086 5.9872 3.66885 2.3829 5.22912 2.64171 
2.04505 8.70952 2.62134 0.746221 7.38016 3.05562 0.10172 6.83749 2.02384 
0.690305 6.48057 2.67333 0.671139 6.92551 3.90952 4.54977 9.85401 3.0417 
4.67831 8.15807 3.32125 4.63065 6.74421 2.04854 4.66788 6.78344 3.84456 
1.51482 9.62362 2.0148 4.88792 6.7233 2.9393 2.82154 5.83209 5.8399 
2.47302 7.39303 4.93836 0.298348 9.45486 5.7133 -0.0512526 8.54213 4.30122 
4.46561 6.77762 5.93893 0.597957 8.56102 5.2831 2.00162 9.89059 4.74303 
1.15579 9.22739 5.80743 3.22193 8.35838 4.57919 3.51989 7.52121 5.25767 
4.44602 7.5544 5.2623 2.6353 9.57935 5.09698 3.16775 8.16921 5.58335 
3.12421 6.66415 5.39764 3.04865 5.71999 4.25433 0.507671 9.37589 4.70511 
2.74807 6.58487 4.32679 2.79973 9.10759 4.4032 1.7043 7.01747 5.55422 
1.82057 5.74696 5.45751 0.0673087 6.30708 5.45257 1.73785 8.90649 4.49038 
2.29608 8.04557 4.24773 2.56565 5.81027 4.9687 1.54434 7.18717 4.62963 
1.43277 7.82975 5.25569 0.341023 5.17131 5.18107 0.0562258 7.49317 5.61991 
2.57136 8.74755 5.34981 0.520945 5.48031 4.23582 3.12752 7.49934 4.24799 
0.790366 7.03079 5.02125 2.0636 5.55994 4.1636 0.483724 7.80899 4.65295 
1.31083 7.94233 4.09374 1.66905 8.57047 5.69919 4.11808 5.41253 4.40355 
1.18524 6.11576 5.37544 0.0991813 6.12241 4.58432 1.72207 6.35007 4.5761 
2.27656 6.49816 5.81271 1.30139 5.43865 4.68743 3.82272 9.5063 5.32445 
3.99351 5.80206 5.32657 4.03567 7.23992 4.47342 4.09525 8.6282 4.00612 
4.215 8.71196 5.86327 4.53709 6.51323 4.78029 4.84694 5.77073 5.04033 
4.87347 8.94317 4.20872 4.8658 9.95165 4.66518 0.269483 7.99309 6.4893 
-0.0584021 8.66139 6.01717 4.28987 9.04832 7.8989 3.63789 9.52476 7.77256 
3.99558 6.44699 7.96085 0.834904 8.82016 6.70762 4.51991 7.62041 6.20141 
2.27647 6.49215 7.79023 4.74004 5.36973 6.64917 3.6487 5.81244 6.2076 
[...]
POINT_DATA 1000
FIELD FieldData 7
id 1 1000 int
25 542 389 318 530 857 566 584 159 
327 876 190 614 995 803 280 23 947 
761 400 825 846 419 322 765 526 427 
569 864 768 153 147 38 999 265 842 
370 47 410 787 480 369 522 578 9 
250 418 582 458 138 976 282 619 288 
778 597 725 216 231 67 815 905 809 
821 549 354 439 214 966 579 745 653 
600 188 851 409 78 894 345 110 254 
196 21 488 641 819 350 7 654 263 
145 847 826 329 769 217 918 860 766 
433 111 277 772 495 930 664 269 24 
746 75 509 666 514 98 375 688 39 
95 538 367 172 189 352 376 426 394 
203 104 741 64 506 659 43 220 241 
971 789 871 593 441 982 989 709 339 
699 5 438 862 154 823 284 513 163 
590 798 754 56 544 281 224 348 646 
829 257 992 620 246 660 105 287 568 
193 585 228 307 903 611 415 922 468 
251 635 810 155 880 609 937 17 187 
972 283 169 465 467 813 672 598 180 
912 51 853 173 694 941 1000 750 157 
270 910 835 645 533 225 450 929 199 
420 805 577 806 261 148 581 870 328 
868 796 41 608 364 621 316 4 335 
208 737 861 762 91 40 702 74 192 
358 863 969 338 142 565 934 235 323 
238 209 945 692 751 960 775 275 411 
800 103 518 804 127 273 942 595 707 
545 27 405 782 978 841 49 248 517 
365 391 634 784 340 997 503 587 244 
63 123 372 571 430 497 252 605 296 
259 801 387 779 444 715 561 357 325 
698 256 713 583 855 557 735 131 877 
757 807 505 309 81 893 88 840 883 
792 570 576 943 915 455 143 953 985 
884 564 278 799 385 289 638 382 791 
50 44 255 888 814 615 114 477 304 
471 756 491 349 834 980 359 158 630 
464 525 657 837 112 215 504 684 473 
528 452 160 562 292 682 221 763 356 
320 490 449 560 885 10 882 714 133 
673 949 752 414 636 965 874 226 191 
140 726 360 239 11 432 99 964 771 
500 981 499 324 384 177 920 878 938 
397 463 46 508 777 60 475 788 297 
551 552 156 315 830 474 286 119 423 
479 299 136 836 617 632 892 519 134 
453 30 665 417 649 240 210 462 534 
869 268 914 108 237 34 689 236 305 
723 655 599 57 89 201 77 175 986 
128 266 379 59 889 28 330 532 319 
326 776 272 556 639 425 125 144 991 
928 696 87 973 563 413 901 996 202 
586 812 421 333 541 165 721 924 332 
186 674 227 783 954 424 603 881 416 
118 162 887 392 106 984 670 79 690 
592 923 573 408 908 62 902 171 35 
331 856 990 121 341 374 785 633 548 
446 510 717 486 833 130 773 149 875 
233 890 722 461 258 606 933 20 738 
596 204 96 767 828 428 501 211 181 
731 647 644 308 443 243 531 691 931 
939 527 844 361 437 612 271 950 185 
100 744 770 83 137 886 483 213 555 
73 975 117 445 780 16 434 872 460 
625 795 729 406 896 675 899 12 267 
402 454 456 652 952 988 206 492 478 
724 748 838 219 516 22 262 293 120 
629 58 921 182 232 932 898 742 529 
794 167 816 895 146 970 346 967 511 
667 948 734 926 132 200 399 102 913 
626 383 703 523 658 951 72 393 624 
15 575 974 968 249 987 580 447 431 
86 294 242 403 485 313 93 321 310 
229 728 33 961 824 983 135 681 440 
650 524 618 572 539 247 343 459 651 
502 743 711 295 940 291 956 637 559 
314 18 661 671 843 487 205 61 298 
891 260 65 42 115 218 759 656 290 
222 623 401 141 904 80 827 958 811 
648 944 311 139 591 285 685 640 740 
935 126 472 481 957 613 2 867 195 
998 457 176 37 858 946 994 264 616 
344 760 977 822 859 386 574 697 668 
381 69 32 301 334 537 442 161 962 
764 727 832 347 852 627 755 749 710 
451 507 758 993 469 907 174 911 19 
342 84 380 536 1 693 802 736 909 
797 820 680 351 520 917 547 94 212 
183 955 628 849 76 197 808 546 850 
179 786 3 107 739 879 312 594 404 
897 337 494 919 482 407 677 839 916 
151 663 378 712 363 865 550 925 336 
602 959 747 662 113 720 101 68 436 
55 109 498 700 53 13 234 395 302 
676 845 631 669 150 493 733 622 963 
818 82 466 558 300 781 732 831 873 
377 643 601 866 152 276 489 45 355 
543 540 362 6 589 124 71 168 422 
695 604 390 253 848 718 207 708 683 
790 567 31 686 245 900 753 164 704 
610 122 553 435 223 317 448 97 184 
774 36 642 230 353 70 52 512 706 
705 429 303 470 535 92 388 793 588 
14 554 979 476 48 817 368 515 607 
701 116 170 279 178 274 396 90 54 
687 927 194 521 719 166 412 66 129 
8 854 936 716 29 679 484 373 906 
496 306 85 366 198 678 26 730 398 
371 
type 1 1000 int
1 2 1 1 2 2 2 2 1 
1 2 1 2 2 2 1 1 2 
2 1 2 2 1 1 2 2 1 
2 2 2 1 1 1 2 1 2 
1 1 1 2 1 1 2 2 1 
1 1 2 1 1 2 1 2 1 
2 2 2 1 1 1 2 2 2 
2 2 1 1 1 2 2 2 2 
2 1 2 1 1 2 1 1 1 
1 1 1 2 2 1 1 2 1 
1 2 2 1 2 1 2 2 2 
1 1 1 2 1 2 2 1 1 
2 1 2 2 2 1 1 2 1 
1 2 1 1 1 1 1 1 1 
1 1 2 1 2 2 1 1 1 
2 2 2 2 1 2 2 2 1 
2 1 1 2 1 2 1 2 1 
2 2 2 1 2 1 1 1 2 
2 1 2 2 1 2 1 1 2 
1 2 1 1 2 2 1 2 1 
1 2 2 1 2 2 2 1 1 
2 1 1 1 1 2 2 2 1 
2 1 2 1 2 2 2 2 1 
1 2 2 2 2 1 1 2 1 
1 2 2 2 1 1 2 2 1 
2 2 1 2 1 2 1 1 1 
1 2 2 2 1 1 2 1 1 
1 2 2 1 1 2 2 1 1 
1 1 2 2 2 2 2 1 1 
2 1 2 2 1 1 2 2 2 
2 1 1 2 2 2 1 1 2 
1 1 2 2 1 2 2 2 1 
1 1 1 2 1 1 1 2 1 
1 2 1 2 1 2 2 1 1 
2 1 2 2 2 2 2 1 2 
2 2 2 1 1 2 1 2 2 
2 2 2 2 2 1 1 2 2 
2 2 1 2 1 1 2 1 2 
1 1 1 2 2 2 1 1 1 
1 2 1 1 2 2 1 1 2 
1 2 2 2 1 1 2 2 1 
2 1 1 2 1 2 1 2 1 
1 1 1 2 2 1 2 2 1 
2 2 2 1 2 2 2 1 1 
1 2 1 1 1 1 1 2 2 
1 2 1 1 1 1 2 2 2 
1 1 1 2 2 1 1 2 1 
2 2 1 1 2 1 1 1 1 
1 1 1 2 2 2 2 2 1 
1 1 2 1 2 1 1 1 2 
2 1 2 1 1 1 2 1 1 
2 2 2 1 1 1 1 1 2 
1 1 1 1 2 1 1 2 1 
1 2 1 2 2 1 1 1 2 
2 2 1 2 2 1 2 2 1 
2 2 1 1 2 1 2 2 1 
1 2 1 2 2 1 2 2 1 
1 1 2 1 1 2 2 1 2 
2 2 2 1 2 1 2 1 1 
1 2 2 1 1 1 2 2 2 
1 2 2 1 2 1 2 1 2 
1 2 2 1 1 2 2 1 2 
2 1 1 2 2 1 2 1 1 
2 2 2 1 1 1 2 2 2 
2 2 2 1 1 2 1 2 1 
1 2 2 1 1 2 1 1 2 
1 2 1 1 2 1 1 2 1 
2 2 2 1 2 2 2 1 1 
1 1 1 2 2 2 1 1 1 
2 2 2 1 2 1 1 1 1 
2 1 2 1 1 2 2 2 2 
2 1 2 2 1 2 1 2 2 
2 2 2 2 1 1 1 1 2 
2 1 2 2 2 2 1 1 2 
1 2 2 2 1 2 2 1 1 
1 1 1 1 1 1 1 1 1 
1 2 1 2 2 2 1 2 1 
2 2 2 2 2 1 1 1 2 
2 2 2 1 2 1 2 2 2 
1 1 2 2 2 1 1 1 1 
2 1 1 1 1 1 2 2 1 
1 2 1 1 2 1 2 2 2 
2 2 1 1 2 1 2 2 2 
2 1 1 1 2 2 1 2 1 
2 1 1 1 2 2 2 1 2 
1 2 2 2 2 1 2 2 2 
1 1 1 1 1 2 1 1 2 
2 2 2 1 2 2 2 2 2 
1 2 2 2 1 2 1 2 1 
1 1 1 2 1 2 2 2 2 
2 2 2 1 2 2 2 1 1 
1 2 2 2 1 1 2 2 2 
1 2 1 1 2 2 1 2 1 
2 1 1 2 1 1 2 2 2 
1 2 1 2 1 2 2 2 1 
2 2 2 2 1 2 1 1 1 
1 1 1 2 1 1 1 1 1 
2 2 2 2 1 1 2 2 2 
2 1 1 2 1 2 2 2 2 
1 2 2 2 1 1 1 1 1 
2 2 1 1 2 1 1 1 1 
2 2 1 1 2 2 1 2 2 
2 2 1 2 1 2 2 1 2 
2 1 2 1 1 1 1 1 1 
2 1 2 1 1 1 1 2 2 
2 1 1 1 2 1 1 2 2 
1 2 2 1 1 2 1 2 2 
2 1 1 1 1 1 1 1 1 
2 2 1 2 2 1 1 1 1 
1 2 2 2 1 2 1 1 2 
1 1 1 1 1 2 1 2 1 
1 
i 3 1000 int
-103 0 0 -178 0 1 -54 0 0 
-71 0 1 -55 0 2 -10 0 0 
211 1 1 -65 0 1 176 1 0 
-44 0 0 -50 0 1 -32 0 1 
90 1 1 -111 0 1 150 1 0 
-97 0 0 -101 0 1 8 0 1 
-112 0 1 -106 0 0 102 1 -1 
-48 0 1 88 1 0 81 1 0 
172 1 0 -94 0 1 -19 0 0 
180 1 0 -26 0 1 -114 0 -1 
27 0 0 -100 0 0 -71 0 1 
-35 0 0 -59 0 1 -97 0 1 
-18 0 0 -86 0 0 -40 0 0 
-48 0 1 -84 0 2 -38 0 1 
-15 0 1 84 1 0 206 1 0 
-46 0 1 -102 0 1 0 0 0 
40 0 0 -44 0 1 50 0 0 
165 1 0 -47 0 1 -18 0 -1 
-131 0 1 -76 0 1 -34 0 0 
-107 0 1 -36 0 1 196 1 1 
111 1 0 -43 0 0 135 1 0 
150 1 0 -123 0 0 -33 0 1 
-39 0 0 -9 0 0 -54 0 1 
-32 0 0 -17 0 1 203 1 0 
-30 0 1 17 0 0 -132 0 0 
264 1 1 2 0 1 13 0 0 
150 1 0 -57 0 1 5 0 0 
179 1 0 -88 0 1 -101 0 1 
-23 0 0 -48 0 1 126 1 0 
-55 0 0 -71 0 1 -48 0 1 
132 1 0 23 0 0 212 1 0 
-97 0 1 -16 0 1 -41 0 0 
-83 0 0 -22 0 1 -64 0 1 
139 1 -1 100 1 0 -122 0 1 
-59 0 1 -59 0 1 -20 0 0 
70 1 0 -121 0 0 138 1 -1 
-20 0 0 156 1 1 -83 0 0 
21 0 0 -61 0 0 -39 0 0 
125 1 -1 -11 0 1 -86 0 0 
-14 0 0 190 1 0 97 1 -1 
-148 0 0 146 1 0 -71 0 0 
-134 0 0 89 1 -1 113 1 -1 
-129 0 0 1 0 0 -98 0 0 
52 0 -1 -81 0 0 -81 0 0 
-91 0 0 223 1 0 242 1 1 
55 0 0 -77 0 0 -6 0 0 
27 0 1 48 0 0 28 1 -1 
70 0 0 100 1 0 -58 0 1 
33 0 -1 31 0 -1 20 0 -1 
-36 0 0 3 0 0 181 1 -1 
-93 0 0 -68 0 0 132 1 0 
-9 0 -1 -141 0 0 -82 0 0 
-44 0 0 10 0 0 0 0 -1 
-123 0 0 -16 0 0 -49 0 0 
-37 0 0 -37 0 0 -122 0 0 
-8 0 0 160 1 0 18 0 0 
107 1 0 152 1 0 -53 0 0 
146 1 0 -88 0 0 -92 0 1 
162 1 -1 -38 0 -1 -35 0 0 
-1 0 -1 38 0 0 11 0 0 
-44 0 0 -234 -1 0 47 0 0 
43 0 0 19 0 0 -38 0 0 
-43 0 0 -85 0 0 -75 0 0 
16 0 -1 -128 0 0 178 1 0 
-10 0 0 239 1 0 163 1 0 
-23 0 -1 -43 0 0 23 0 0 
16 0 -1 4 0 0 127 1 -1 
133 1 0 -182 0 0 -14 0 -1 
-83 0 -1 -102 0 0 -47 0 0 
-75 0 0 -30 0 1 -32 0 0 
82 1 -1 234 1 -1 -74 0 0 
102 1 -1 -15 0 1 -196 0 -1 
3 0 0 -91 0 -1 134 1 -1 
-75 0 0 -10 0 0 -18 0 0 
-15 0 0 8 0 0 40 0 -1 
-78 0 1 21 0 -1 -147 0 -1 
-39 0 0 -38 0 0 7 0 0 
-100 0 -1 -131 0 -1 -65 0 0 
-14 0 0 -45 0 0 -34 0 0 
-93 0 0 -9 0 -1 -20 0 0 
153 1 0 18 0 0 24 0 0 
-35 0 -1 -42 0 0 97 1 -1 
74 1 0 -87 0 -1 -70 0 0 
38 0 0 -5 0 0 -190 -1 0 
-182 -1 0 -187 -1 0 69 0 0 
142 0 0 123 0 1 158 0 1 
-114 -1 0 -100 -1 0 -20 0 0 
224 1 0 15 0 0 -150 -1 0 
-132 -1 0 -93 -1 1 -147 -1 2 
24 0 0 95 0 1 -282 -1 0 
101 0 -1 -101 -1 1 9 0 0 
77 0 -1 31 0 0 52 0 0 
-14 0 1 -201 -1 0 -16 0 0 
-147 -1 0 -9 0 0 72 0 -1 
-59 0 1 -3 0 0 28 0 1 
-17 0 0 -28 0 1 -267 -1 0 
71 0 0 -30 0 0 -102 -1 1 
40 0 1 -18 0 1 157 0 1 
119 0 1 19 0 1 44 0 -1 
-109 -1 -1 -196 -1 -1 -150 -1 0 
-12 0 0 52 0 1 124 0 0 
59 0 0 -197 -1 1 97 0 -1 
54 0 0 -6 0 0 -164 -1 1 
-93 -1 1 -195 -1 0 121 0 0 
42 0 0 70 0 0 164 0 1 
67 0 0 -56 -1 0 -127 -1 0 
52 0 0 39 0 1 11 0 0 
62 0 0 -16 0 1 0 0 0 
159 1 0 -191 -1 1 73 0 0 
-87 -1 0 52 0 0 17 0 0 
72 0 0 81 0 0 56 0 0 
45 0 0 13 0 0 158 0 -1 
118 0 0 -173 -1 0 -168 -1 -1 
35 0 -1 -147 -1 -1 43 0 -1 
26 0 0 53 0 -1 -98 -1 1 
288 1 0 -151 -1 1 138 0 0 
-194 -1 -1 99 0 0 -110 -1 0 
71 0 0 -67 -1 1 69 0 -1 
57 0 0 47 0 0 127 0 1 
-28 0 0 -23 -1 1 72 0 0 
23 0 0 -177 -1 -1 72 0 0 
-164 -1 0 -3 0 0 64 0 0 
56 0 0 54 0 0 31 0 0 
60 0 -1 28 0 0 83 0 0 
118 0 1 -240 -1 -1 19 0 0 
78 0 0 50 0 1 31 0 0 
44 0 0 -146 -1 0 6 0 0 
47 0 0 31 0 0 -128 -1 1 
-14 0 0 293 1 0 117 0 1 
111 0 -1 91 0 1 12 0 -1 
111 0 0 -105 -1 0 46 0 -1 
80 0 0 -96 -1 0 113 0 0 
93 0 0 110 0 -1 -150 -1 0 
-227 -1 0 -17 0 -1 39 0 0 
-122 -1 -1 60 0 -1 -107 -1 0 
28 0 0 76 0 -1 45 0 0 
96 0 0 -36 0 0 53 0 0 
-153 -1 0 125 0 0 21 0 -1 
69 0 -1 131 0 0 90 0 0 
-219 -1 0 -131 -1 -1 38 0 0 
38 0 0 60 0 0 111 0 -1 
2 0 0 72 0 -1 30 0 0 
42 0 0 196 1 -1 54 0 0 
74 0 0 1 0 0 -170 -1 0 
62 0 0 -2 0 0 0 0 -1 
132 0 -1 71 0 1 23 0 -1 
48 0 -1 -95 -1 -1 -97 -1 0 
49 0 -1 15 0 0 95 0 1 
83 0 0 34 0 0 -130 -1 0 
120 0 -1 123 0 -1 36 0 0 
-29 0 0 37 0 -1 18 0 0 
-132 -1 0 -82 -1 0 144 0 0 
-90 -1 0 -111 -1 0 64 0 -1 
91 0 -1 -185 -1 0 58 0 -1 
115 0 0 -89 -1 0 -68 0 0 
126 0 0 14 0 -1 52 0 0 
40 0 0 -150 -1 -1 -115 -1 0 
64 0 -1 2 0 -1 41 0 -1 
58 0 -1 40 0 -1 5 0 -1 
-18 0 0 -100 -1 0 -133 -1 -1 
95 0 -1 52 0 0 -115 -1 0 
-182 -1 0 16 0 -1 65 0 0 
6 0 -1 35 0 -1 11 0 0 
-20 0 0 23 0 0 -39 0 -1 
-95 -1 -1 -39 -1 -1 90 0 -1 
181 1 1 39 0 1 138 1 0 
-15 0 0 125 1 0 51 0 0 
152 1 1 -47 0 1 -126 0 0 
113 1 0 -36 0 0 -97 0 1 
-47 0 1 156 1 0 -14 0 1 
154 1 0 -14 0 0 -80 0 0 
141 1 1 107 1 0 111 1 0 
-12 0 0 -46 0 0 144 1 1 
-50 0 1 -83 0 1 89 1 0 
-23 0 0 118 1 0 -91 0 1 
-8 0 0 -69 0 1 -47 0 0 
184 1 1 -27 0 0 -116 0 2 
-7 0 0 -133 0 1 5 0 0 
172 1 0 18 0 0 -22 0 1 
236 1 1 -130 0 1 -94 0 1 
-37 0 1 -41 0 0 -72 0 1 
141 1 1 5 0 0 -35 0 0 
-67 0 0 -11 0 0 -22 0 1 
-89 0 1 -28 0 0 -97 0 0 
202 1 0 -92 0 1 -115 0 -1 
-16 0 0 -171 0 0 176 1 1 
-64 0 1 -126 0 1 -80 0 0 
-76 0 1 -40 0 1 -65 0 1 
119 1 0 115 1 0 79 1 0 
246 1 0 -78 0 0 242 1 1 
-55 0 1 86 1 0 -56 0 0 
-57 0 0 125 1 0 27 0 0 
-40 0 0 18 0 0 115 1 0 
-39 0 0 -87 0 0 -8 0 1 
-51 0 0 19 0 -1 13 0 0 
-15 0 0 113 1 0 -47 0 0 
133 1 0 -148 0 0 229 1 0 
116 1 0 184 1 1 -24 0 0 
40 0 0 152 1 1 -129 0 0 
-23 0 0 -135 0 0 -97 0 0 
-83 0 0 -5 0 0 -14 0 0 
-23 0 0 -74 0 0 149 1 1 
-61 0 1 -9 0 -1 -46 0 0 
-115 0 -1 -83 0 0 -129 0 0 
-143 0 0 155 1 0 -38 0 0 
-16 0 0 26 0 0 28 0 0 
-56 0 1 -132 0 0 -6 0 1 
-167 0 0 156 1 -1 9 0 1 
13 0 -1 -91 0 1 103 1 0 
-142 0 0 -116 0 0 -125 0 -1 
-136 0 -1 48 0 -1 -59 0 1 
54 0 -1 -64 0 1 -57 0 0 
-44 0 0 4 0 -1 -13 0 0 
26 0 0 138 1 -1 -4 0 0 
-75 0 0 -7 0 0 168 1 -1 
168 1 0 138 1 -1 -21 0 -1 
-40 0 0 190 1 0 -55 0 0 
94 1 0 61 0 0 -122 0 0 
-106 0 -1 -3 0 -1 -7 0 0 
-40 0 -1 -62 0 0 -129 0 0 
-97 0 1 -38 0 0 -37 0 0 
145 1 0 53 1 -1 26 0 -1 
-80 0 1 106 1 -1 279 1 0 
184 1 0 -70 0 1 133 1 0 
144 1 0 57 0 0 -82 0 -1 
-29 0 1 73 0 0 -236 -1 0 
-1 0 -1 -90 0 1 -122 0 -1 
93 1 -1 -3 0 -1 33 1 0 
-100 0 0 24 0 0 193 1 0 
-4 0 0 6 0 0 13 0 -1 
-1 0 -1 22 0 0 17 0 0 
-35 0 0 -47 0 1 -61 0 1 
-68 0 0 -93 0 0 -144 0 0 
-42 0 0 19 0 0 26 0 -1 
-118 0 0 -52 0 0 84 1 -1 
90 1 -1 16 0 -1 -93 0 0 
-74 0 0 -73 0 1 -125 0 0 
-73 0 0 -34 0 0 -53 0 -1 
-15 0 0 -20 0 0 -101 0 -1 
-121 0 -1 -112 0 0 -101 0 -1 
26 0 -1 -110 0 0 -41 0 0 
-70 0 0 88 1 -1 18 0 -1 
-55 0 -1 -79 0 0 140 1 0 
188 1 0 -50 0 0 56 0 -1 
-40 0 0 93 1 -1 -35 0 0 
-43 0 0 149 1 1 25 1 0 
167 1 0 -77 0 0 -17 0 0 
-32 0 0 -210 -1 0 80 0 -1 
24 0 0 -106 0 0 -55 0 0 
-47 0 0 149 1 -1 12 0 0 
72 0 -1 48 0 -1 -36 0 0 
-28 0 0 23 0 0 -152 -1 1 
-132 0 1 24 0 0 58 0 1 
-243 -1 0 -13 0 0 63 0 0 
64 0 0 -22 0 0 -33 0 1 
63 0 0 -52 0 1 88 0 0 
-75 -1 1 -150 -1 1 79 0 0 
0 0 1 -27 0 0 -6 0 1 
34 0 1 -69 -1 1 164 0 0 
68 0 0 61 0 0 105 0 1 
9 0 0 -1 0 1 -102 -1 0 
-45 0 1 -33 0 1 -19 0 0 
-13 0 0 -141 -1 1 -12 0 0 
-46 0 0 -165 -1 1 92 0 0 
14 0 1 -109 -1 0 -5 0 0 
31 0 1 125 0 0 -85 -1 0 
67 0 -1 -165 -1 -1 -78 -1 0 
-18 0 1 107 0 1 -44 0 1 
-136 -1 0 -172 -1 -1 37 0 0 
17 0 1 -200 -1 2 -58 -1 1 
155 0 0 -101 -1 0 -117 -1 0 
-17 0 1 62 0 0 34 0 0 
59 0 0 -12 0 0 167 0 0 
80 0 -1 9 0 1 34 0 1 
23 0 1 99 0 1 78 0 0 
82 0 0 20 0 0 87 0 1 
104 0 0 -118 -1 1 51 0 0 
-167 -1 1 16 0 0 137 0 1 
-1 0 1 -98 -1 1 7 0 0 
33 0 0 118 0 0 18 0 0 
-84 -1 0 24 0 0 24 0 0 
-16 0 1 -37 0 1 -77 -1 0 
-21 0 0 63 0 0 -125 -1 0 
80 0 0 30 0 -1 -76 -1 -1 
49 0 0 88 0 0 91 0 0 
127 0 0 111 0 0 -162 -1 0 
-60 -1 1 43 0 -1 32 0 -1 
-86 -1 0 95 0 0 58 0 0 
89 0 0 31 0 0 166 0 0 
79 0 0 30 0 0 12 0 -1 
-61 0 0 85 0 0 98 0 0 
112 0 -1 -26 0 0 27 0 0 
-219 -1 0 74 0 -1 168 0 0 
116 0 -1 43 0 0 71 0 0 
121 0 0 42 0 -1 74 0 0 
51 0 0 90 0 -1 131 0 0 
-203 -1 1 65 0 0 -128 -1 0 
-200 -1 1 -5 0 1 78 0 0 
28 0 -1 33 0 0 -154 -1 0 
76 0 -1 74 0 0 109 0 0 
-117 -1 0 -183 -1 0 37 0 0 
16 0 -1 58 0 0 103 0 0 
67 0 0 26 0 0 -212 -1 -2 
62 0 0 75 0 1 79 0 -1 
-167 -1 0 -161 -1 1 -154 -1 0 
143 0 1 -113 -1 0 37 0 -1 
-137 -1 0 21 0 0 122 0 0 
40 0 -1 -36 0 0 -111 -1 0 
62 0 0 43 0 -1 93 0 -1 
43 0 -1 83 0 0 -212 -1 1 
38 0 -1 -3 0 -1 -8 0 0 
5 0 0 9 0 0 52 0 0 
-126 -1 0 -164 -1 -1 -185 -1 0 
94 0 0 91 0 0 69 0 0 
154 0 0 40 0 -1 62 0 0 
-110 -1 0 -11 0 0 132 0 0 
70 0 -1 104 0 0 42 0 0 
-139 -1 0 129 0 -1 52 0 0 
14 0 0 -145 -1 -1 80 0 0 
-55 -1 0 72 0 -1 28 0 -1 
4 0 -1 -164 -1 -1 72 0 0 
65 0 -1 30 0 0 111 0 -1 
317 1 -1 33 0 -1 -153 -1 -2 
-30 0 0 50 0 -1 54 0 0 
131 0 0 21 0 0 -198 -1 -1 
-55 -1 0 133 0 0 27 0 -1 
-180 -1 0 -50 -1 0 -138 -1 -1 
53 0 0 12 0 -1 9 0 0 
-42 0 -1 92 0 -1 -26 0 -1 
31 0 0 -116 -1 -1 76 0 -1 
90 0 -1 78 0 -1 72 0 0 
-11 0 0 -13 0 0 13 0 -1 
129 0 -1 -127 -1 -1 77 0 -1 
-32 0 0 
v 3 1000 double
-290.36086465 -3.6593433208 -9.6985931433 -505.58186131 14.719699503 -20.19033375 -404.78877717 -3.7451607277 -16.258903163 
-339.51018829 -2.9836812477 -20.295439192 -280.15245724 -33.031133961 -8.2053921255 -258.09973249 -32.618513568 -0.088696047305 
-260.69899575 11.593318377 30.737813717 -394.27491708 -17.408659315 27.435732666 -291.81641996 6.9431831961 15.961704178 
-178.33379544 -6.0610627039 16.683507014 -449.59384702 -34.519191611 12.853136231 -141.2626587 11.738265441 12.439523376 
-422.26940221 8.9230280655 -12.348544241 -361.6131796 0.29098869162 21.187645885 -253.69050309 20.279875592 14.62447991 
-333.00430533 1.2946029362 -16.074646387 -452.00934871 -7.9194991978 19.089801837 -167.47834694 8.4972709648 -11.860924013 
-276.61428036 -23.987761724 -20.194030179 -389.9164621 17.438692529 28.607134552 -449.13384661 -21.01941165 28.044252771 
-63.143681866 4.7527455941 14.608807538 -482.90231477 -0.60557339407 19.78878845 -263.68232287 2.821984825 -6.3307969708 
-261.85521922 6.120421044 0.22987721349 -334.33810973 11.40203923 2.7857890002 -152.40879021 -2.6153328376 8.2475888142 
-479.8982476 -7.2708875447 -0.089285890162 -93.457506162 -4.481154054 15.562347569 -249.45958456 -11.021330287 -18.97401008 
-82.163433285 22.315967461 3.6547392178 -221.02820341 -4.3582769809 -11.728069678 -132.8532498 9.4437364353 -3.1375379832 
-172.05132609 3.9480125953 -21.958847947 -139.58346809 2.6629368657 -25.91793446 -331.05621871 -3.0102941203 -6.844613819 
6.8427382889 -0.19574748523 -32.736102342 -395.97974406 -15.063573341 3.7146730723 -261.36342267 9.2500718441 -11.085019816 
-95.595617995 1.4916513896 7.318168478 -293.30248136 -13.733974336 1.1873135592 -15.693326603 -0.59100518811 19.857566989 
6.4527572009 -7.7688459662 28.773065297 -447.45964642 -32.006454132 -11.03432668 -158.94776614 -2.4702942614 7.2168203659 
-82.698737494 -5.544355469 2.7819164219 -450.86469167 9.3406344118 -10.528287163 -237.3363766 -7.3251676599 -0.3231406012 
-80.517043531 9.3421483481 -14.386483912 -196.68818214 11.087156448 8.8337408623 -94.961779813 6.2721936006 5.95001241 
-349.86075475 -7.3973822629 -27.447424375 -264.48036182 -1.7603833547 39.112021784 -200.83519344 -12.08837255 -1.5185487592 
-284.08979477 12.604081352 -6.269912629 -441.68314054 -8.2021648309 8.5498217551 -90.996723302 -16.378937742 -12.228330827 
-420.97940583 -1.7181680459 -9.3536033258 -126.12091227 4.7306940114 -10.798888872 -372.46114013 -11.585862127 28.238704815 
-449.18548699 -4.1482359597 25.660326466 -274.07076962 -22.127207865 -12.155781159 -380.19051609 -3.9715497152 -1.1398548992 
-301.00397092 -1.878227009 -10.525561152 -351.33136122 -6.3636745369 11.254161033 -322.73967891 -9.7407711976 -5.3602538326 
-297.47786194 10.105574428 17.208685564 -169.81655976 -26.899635885 5.8012720316 -211.01943813 21.462284947 16.605329237 
-193.09085238 -14.103439854 19.297536248 -298.36104154 12.776221193 19.156861731 -299.50655379 15.185073169 19.510371038 
-123.42876626 4.2942955169 22.874799412 -197.30183385 12.202136227 -5.7209160155 -335.04165468 1.5370338831 -25.488815193 
7.6198596366 7.2342288893 13.641353773 -190.09126365 5.0706528297 -7.0743604029 5.5932657785 -31.75933762 11.172022584 
-360.90777841 -2.4061341157 -1.8242278657 -430.48709541 -16.464099209 -13.558325343 -87.056858366 13.298619913 -23.620988967 
-415.79729518 -5.8622253147 16.270369819 -7.3571385445 -0.44171100694 -13.629450918 -334.51215456 -10.374782687 -1.5095953339 
-187.78340747 0.1482321919 -1.8908159665 -116.96139831 9.5823874171 -23.46098472 -203.39714367 6.5115466364 6.2943935098 
-212.09051701 -3.2658716089 7.4730509584 -129.75881888 0.70468228803 2.1547524294 -443.87697017 -17.439095561 -17.941731233 
-521.0178295 17.864123761 2.8103409154 13.502610954 2.808507323 14.187491731 -71.028372862 -2.5342343844 -7.6338638471 
-391.32747988 5.505195091 -21.221538407 -318.29557417 -3.17831316 -6.2202807242 -312.44971382 3.334897018 22.529571783 
-300.82312175 3.4060394651 -7.3156616308 -118.50373446 13.340006603 -16.738898888 -132.91107345 19.261030645 26.115475226 
-204.17001854 -5.4762871294 -10.104583411 -298.73511742 4.1603887758 -39.604473781 -386.79501611 -3.3292161399 -28.81239191 
-25.449095192 12.435356332 6.9528847401 -101.46865318 -0.7424606685 24.69463909 -283.88193755 -22.100624196 -17.225368252 
-371.26873667 -7.8095313595 -10.748675947 -353.90893697 -2.1295340184 -4.3248918706 -517.18393227 12.119651914 -1.2790245483 
-210.62631032 -4.7174307699 -17.421268928 -237.28486069 -3.8268214186 -6.8707497938 -385.08815383 5.4178058419 -12.798364313 
-119.48370166 8.3507457309 -8.1987080409 -211.1158665 -5.9216908029 -4.1516302341 -337.80733098 43.570226797 -3.2578962861 
-257.40063792 23.034410456 -20.886099929 -266.35580053 -12.95558623 19.554833166 -229.30579018 20.584317895 4.6393033044 
-115.93414384 22.712263803 -12.202434692 -463.91759155 5.2015471586 -2.0482176964 -338.61627984 6.8713043952 6.7066128407 
-431.34794817 9.9035259807 -2.2530246692 -343.40815107 9.400821824 -16.898074514 -372.53278222 8.4922867851 -15.854211141 
-531.54087655 1.8075312157 18.60703928 -427.4206094 -22.539014722 -13.415444603 -374.44865887 -8.6892539271 -3.9784147862 
-442.39946513 8.9233843219 -6.2117924303 -69.317897396 5.7801435119 -15.628398885 -227.49837175 3.4717567114 9.6275076165 