# vtk DataFile Version 4.2
Generated by LIGGGHTS
ASCII
DATASET POLYDATA
POINTS 1000 float
2.12098 0.674361 1.93 0.998858 0.0989936 0.638573 2.69734 1.86727 1.03063 
2.69543 0.129124 0.447584 0.123421 1.60182 1.03257 2.14715 1.79677 1.77045 
4.26673 0.247339 1.62639 0.112034 1.34486 1.88924 4.40684 3.47357 0.330748 
3.59318 3.99993 1.42734 0.87891 3.49241 1.65909 1.23968 1.20746 1.0039 
4.80447 0.791154 0.187019 2.26382 3.08349 1.91026 1.66257 0.939093 0.28987 
0.700564 2.14189 1.63716 0.666362 0.774323 1.82219 0.574401 2.73496 0.905442 
2.31847 0.919305 0.872166 1.32243 2.42778 0.910276 0.67483 0.591428 0.107419 
1.92964 2.88563 0.0613558 1.53568 3.21073 1.76051 0.460853 0.106652 1.20016 
0.439616 2.38972 0.225738 2.08048 3.00692 0.981112 3.35876 2.42058 0.298174 
3.22286 1.04653 0.347584 1.76693 4.39144 1.60519 0.73895 1.48834 0.330061 
4.55736 4.57194 0.767585 1.69476 1.74524 0.239558 2.00335 2.14216 0.922034 
2.04982 3.8185 0.891404 1.39294 0.937888 1.77138 2.77123 4.43575 1.61861 
0.864965 3.72559 0.65451 4.46867 3.93254 1.446 2.50747 4.80582 0.782682 
0.105831 2.94423 1.44069 3.77154 2.66612 1.40658 3.40058 0.897495 1.39596 
3.6027 1.84361 0.355046 2.96674 3.84907 0.554665 4.5634 2.45609 0.636893 
0.729555 4.38214 1.76766 2.90033 2.84501 1.32334 3.70169 0.374933 0.480696 
4.57238 2.62861 1.61216 3.77695 3.03744 0.0451702 2.69297 2.31058 0.338909 
0.333547 4.59094 1.07487 1.78117 4.74847 0.0506978 3.21523 1.81656 1.63116 
4.92569 1.85732 1.6279 4.94697 0.16127 0.938203 4.92709 3.38427 0.929435 
2.36841 0.79991 2.8628 0.409391 2.69396 3.63005 4.19311 0.513575 2.6871 
2.12054 3.56081 3.44241 0.914218 0.602358 2.74293 1.74651 4.31106 3.93048 
1.63742 1.33567 3.24464 0.589121 0.465151 3.84352 0.838039 2.66122 2.28427 
0.905392 1.61945 3.68599 3.51649 2.15173 3.04904 4.06293 3.50691 3.62847 
1.87599 2.47453 2.59428 2.30717 0.899707 3.85328 0.00667742 1.81278 3.45205 
4.34403 2.72755 3.02766 1.11798 2.83837 3.02837 1.60404 2.63466 3.7729 
4.3203 1.87235 3.36004 2.23919 4.56245 2.4778 0.0121351 0.688206 2.50888 
0.415063 1.64239 2.72286 1.60598 3.72437 2.5975 3.68755 4.86118 3.11895 
1.10977 3.63048 3.47342 2.8347 1.60112 2.39062 0.802095 4.08339 2.76524 
3.10847 3.38443 3.47934 3.49489 1.4733 3.66415 3.66517 1.33654 2.71461 
4.05742 4.2199 2.27403 4.01083 2.69253 3.76121 4.50739 0.0048585 3.7372 
2.73657 2.40858 2.99383 0.164325 4.6321 3.58446 3.3404 2.64414 2.28588 
2.55587 2.10451 3.90014 0.616914 4.86021 2.83885 3.80513 3.58468 2.82491 
0.245031 3.28231 2.35361 4.34756 4.31158 3.38987 4.30048 1.21898 2.15455 
4.79963 1.22022 3.3544 2.89714 3.2671 2.40085 3.0449 0.325207 3.59299 
3.94149 0.402492 3.55601 4.03585 2.21054 2.30779 4.72763 3.53583 2.70328 
4.94032 2.27574 2.44814 4.62188 4.33181 5.17935 2.44367 2.74496 5.88535 
0.764451 1.20101 4.98362 2.31072 2.57172 4.92312 1.71975 4.3171 5.96816 
1.94975 1.55409 5.7756 0.732099 2.95767 5.02003 3.90964 0.936996 4.22828 
1.62084 3.04262 4.82554 1.67164 0.624863 5.98489 0.630561 1.17337 5.85854 
2.12781 1.0865 4.97905 1.04455 3.19859 4.15947 1.74829 0.167915 5.18125 
1.99308 3.56919 5.62163 1.3506 0.643 4.57325 4.80604 1.5951 4.31382 
1.95945 3.97246 4.75476 4.71848 0.753719 5.19177 1.8198 1.52594 4.26151 
1.11866 2.00758 4.54426 0.13694 0.430655 5.42627 4.83173 0.727692 4.24489 
1.27565 1.99696 5.497 3.76302 4.52076 4.3426 0.511358 2.14423 5.18474 
3.96555 2.58618 5.21031 4.75751 3.18466 5.61767 3.61111 2.1743 4.36932 
3.54454 3.13515 4.38198 0.870134 4.46933 4.05271 2.77648 3.56942 5.28139 
0.438084 4.58818 5.78273 3.30396 2.54402 5.85913 0.499948 2.9387 5.93419 
2.9638 3.77816 4.44815 4.27704 1.91491 4.51141 0.670753 4.23628 4.88992 
4.59165 2.24103 5.91925 4.08974 1.33825 5.23554 4.13863 4.97549 5.97172 
4.24694 4.0383 4.33404 4.34538 0.760999 5.92557 4.8774 2.84754 4.873 
4.9968 0.0703813 4.97343 1.62219 2.6111 6.9478 4.90409 1.02512 7.52089 
2.23035 3.31362 7.89212 2.0243 0.373897 6.73477 0.473059 0.573457 6.52484 
2.97094 2.75999 6.72046 3.26407 1.61027 6.33556 4.41857 3.96262 7.81846 
1.29771 3.32739 6.98571 4.41192 4.76542 7.53576 0.806554 2.57578 7.53795 
1.67629 1.40641 7.84253 3.90012 4.27907 6.68504 1.904 1.01966 7.18602 
3.6833 1.03688 7.36385 0.417109 2.09754 6.10757 1.7448 1.88122 6.41459 
1.37552 2.986 6.06896 4.85209 4.45811 6.88756 4.79096 1.51754 6.80815 
2.42958 2.52113 7.50962 0.889687 0.133259 6.98286 0.503455 1.62146 6.97375 
2.50992 0.410943 7.52807 1.06003 1.26404 7.4051 2.23734 4.99448 6.57888 
0.100128 2.29136 7.0249 1.02498 4.13166 6.41079 3.88199 3.09167 7.8046 
3.33324 3.50455 6.1576 4.32746 3.40203 6.71052 3.13011 2.28958 7.73415 
3.58048 3.49005 7.21377 2.08256 4.99086 7.77285 0.294106 3.67284 6.07729 
3.55609 0.121115 7.67674 2.95433 0.648514 6.665 0.343345 3.8833 7.05151 
1.22022 4.93106 7.3283 3.04704 4.48244 6.32417 3.04662 4.02656 7.41106 
2.78896 4.78971 7.2615 -0.00356156 4.38148 6.46503 4.49035 4.2336 6.04114 
2.89475 1.34252 7.31487 1.35627 4.02814 7.51578 2.8168 1.86904 6.80719 
4.86404 0.689212 6.46722 2.82602 3.03405 9.98263 0.554906 2.57004 8.47849 
0.821962 1.02167 8.39117 1.95361 4.01611 8.25977 2.49993 1.47334 8.0508 
0.293881 1.96933 9.56436 1.98761 3.23755 8.81031 4.55463 1.91855 8.6097 
1.36867 0.0108712 9.09442 1.86616 0.581035 9.6866 3.34063 4.17738 8.99728 
2.52739 0.552744 9.21246 1.53605 1.97781 9.3268 1.71506 3.82697 9.89476 
4.16763 4.57014 8.70245 1.66743 0.119041 8.14593 0.696342 1.72655 8.89132 
3.31726 1.06409 8.30543 1.82677 0.822558 8.57836 2.12753 2.07544 8.32983 
1.42085 1.07029 9.09752 3.76721 1.24125 9.63959 4.7785 2.93228 9.79051 
3.05936 2.11131 9.49256 1.60132 4.42423 8.97809 2.81075 4.41321 9.65499 
2.7058 2.25772 8.9087 2.58962 1.3508 8.87078 3.71459 1.84044 9.14755 
3.82674 0.355892 9.51571 0.247313 4.67074 8.85664 3.52413 3.60096 9.57812 
0.0295086 3.40757 8.62337 0.807036 4.38629 8.12399 4.17854 2.54909 8.31026 
3.47552 3.01289 8.66858 4.347 2.1228 9.79263 1.17636 2.03973 8.03535 
4.36282 3.60319 9.41471 4.0268 3.76542 8.69136 2.86608 4.39366 8.26632 
4.22184 1.24343 8.06521 4.042 0.53246 8.6721 2.99705 3.24937 8.05664 
2.80577 3.09598 9.13364 4.53733 4.46463 9.75847 4.77436 0.304986 8.46038 
3.3199 9.12267 1.82722 0.774879 8.76924 1.49003 4.21326 6.94544 0.538559 
3.53501 7.35136 1.11606 1.3084 9.77755 0.140343 2.70743 8.1466 1.46299 
2.53608 5.86608 0.926139 2.06462 5.79199 0.0530438 2.72367 7.14617 1.51678 
0.623993 6.18695 0.298339 0.282604 8.86175 0.692887 3.73492 6.57629 1.64538 
2.8533 7.05809 0.485005 1.64541 9.95036 1.08828 0.288716 9.43914 1.61627 
4.03336 5.40507 0.309194 2.81339 5.36232 1.72053 1.58015 6.2869 0.340574 
3.52477 8.25725 0.988102 3.56274 8.91851 0.328513 2.77997 7.97873 0.394831 
3.82832 5.43792 1.44587 0.841112 6.34935 1.27215 1.15608 7.05928 0.937618 
2.11607 6.05412 1.84331 4.19404 7.81608 0.319374 0.00323395 5.33844 1.13795 
0.711521 5.78177 1.79034 1.58015 6.99441 1.93439 1.43246 5.42 1.55637 
2.61689 9.61378 1.42673 1.85336 9.67433 1.92606 1.22661 7.89405 0.818917 
1.28777 8.7135 0.818477 2.02378 7.01775 0.696892 1.23055 8.40635 1.96996 
0.834339 5.46436 0.788905 1.91161 7.97804 1.71731 1.684 9.19465 0.178456 
4.59477 8.66796 0.335815 3.68761 8.39512 1.92898 0.616068 7.15022 0.157461 
2.0213 7.86897 0.874049 4.88563 5.40577 0.206165 4.88985 8.96259 1.13775 
1.73731 9.53991 3.55107 3.78672 9.80686 2.34031 2.44711 9.4797 3.65661 
3.25907 7.58343 2.30391 0.720625 8.40027 3.88684 1.60778 5.74482 3.00607 
4.47191 8.50796 2.3787 2.66548 8.76616 3.5255 3.34748 9.58235 3.25207 
2.95792 9.7073 2.46301 0.122146 9.10405 2.83412 3.06012 6.49791 3.20042 
3.83307 7.72905 3.881 2.8668 5.36752 3.16491 4.36092 7.13493 3.72536 
3.92372 9.00306 2.86771 4.08199 7.40279 2.20324 4.62317 5.21926 3.5622 
3.94986 8.54168 3.89433 1.34135 9.82779 2.63078 0.296663 7.62885 3.45727 
1.85567 6.8392 3.36448 1.0444 9.83546 3.5776 2.05086 5.10441 3.58181 
0.249166 5.46976 3.1359 1.50146 7.97595 2.62282 2.39242 7.57206 2.40614 
0.512756 7.38216 2.68437 1.35314 7.74049 3.51078 2.52202 6.82183 2.56627 
2.20836 9.01901 2.34438 2.4587 8.3199 2.35962 0.249963 6.17939 3.85864 
4.27398 6.00261 2.06411 0.146641 6.04563 2.2932 3.61411 5.29599 3.99232 
4.37891 5.02653 2.02359 1.49864 8.73984 3.05203 0.974306 6.77474 3.27449 
2.41361 8.00588 3.25306 0.662655 6.86584 2.06681 1.2992 6.25493 2.38796 
0.54851 6.98951 3.9923 3.32705 8.05695 3.13053 2.03273 5.28143 2.55375 
4.54494 7.22315 2.93973 4.2224 6.05391 3.61486 4.82368 9.88814 2.9278 
4.81734 9.08037 3.40824 4.11234 9.33068 4.10664 1.41683 9.37262 5.82207 
2.80411 5.1243 4.45801 3.58958 6.44844 5.94188 3.24021 8.94612 5.20281 
2.97311 7.51882 5.26924 0.708846 9.93244 5.04045 1.00626 9.0785 4.43402 
0.891991 6.29886 4.16637 3.1226 9.23986 4.27133 0.0260847 9.73067 5.87355 
0.277081 9.05949 5.26206 4.189 7.5122 5.53915 4.8068 5.17059 4.43438 
0.387788 9.43737 4.22247 4.6214 6.80293 5.54657 3.64109 9.85341 5.06815 
2.75725 8.31036 4.35052 0.501949 8.31053 5.05612 4.35358 5.14173 5.04059 
3.81663 8.63577 5.83854 4.26678 6.57272 4.50782 3.10686 6.932 4.37028 
3.6204 8.24088 4.87352 1.90168 5.39269 4.46282 2.98201 8.21392 5.85941 
0.872937 7.68777 5.18693 4.15727 5.81374 5.6845 0.562041 5.83612 4.97974 
2.34116 8.0454 5.11553 1.40897 6.04815 4.83768 4.20545 9.28586 4.97948 
1.96479 7.19851 5.42779 1.87104 8.9364 4.6062 0.171707 6.30748 5.70129 
2.1774 6.90136 4.57053 0.112253 5.17117 5.35679 4.74838 6.06014 4.96231 
1.30659 5.64187 5.91252 2.15232 6.44117 5.4179 0.323489 7.58723 4.46027 
0.630407 6.8153 5.01066 2.2373 8.56321 5.97429 2.22631 5.71769 5.9133 
2.00901 7.585 4.01499 0.448645 5.41429 4.11513 0.598268 5.84147 5.94925 
2.77163 9.89048 4.57972 2.94895 6.266 5.11908 3.46048 6.33125 4.00286 
3.88552 7.33232 4.64289 4.55559 8.45236 4.90183 4.70388 9.23275 5.72313 
0.464468 8.32883 7.42992 0.645002 7.61148 7.0769 -0.0371084 8.78656 7.986 
4.5064 9.23399 6.7149 3.13524 6.43873 7.74701 3.86532 7.3265 6.63393 
2.36414 9.49071 6.07562 1.89078 5.87992 6.71301 2.60597 6.80989 6.93833 
[...]
POINT_DATA 1000
FIELD FieldData 7
id 1 1000 int
137 856 762 670 530 853 745 358 392 
541 510 450 181 38 298 675 549 186 
443 2 804 890 159 633 208 106 322 
237 265 573 889 750 270 941 480 9 
891 792 413 446 162 751 935 947 614 
547 18 227 833 51 80 864 957 67 
603 901 333 207 361 17 826 110 511 
905 278 835 783 416 213 844 557 501 
674 691 75 781 894 763 25 966 21 
741 354 243 190 769 952 902 513 659 
350 896 647 440 522 472 98 555 809 
566 527 345 877 995 939 216 699 606 
967 390 284 780 544 105 795 798 575 
24 653 253 961 22 189 95 402 626 
488 193 709 247 772 394 346 845 930 
7 816 743 64 364 241 971 932 102 
652 308 404 188 229 531 724 956 487 
201 820 251 485 506 810 257 305 33 
813 415 521 191 169 987 625 119 431 
650 790 180 811 970 706 661 146 348 
635 646 992 328 484 438 823 509 86 
177 951 11 903 938 742 829 796 688 
338 828 671 754 621 393 768 870 41 
584 372 91 246 115 341 139 585 711 
93 65 42 759 290 908 233 401 999 
285 293 717 977 696 608 620 929 904 
222 722 260 868 249 539 887 618 734 
613 581 126 426 867 407 14 958 942 
100 481 497 685 960 994 344 713 212 
144 644 242 503 273 387 323 385 841 
301 545 264 382 442 758 111 767 727 
494 723 802 462 574 934 701 945 605 
832 976 117 700 542 786 779 309 666 
962 473 183 263 825 215 704 628 720 
692 801 244 235 329 302 112 444 153 
161 255 839 799 195 739 797 357 562 
564 953 950 455 83 634 576 49 517 
669 677 461 571 342 523 145 395 788 
88 276 337 963 771 114 990 673 937 
980 630 847 197 245 1 818 873 113 
466 560 479 174 154 499 570 831 94 
71 885 680 540 636 160 558 103 866 
684 490 133 362 376 789 300 917 206 
821 320 707 602 553 528 315 435 69 
687 973 107 158 50 230 836 753 54 
777 294 686 295 927 991 313 543 705 
128 981 140 53 124 475 36 498 168 
134 377 964 299 52 881 589 678 223 
888 463 30 423 551 151 643 546 714 
874 184 632 141 532 471 637 28 764 
830 749 824 519 239 347 538 272 775 
29 954 417 266 773 396 240 854 66 
537 588 414 261 774 679 46 848 296 
448 205 986 365 116 330 534 716 554 
470 599 304 649 388 681 268 97 27 
135 638 185 147 598 876 770 214 760 
4 165 138 654 815 314 421 916 1000 
327 318 690 427 842 984 586 400 39 
812 725 737 875 526 857 90 419 408 
846 924 765 592 250 641 755 577 871 
569 282 439 863 428 766 20 794 292 
593 778 483 280 975 204 167 925 860 
948 933 785 182 267 579 482 254 729 
819 217 96 389 803 196 78 332 445 
231 918 339 851 288 79 731 516 460 
271 921 583 380 486 23 886 895 101 
744 454 375 262 258 989 756 660 120 
612 5 922 352 619 43 514 492 56 
434 464 287 746 269 456 211 172 838 
433 982 872 459 104 12 529 495 478 
667 61 10 452 58 747 913 600 568 
572 629 611 974 425 16 335 228 640 
383 283 307 658 403 224 378 910 609 
74 232 220 132 988 502 748 676 651 
624 940 291 157 163 983 703 447 580 
926 281 355 317 880 694 200 399 862 
353 331 899 912 166 665 468 672 524 
310 721 648 437 645 805 458 740 708 
343 702 40 32 35 861 533 793 277 
130 410 843 173 155 582 125 321 316 
467 420 142 623 424 968 656 465 559 
149 508 148 944 590 72 827 210 374 
761 218 496 252 806 121 787 368 969 
26 548 325 710 800 194 883 178 855 
412 279 476 563 946 118 698 596 561 
689 15 123 84 736 993 928 334 616 
808 171 405 909 77 594 996 852 76 
978 587 578 597 340 914 858 274 199 
449 457 663 752 923 735 712 985 63 
505 782 176 615 238 627 209 518 143 
859 418 469 3 409 536 477 911 73 
664 897 356 997 179 850 370 931 312 
391 234 955 351 131 607 601 784 715 
192 814 47 849 507 127 884 19 657 
451 259 62 275 682 732 397 567 610 
892 718 406 324 622 55 965 900 289 
879 432 156 367 203 726 68 617 642 
221 834 915 81 489 82 757 662 436 
92 336 631 552 919 384 256 898 359 
319 44 907 550 837 959 520 311 556 
150 733 453 493 70 474 504 31 45 
57 363 535 512 695 297 122 379 604 
219 187 998 226 500 326 349 791 398 
6 525 429 371 807 13 943 136 882 
979 683 949 441 893 59 491 99 109 
865 639 108 89 386 87 972 422 369 
730 8 920 906 170 776 286 411 595 
202 738 668 591 381 822 373 565 515 
248 225 817 430 175 869 878 306 48 
655 152 719 693 236 366 85 303 936 
164 360 728 60 840 697 37 198 129 
34 
type 1 1000 int
1 2 2 2 2 2 2 1 1 
2 2 1 1 1 1 2 2 1 
1 1 2 2 1 2 1 1 1 
1 1 2 2 2 1 2 1 1 
2 2 1 1 1 2 2 2 2 
2 1 1 2 1 1 2 2 1 
2 2 1 1 1 1 2 1 2 
2 1 2 2 1 1 2 2 2 
2 2 1 2 2 2 1 2 1 
2 1 1 1 2 2 2 2 2 
1 2 2 1 2 1 1 2 2 
2 2 1 2 2 2 1 2 2 
2 1 1 2 2 1 2 2 2 
1 2 1 2 1 1 1 1 2 
1 1 2 1 2 1 1 2 2 
1 2 2 1 1 1 2 2 1 
2 1 1 1 1 2 2 2 1 
1 2 1 1 2 2 1 1 1 
2 1 2 1 1 2 2 1 1 
2 2 1 2 2 2 2 1 1 
2 2 2 1 1 1 2 2 1 
1 2 1 2 2 2 2 2 2 
1 2 2 2 2 1 2 2 1 
2 1 1 1 1 1 1 2 2 
1 1 1 2 1 2 1 1 2 
1 1 2 2 2 2 2 2 2 
1 2 1 2 1 2 2 2 2 
2 2 1 1 2 1 1 2 2 
1 1 1 2 2 2 1 2 1 
1 2 1 2 1 1 1 1 2 
1 2 1 1 1 2 1 2 2 
1 2 2 1 2 2 2 2 2 
2 2 1 2 2 2 2 1 2 
2 1 1 1 2 1 2 2 2 
2 2 1 1 1 1 1 1 1 
1 1 2 2 1 2 2 1 2 
2 2 2 1 1 2 2 1 2 
2 2 1 2 1 2 1 1 2 
1 1 1 2 2 1 2 2 2 
2 2 2 1 1 1 2 2 1 
1 2 1 1 1 1 2 2 1 
1 2 2 2 2 1 2 1 2 
2 1 1 1 1 2 1 2 1 
2 1 2 2 2 2 1 1 1 
2 2 1 1 1 1 2 2 1 
2 1 2 1 2 2 1 2 2 
1 2 1 1 1 1 1 1 1 
1 1 2 1 1 2 2 2 1 
2 1 1 1 2 1 2 2 2 
2 1 2 1 2 1 2 1 2 
2 2 2 2 1 1 2 1 2 
1 2 1 1 2 1 1 2 1 
2 2 1 1 2 2 1 2 1 
1 1 2 1 1 1 2 2 2 
1 2 1 2 1 2 1 1 1 
1 2 1 1 2 2 2 1 2 
1 1 1 2 2 1 1 2 2 
1 1 2 1 2 2 2 1 1 
2 2 2 2 2 2 1 1 1 
2 2 2 2 1 2 2 2 2 
2 1 1 2 1 2 1 2 1 
2 2 1 1 2 1 1 2 2 
2 2 2 1 1 2 1 1 2 
2 1 1 1 2 1 1 1 1 
1 2 1 2 1 1 2 2 1 
1 2 2 1 1 1 2 2 1 
2 1 1 1 1 2 2 2 1 
2 1 2 1 2 1 2 1 1 
1 1 1 2 1 1 1 1 2 
1 2 2 1 1 1 2 1 1 
2 1 1 1 1 2 2 2 2 
2 2 2 2 1 1 1 1 2 
1 1 1 2 1 1 1 2 2 
1 1 1 1 2 2 2 2 2 
2 2 1 1 1 2 2 1 2 
2 1 1 1 2 2 1 1 2 
1 1 2 2 1 2 1 2 2 
1 2 2 1 2 2 1 2 2 
1 2 1 1 1 2 2 2 1 
1 1 2 1 1 2 1 1 1 
1 1 1 2 1 2 2 1 2 
1 2 1 2 2 1 2 1 1 
2 1 1 1 2 1 2 1 2 
1 2 1 2 2 1 2 1 2 
1 1 1 2 2 1 2 2 2 
2 1 1 1 2 2 2 1 2 
2 1 1 2 1 2 2 2 1 
2 2 2 2 1 2 2 1 1 
1 1 2 2 2 2 2 2 1 
2 2 1 2 1 2 1 2 1 
2 1 1 1 1 2 1 2 1 
2 2 1 2 1 2 1 2 1 
1 1 2 1 1 2 2 2 2 
1 2 1 2 2 1 2 1 2 
1 1 1 1 2 2 1 2 2 
2 2 1 1 2 1 2 2 1 
2 1 1 1 1 2 1 2 2 
1 2 2 1 1 1 2 2 1 
1 1 2 2 2 1 1 2 1 
1 1 2 2 2 2 2 1 2 
1 2 1 1 1 1 2 1 1 
1 1 2 2 2 1 1 1 2 
1 1 2 1 1 1 1 2 1 
1 2 1 1 2 1 2 1 2 
2 2 2 1 2 1 1 1 1 
2 2 1 1 1 1 2 1 1 
2 1 2 2 1 2 1 1 2 
1 2 2 2 1 2 1 2 2 
1 1 2 1 1 2 2 1 1 
2 1 2 2 1 1 1 1 2 
1 1 2 1 2 2 1 1 1 
1 
i 3 1000 int
-159 0 0 -143 0 1 -101 0 1 
-61 0 1 -63 0 2 145 1 0 
-26 0 1 -43 0 0 -14 0 0 
148 1 0 -44 0 0 118 1 0 
94 1 0 -76 0 1 -112 0 0 
-55 0 0 -132 0 0 133 1 0 
100 1 0 -34 0 1 -143 0 0 
-31 0 0 195 1 0 -139 0 1 
-21 0 1 -51 0 0 99 1 0 
-94 0 1 -62 0 1 -98 0 1 
2 0 0 -112 0 1 -81 0 1 
-18 0 0 -92 0 2 228 1 0 
24 0 0 182 1 0 -39 0 0 
-39 0 1 126 1 0 135 1 1 
-54 0 1 5 0 1 106 1 1 
59 0 0 -39 0 1 -108 0 1 
-3 0 0 2 0 1 -39 0 1 
-27 0 1 48 0 0 211 1 1 
169 1 0 -107 0 0 -18 0 0 
156 1 1 -44 0 0 -95 0 0 
234 1 0 -68 0 1 -23 0 -1 
-51 0 0 172 1 -1 -37 0 1 
-56 0 1 -86 0 0 205 1 1 
134 1 0 135 1 0 137 1 0 
-43 0 0 144 1 0 175 1 1 
146 1 0 11 0 0 62 1 1 
-111 0 0 -58 0 1 -88 0 1 
-102 0 0 -40 0 1 -58 0 0 
-36 0 1 -24 0 1 20 0 0 
206 1 1 -72 0 0 -93 0 0 
146 1 0 -9 0 -1 -84 0 0 
11 0 0 -15 0 1 8 0 1 
-44 0 0 -26 0 0 151 1 0 
228 1 1 14 0 0 167 1 0 
177 1 1 -119 0 1 -44 0 0 
-117 0 1 33 0 -1 -121 0 -1 
155 1 -1 95 1 -1 -96 0 0 
-140 0 0 6 0 0 123 1 0 
-78 0 0 -152 0 0 120 1 -1 
151 1 -1 222 1 0 -180 0 0 
-7 0 0 119 1 0 162 1 0 
-17 0 0 -151 0 0 -47 0 -1 
-109 0 1 161 1 0 113 1 0 
-153 0 0 -59 0 1 130 1 -1 
189 1 0 -27 0 0 -28 0 0 
-59 0 0 -6 0 0 -56 0 0 
50 0 -1 -43 0 0 264 1 1 
54 0 0 -64 0 0 -5 0 -1 
-24 0 0 -63 0 1 9 0 0 
13 0 0 -110 0 0 -62 0 0 
-178 0 0 -80 0 0 -111 0 -1 
-69 0 0 -113 0 0 -52 0 0 
-95 0 1 -89 0 0 46 0 0 
-39 0 0 64 0 -1 213 1 0 
180 1 0 -1 0 -1 -67 0 0 
126 1 0 198 1 0 152 1 0 
-28 0 0 0 0 0 -91 0 -1 
-38 0 0 -149 0 0 16 0 0 
39 1 0 186 1 -1 64 0 0 
-57 0 -1 -9 0 0 -20 0 0 
-260 -1 0 -52 0 0 -130 0 0 
39 0 -1 32 0 0 17 0 -1 
196 1 -1 -94 0 0 -31 0 1 
54 0 0 -37 0 0 -17 0 -1 
-38 0 -1 22 0 -1 4 0 -1 
-47 0 0 19 0 -1 -18 0 1 
88 1 0 -43 0 0 -19 0 0 
-90 0 0 6 0 0 69 1 -1 
-121 0 -2 6 0 0 -156 0 -1 
-76 0 0 -115 0 0 -10 0 -1 
173 1 0 106 1 -1 17 0 -1 
-33 0 0 -98 0 0 100 1 -1 
108 1 -1 -50 0 0 -78 0 0 
-65 0 -1 157 1 0 -74 0 0 
-97 0 0 56 0 -1 -38 0 -1 
75 0 -1 -127 0 0 -80 0 0 
100 1 -1 36 0 -1 -42 0 0 
-14 0 0 -17 0 1 112 1 -1 
209 1 0 -105 0 -1 -116 0 0 
-81 0 1 -74 0 1 -95 0 0 
124 1 -1 -73 0 1 -58 0 0 
-38 0 0 -16 0 0 163 1 -1 
101 0 -1 33 0 0 28 0 0 
19 0 1 162 0 2 32 0 0 
-15 0 0 73 0 0 163 0 1 
25 0 1 169 0 1 70 0 0 
70 0 0 -178 -1 1 178 0 0 
19 0 0 268 1 1 -260 -1 1 
-12 0 0 -162 -1 2 -166 -1 0 
-213 -1 0 -195 -1 0 58 0 0 
70 0 0 109 0 -1 -21 0 0 
-168 -1 -1 12 0 0 -2 0 0 
115 0 0 -87 -1 1 -23 0 1 
26 0 0 98 0 0 27 0 1 
127 0 0 7 0 1 47 0 0 
75 0 0 76 0 0 24 0 1 
-10 0 0 50 0 0 -140 -1 0 
90 0 0 -190 -1 1 -130 -1 1 
-8 0 0 61 0 0 20 0 0 
-118 -1 0 39 0 0 90 0 -1 
-61 -1 1 114 0 -1 69 0 0 
98 0 -1 37 0 1 41 0 -1 
152 0 0 -216 -1 -1 -292 -1 0 
4 0 0 -107 -1 1 106 0 0 
0 0 0 62 0 1 26 0 0 
1 0 1 -114 -1 1 -33 0 1 
126 0 0 -170 -1 1 20 0 0 
166 0 0 -214 -1 1 123 0 1 
18 0 0 86 0 0 20 0 -1 
18 0 0 146 0 0 77 0 -1 
81 0 0 -11 0 1 -14 0 0 
-237 -1 0 -12 0 1 226 1 0 
44 0 1 -15 0 1 -107 -1 1 
143 0 0 97 0 0 69 0 0 
64 0 0 -175 -1 0 129 0 0 
78 0 0 -121 -1 0 -208 -1 -1 
6 0 0 120 0 -1 -56 -1 0 
137 0 1 78 0 0 23 0 0 
90 0 0 -31 0 0 -183 -1 -1 
130 0 0 -145 -1 0 46 0 -1 
83 0 0 51 0 0 67 0 0 
75 0 -1 3 0 0 53 0 0 
-210 -1 1 67 0 0 -9 0 0 
75 0 0 32 0 0 -132 -1 0 
-202 -1 0 -118 -1 0 88 0 0 
60 0 0 15 0 0 32 0 -1 
56 0 0 -167 -1 0 126 0 1 
44 0 0 -148 -1 0 -75 0 0 
96 0 -1 37 0 0 -54 0 1 
165 0 0 48 0 0 -303 -1 0 
134 0 0 -230 -1 1 69 0 -1 
50 0 0 44 0 -1 -83 -1 0 
143 0 0 -15 0 0 -185 -1 1 
-37 -1 1 30 0 0 97 0 0 
137 0 -1 65 0 0 60 0 0 
-147 -1 -1 74 0 0 45 0 -1 
102 0 -1 23 0 0 68 0 0 
-134 -1 -1 -133 -1 0 -126 -1 0 
47 0 0 85 0 -1 97 0 0 
42 0 0 109 0 0 48 0 0 
-181 -1 -1 172 0 0 37 0 0 
-116 -1 0 -223 -1 1 65 0 -1 
5 0 0 160 0 0 -14 0 -1 
67 0 0 20 0 -1 -1 0 -1 
318 1 0 142 0 0 20 0 0 
-192 -1 0 5 0 0 -17 0 0 
1 0 1 22 0 0 323 1 0 
88 0 0 55 0 0 25 0 -1 
-54 -1 0 46 0 -1 78 0 0 
-84 -1 1 45 0 -1 -43 0 0 
225 1 -1 -182 -1 0 8 0 0 
-111 -1 -1 -246 -1 0 -12 0 -1 
200 0 0 -149 -1 -1 -127 -1 -1 
98 0 -1 169 0 -1 92 0 0 
-172 -1 -1 -77 -1 -1 -27 0 0 
-148 -1 0 16 0 -1 -63 -1 0 
115 0 0 60 0 0 121 0 -1 
-12 0 0 -146 -1 0 -22 0 -1 
91 0 0 -177 -1 1 50 0 -2 
14 0 0 -120 0 -1 56 0 0 
-167 -1 -1 39 0 0 62 0 -1 
38 0 0 -40 0 -1 -166 -1 -1 
80 0 -1 64 0 -1 -128 -1 0 
39 0 0 -156 -1 0 23 0 0 
39 0 -1 12 0 0 -117 -1 0 
1 0 -1 47 1 -1 13 0 0 
-107 0 0 -51 0 1 -63 0 1 
-51 0 0 -15 0 0 -52 0 1 
-141 0 0 45 0 0 -48 0 1 
-74 0 1 125 1 0 -81 0 1 
155 1 0 -88 0 0 -87 0 0 
-49 0 0 -79 0 1 102 1 0 
-23 0 0 -106 0 1 159 1 1 
201 1 1 -115 0 0 -91 0 0 
37 0 1 -36 0 0 -50 0 1 
-31 0 1 -104 0 1 -17 0 0 
53 0 0 100 1 0 -12 0 0 
-49 0 1 -48 0 1 191 1 0 
-24 0 0 -48 0 1 -27 0 0 
-45 0 0 148 1 0 -7 0 0 
192 1 0 181 1 0 -47 0 0 
-48 0 1 -72 0 1 -66 0 1 
-181 0 0 16 0 0 -265 -1 -1 
24 0 1 -139 0 1 132 1 0 
-107 0 0 166 1 1 -134 0 1 
154 1 -1 100 1 0 -25 0 1 
207 1 0 -19 0 0 255 1 1 
53 0 -1 -134 0 0 -38 0 0 
35 1 0 2 0 0 163 1 1 
-51 0 1 -50 0 0 -89 0 0 
-64 0 0 170 1 0 196 1 0 
-4 0 1 -133 0 0 -26 0 0 
-39 0 1 -91 0 0 -62 0 1 
-141 0 0 -23 0 -1 -93 0 1 
261 1 0 -96 0 1 -16 0 0 
-53 0 0 -64 0 1 -108 0 1 
-45 0 1 160 1 1 -112 0 1 
252 1 0 -77 0 0 -95 0 0 
127 1 0 173 1 0 145 1 -1 
-154 0 0 -100 0 1 69 0 0 
-81 0 1 12 0 0 -135 0 -1 
-13 0 1 30 0 -1 37 0 0 
-78 0 0 -55 0 1 -101 0 0 
-69 0 0 -138 0 0 -50 0 0 
-92 0 0 23 0 0 166 1 0 
-26 0 0 -132 0 0 -50 0 0 
133 1 0 -158 0 0 6 0 1 
160 1 -1 41 1 -1 -7 0 0 
17 0 0 -2 0 0 -87 0 0 
-16 0 0 -64 0 1 -10 0 1 
-41 0 0 -121 0 0 -140 0 1 
29 0 0 48 0 -1 -174 0 0 
-8 0 0 -33 0 1 -59 0 0 
-76 0 0 -145 0 -1 -39 0 0 
303 1 0 -128 0 0 -104 0 0 
-78 0 0 -100 0 1 -113 0 0 
-68 0 0 -137 0 0 179 1 -1 
-45 0 0 -5 0 -1 -135 0 0 
-138 0 0 -36 0 1 -41 0 0 
13 0 0 -69 0 1 241 1 0 
58 0 0 26 0 0 -126 0 0 
173 1 -1 115 0 -1 25 0 -1 
21 0 -1 12 0 -1 -102 0 0 
-52 0 0 147 1 0 11 0 -1 
-135 0 0 57 0 0 158 1 0 
116 1 0 -4 0 -1 120 1 0 
-7 0 0 16 0 0 -193 0 0 
-125 0 0 -115 0 -1 -40 0 0 
101 1 0 -9 0 -1 -123 0 -1 
13 0 -1 39 1 -1 106 1 1 
8 0 0 -23 0 -1 -57 0 1 
48 1 0 167 1 0 180 1 0 
-91 0 -1 96 1 -1 -99 0 -1 
38 0 -1 -61 0 0 -125 0 0 
-51 0 0 171 1 0 -27 0 0 
175 1 -1 -124 0 1 -40 0 0 
248 1 -1 139 1 -1 -131 0 0 
-41 0 -1 -46 0 -1 -25 0 0 
149 1 0 41 0 0 -6 0 -1 
-206 -1 0 -7 0 -1 -111 0 -1 
262 1 0 0 0 0 -91 0 -1 
-53 0 0 -19 0 0 201 1 0 
-89 0 0 -15 0 0 -135 0 0 
-14 0 -1 -245 -1 0 -21 0 0 
-80 0 0 -16 0 -1 156 1 0 
-47 0 0 129 1 -1 -23 0 0 
-120 0 0 14 0 -1 90 0 -1 
131 1 0 -83 0 0 192 1 -1 
-53 0 0 14 0 0 109 0 0 
140 0 0 -105 -1 1 107 0 -1 
95 0 0 253 1 0 -220 -1 0 
0 0 0 43 0 0 -213 -1 0 
-198 -1 1 348 1 0 -73 -1 1 
29 0 1 74 0 0 152 0 1 
60 0 0 -77 -1 1 63 0 0 
-104 -1 1 -93 -1 2 -28 0 0 
113 0 1 -214 -1 2 35 0 1 
9 0 0 68 0 0 -31 0 1 
86 0 0 -26 0 0 10 0 0 
-72 -1 1 134 0 1 -112 -1 1 
-56 -1 0 -158 -1 1 107 0 1 
31 0 0 -25 0 1 95 0 0 
-88 -1 1 2 0 0 25 0 1 
-12 0 0 -172 -1 -1 -208 -1 0 
10 0 0 30 0 0 73 0 0 
15 0 -1 131 0 0 45 0 0 
88 0 0 61 0 0 78 0 0 
-145 -1 0 81 0 -1 64 0 1 
149 0 0 -199 -1 0 -9 0 0 
-211 -1 0 -169 -1 0 81 0 0 
-165 -1 1 -114 -1 1 136 0 0 
53 0 0 290 1 1 -148 -1 0 
106 0 0 -183 -1 -1 30 -1 0 
84 0 0 40 0 0 33 0 0 
31 0 1 109 0 0 91 0 1 
-19 0 0 28 0 0 6 0 1 
-7 0 0 -57 0 0 11 0 1 
-11 0 1 78 0 0 78 0 1 
89 0 0 -56 0 1 133 0 0 
23 0 1 -168 -1 1 -98 -1 0 
31 0 1 -125 -1 0 -111 -1 1 
51 0 0 -92 -1 0 82 0 0 
20 0 1 -123 -1 -1 -48 0 0 
-115 -1 0 25 0 0 -226 -1 1 
75 0 -1 23 0 0 45 0 -1 
51 0 -1 -167 -1 0 -60 0 1 
105 0 0 49 0 0 100 0 0 
52 0 -1 -128 -1 0 -189 -1 -1 
145 0 1 42 0 0 36 0 0 
112 0 -1 -141 -1 0 120 0 -1 
104 0 0 77 0 1 -205 -1 0 
84 0 0 49 0 0 54 0 0 
45 0 1 82 0 -1 42 0 -1 
71 0 0 -73 -1 1 64 0 0 
54 0 0 95 0 0 31 0 0 
74 0 -1 -100 -1 0 -33 0 0 
-1 0 0 -44 0 0 -24 0 0 
8 0 -1 63 0 -1 -101 -1 0 
51 0 0 -181 -1 0 121 0 0 
64 0 0 -18 0 0 104 0 -1 
78 0 -1 118 0 -1 52 0 -1 
181 0 0 77 0 0 56 0 0 
63 0 0 134 0 0 83 0 0 
124 0 0 39 0 -1 110 0 0 
45 0 -1 72 0 0 114 0 -1 
93 0 0 -133 -1 0 83 0 1 
11 0 -1 -75 0 0 -127 0 0 
-112 -1 0 33 0 0 -16 0 0 
62 0 0 44 0 -1 88 0 -1 
19 0 -1 -198 -1 -1 -7 0 0 
-30 0 0 -69 -1 0 14 0 -1 
-106 -1 0 1 0 -1 -12 0 0 
84 0 0 46 0 -1 94 0 1 
47 0 0 12 0 0 72 0 -1 
77 0 -1 -141 -1 -1 37 0 0 
-90 -1 -1 61 0 0 -147 -1 0 
-108 -1 0 88 0 -1 12 0 0 
14 0 -1 -227 -1 -2 -37 0 0 
-143 -1 -1 63 0 0 -169 -1 0 
83 0 -1 121 0 -1 -114 -1 0 
75 0 0 -15 0 -1 102 0 0 
94 0 -1 189 0 0 -2 0 0 
-236 -1 0 38 0 0 -89 -1 0 
-129 -1 -1 -82 -1 0 -181 -1 -1 
-217 -1 -1 -89 -1 0 34 0 -1 
-18 0 0 19 0 -1 -28 0 0 
135 0 0 79 0 -1 79 0 -1 
-202 -1 0 39 0 0 143 0 0 
44 0 -1 -131 -1 0 -10 0 0 
77 0 0 142 0 0 15 0 0 
51 0 -1 -169 -1 0 25 0 0 
41 0 0 -13 0 0 -26 0 -1 
-264 -1 -1 -10 0 0 -158 -1 -1 
150 0 0 
v 3 1000 double
-391.6307106 -2.2444918678 -2.5967056826 -464.98537389 -9.7584194948 -2.5199805487 -323.16138083 -7.8240865382 -8.9373052812 
-425.2579532 -37.186971043 -0.16685569938 -334.35225253 14.007405937 -5.7788942428 -322.09152206 -4.228983167 40.504700137 
-460.0627889 -0.87133042767 9.9066054637 -372.75745497 5.563739214 9.3866967078 -160.14680673 29.683845856 28.85936344 
-91.805473051 -6.7955959527 -15.830941107 -195.16638271 11.731147833 -8.2436922682 -374.46436915 9.2752152936 2.0701218799 
-441.90973567 10.899560962 -9.2141145643 -221.69156547 4.090530573 9.6053803132 -407.29349802 -14.15077417 21.977287971 
-282.35525381 -17.165892148 -20.718512267 -399.49659745 -19.911064314 4.753485404 -192.97070357 4.7806736484 -9.8053428608 
-386.16762613 -4.6442961631 4.5906444015 -210.5840524 -11.084721299 -8.1762396835 -425.13709229 3.4111195684 -28.65702612 
-149.71129364 -23.089868816 -12.784835549 -206.85353685 2.000614242 5.0580105853 -445.34472855 -15.48854995 8.5767203808 
-240.6768702 6.9778981322 3.3952575067 -208.59333553 7.55326619 -1.244149205 -264.42434559 20.676758265 19.519069726 
-394.47732017 -17.853761521 7.0704210248 -89.476843606 11.657455343 2.2570571215 -346.91822704 11.356621634 -13.884977017 
-5.8929944638 1.7318922301 2.3442032278 -348.52708887 20.943463302 -7.3959860062 -271.06874002 -8.3506284725 14.250943214 
-129.44643236 21.672607917 -0.83294867567 -400.09907143 10.579296193 10.207397648 -83.251014954 -2.2658363399 8.5535135879 
-131.05279894 6.9783130402 -14.50148944 -101.66115581 16.307066594 -15.867694074 -51.793381033 18.658533491 -2.9138541432 
-180.98294144 -9.5108922852 13.661039462 -255.97816772 6.9100527104 8.1005840395 -409.25526011 -1.6307933873 -1.4654584012 
-298.46803524 -13.9270603 12.185211085 -116.5620566 10.310092894 -18.329227168 -246.57447306 -5.615145592 -5.3074729691 
-72.726166298 7.8057107955 -12.038210946 -234.64115147 11.567705113 -13.17616726 -405.81563292 -29.013678895 22.242241083 
-259.84554409 25.764644053 2.0841325596 -144.66905801 -17.051111762 21.674888883 -286.36609313 -13.114593282 7.0130577021 
-23.292146027 -28.399213643 -4.0314389457 4.5865061571 -0.11156799476 14.733373869 -343.75418953 24.819482568 10.433180964 
-333.41492118 -1.38502897 17.898262597 -473.1900199 1.8743498336 3.4413034286 -147.13926338 -2.0713521733 12.711321704 
-369.91354119 -11.991881554 -12.061875111 -236.63469385 -1.9234414888 8.7708107458 -395.50734598 -1.2845888025 -9.3660322359 
-136.54817646 -7.4268585319 -1.0513419846 -419.1011648 10.732328087 8.7413550655 -105.8928842 9.2118475624 4.9211679333 
-355.77044452 -1.9992396831 -4.0321024627 -473.20983908 30.140355087 0.49978678744 -211.83530866 -11.497177095 -3.4936256626 
-341.8235693 10.17403048 16.554514753 -268.67628535 1.9091189255 1.2860992795 -145.83038881 8.4175070748 5.9335000085 
-237.88682947 -2.6334517675 -11.616648331 -362.23619045 -19.257426114 -15.483055966 -333.26288863 -10.628767897 15.45275409 
-272.47625764 32.408538592 -10.08889998 -224.21852201 2.6769697111 9.4039394015 -224.28495502 -8.8132956075 7.0123163569 
-335.88629859 13.195520197 6.7102786608 -47.080725532 -25.358123932 -8.3836132641 -420.88252261 -8.9040273739 1.264810026 
-325.16095045 0.27130601317 0.60194326369 -120.13689011 0.62277667518 5.3482288763 -8.0929883988 4.0348866243 -18.977312897 
-128.47087706 17.680763532 13.850196496 -328.29156378 -6.0920598306 13.494771374 -108.18087015 -4.9618971799 -11.228217954 
-137.59765004 -16.529274053 13.963267352 -342.42830401 -15.713924573 3.8621993202 -325.19498241 -17.11345054 19.873805473 
-73.869625229 0.86272675035 -10.494919011 -208.02041239 -15.792006298 0.34435724759 -476.28850827 1.5801110489 -10.54139296 
-265.22726439 -2.0776106577 -7.4173845379 -64.841928699 -8.6225730864 -23.923233261 -262.24244976 -0.92880614136 -1.3785782918 
-310.65352715 21.153820099 -6.4856018504 -26.865209255 18.405100202 -6.1701835499 -147.58001792 -11.309702415 -8.1170293058 
-181.14928839 16.585600208 5.3390168393 -41.208741118 -2.7495811378 4.14821411 -329.38178128 8.6660085466 -38.711723498 
-369.57634965 -20.957672587 7.4660912017 -235.56892362 40.080367697 24.221788836 -464.47420085 6.4390249231 -13.112116161 
-469.37180542 13.651504256 -17.06240287 -258.28640365 -22.546435862 -1.8455815771 -131.68088315 4.7745649067 -9.548518813 
-271.2134383 8.8726457726 19.644715585 -19.960391989 -19.215248472 -6.7950933802 -210.07628491 -11.595305511 -20.88422952 
-383.82609077 11.92071447 -27.206062982 -215.72662198 -18.308121667 -26.947972803 -117.5826433 36.533384058 11.278904034 
-351.68411156 -0.45560096609 -3.5779057383 -212.82637695 16.469631885 -6.6783823616 -371.55629583 -11.704206492 24.795607138 
-206.7762787 15.271587368 2.0715883435 -450.81953627 11.988406058 6.1045666593 -352.70723708 7.24552185 -25.947594135 
-388.35548648 7.3272746138 8.5974044853 -221.20586526 13.939414924 6.8748304752 -480.59682247 -12.188458668 -11.57237919 
-164.36323465 -9.2535170163 8.8837969681 -394.25936954 -11.020123462 -22.324837345 -340.5172354 9.5624493472 -3.5821978619 
-115.96766636 5.5699934273 2.1862286992 -392.28740634 15.448989104 -0.56225915888 -319.8850645 5.8423851144 -14.644469576 
-306.7818464 11.904338543 2.1847647011 -446.94532247 13.652930423 4.802547714 -434.88454981 -0.86890430965 -11.248936626 