ITEM: TIMESTEP
16500
ITEM: NUMBER OF ATOMS
1000
ITEM: BOX BOUNDS xy xz yz pp pp pp
0 10 0
0 10 0
-0 10 0
ITEM: ATOMS id type type x y z ix iy iz vx vy vz fx fy fz omegax omegay omegaz radius 
803 2 2 1.93392 0.263118 1.76686 55 1 0 -434.085 -24.3673 -14.529 750.498 -596.914 4524.8 0 0 0 0.5 
899 2 2 2.20064 0.109946 0.417069 -42 0 0 -410.271 -18.5496 -15.2025 -423.379 597.057 -1548.11 0 0 0 0.5 
760 2 2 0.951129 1.17432 0.577625 -25 0 1 -311.084 -14.9615 16.974 -492.664 430.921 981.418 0 0 0 0.5 
416 1 1 1.42691 0.865459 1.51937 -27 0 0 -349.29 -11.1056 1.52696 -2264.66 1487.72 -1190.36 0 0 0 0.5 
77 1 1 0.360131 0.433313 0.7597 56 1 1 -432.178 27.0441 7.15841 2318.36 639.291 965.024 0 0 0 0.5 
16 1 1 4.14982 1.06285 0.19943 -52 0 0 -381.11 4.24759 1.83794 4785.59 -1096.99 1533.69 0 0 0 0.5 
647 2 2 2.00268 1.91888 1.18097 -28 0 0 -273.247 14.4672 1.66872 -718.099 1379.71 -1621.18 0 0 0 0.5 
670 2 2 0.940841 3.12777 0.455505 -3 0 1 -168.824 -7.46081 42.1489 1598.98 -1588.61 394.936 0 0 0 0.5 
106 1 1 2.32685 2.88089 1.30047 -18 0 0 -177.751 3.06101 8.76948 1140.63 -3083.42 -113.513 0 0 0 0.5 
770 2 2 2.33354 2.75598 0.111072 -29 0 0 -210.268 14.0786 -9.20145 -193.753 727.044 1818.96 0 0 0 0.5 
755 2 2 0.646814 2.43575 1.67881 -34 0 0 -192.042 -11.5374 -13.875 -1482.24 3072.2 671.24 0 0 0 0.5 
939 2 2 2.58519 3.49471 1.95868 -5 0 0 -112.762 -23.7802 -9.9444 -2007.56 2415.07 2440.34 0 0 0 0.5 
308 1 1 1.10862 1.72791 1.64726 -10 0 1 -276.821 -4.27825 -7.21803 2299.87 -1505.77 429.482 0 0 0 0.5 
995 2 2 4.117 0.4269 0.928785 -37 0 1 -387.729 -17.0657 -34.9143 -160.722 -760.76 -478.893 0 0 0 0.5 
473 1 1 2.25542 4.83635 1.22754 1 0 0 -51.2883 20.4311 17.5893 2161.58 -1003.58 -3419.68 0 0 0 0.5 
526 2 2 0.364948 2.29734 0.204392 -38 0 1 -276.371 22.3702 9.78801 33.7633 -459.22 -208.562 0 0 0 0.5 
795 2 2 1.86478 3.63876 0.953098 -44 0 0 -84.9988 -4.44212 -10.1958 -2135.84 675.837 -394.281 0 0 0 0.5 
293 1 1 2.02262 0.8731 0.754011 -50 0 0 -353.201 -9.14724 1.09381 -405.662 752.077 548.605 0 0 0 0.5 
27 1 1 2.71399 2.15297 0.487985 -34 0 1 -243.344 -15.0494 21.2509 -2080.57 1575.18 528.731 0 0 0 0.5 
519 2 2 1.76304 1.54649 0.23984 -19 0 0 -318.761 16.7299 -2.96953 -147.166 8.70908 776.699 0 0 0 0.5 
91 1 1 4.55742 3.65701 1.28708 -2 0 0 -116.996 -1.25567 18.672 148.654 -1086.11 -230.408 0 0 0 0.5 
62 1 1 1.44724 2.8105 1.28751 -21 0 0 -181.061 7.47081 10.7898 -668.433 481.715 -1281.82 0 0 0 0.5 
228 1 1 1.1408 2.12622 0.785569 -50 0 1 -271.394 0.674284 -2.11679 -17.2121 446.37 -160.829 0 0 0 0.5 
554 2 2 2.46897 1.22046 1.52029 -28 0 0 -328.187 -6.37791 -0.0564158 -15.9434 -1230.62 1499.28 0 0 0 0.5 
886 2 2 4.53722 2.23055 1.68136 95 1 0 -228.035 -8.46117 -5.95237 -2010.22 -1672.07 1501 0 0 0 0.5 
943 2 2 4.17465 1.17137 1.84282 -18 0 0 -283.322 -22.6358 -7.85517 0 0 0 0 0 0 0.5 
232 1 1 0.391147 1.3424 1.26533 -19 0 1 -285.289 -20.5755 28.0474 -1020.2 -1243.36 1078.35 0 0 0 0.5 
983 2 2 1.01833 4.72336 0.782109 13 0 0 -29.1571 -11.7988 0.676092 620.676 -1524.09 639.499 0 0 0 0.5 
650 2 2 0.531565 3.86634 1.26505 -9 0 0 -95.3881 -6.43985 -1.39667 674.109 -759.456 262.097 0 0 0 0.5 
883 2 2 0.407448 4.67378 1.97912 9 0 0 -20.066 -3.18574 -1.4445 -1720.52 411.637 -1139.16 0 0 0 0.5 
1000 2 2 4.92917 0.516929 0.408075 -39 0 0 -377.896 -3.92218 -20.7173 -1413.63 308.18 -633.182 0 0 0 0.5 
380 1 1 2.87806 3.47178 0.610952 -21 0 1 -123.905 -14.7404 -8.74786 -2660.27 1290.13 322.72 0 0 0 0.5 
533 2 2 4.39994 2.37089 0.201332 99 1 0 -250.111 -5.67917 -2.60412 -1617.45 1180.76 1057.76 0 0 0 0.5 
777 2 2 2.93288 1.02091 0.848072 -55 0 0 -350.322 -2.26987 -13.985 213.653 598.277 -2489.43 0 0 0 0.5 
506 2 2 3.43397 0.697113 1.27077 -29 0 0 -370.758 -2.88803 33.7444 824.158 1139.02 294.77 0 0 0 0.5 
787 2 2 3.43654 3.91425 1.96158 -30 0 1 -119.385 7.50034 26.3459 600.686 -172.147 535.839 0 0 0 0.5 
513 2 2 3.24826 1.99044 1.16722 -29 0 0 -235.206 -6.49518 24.7048 547.523 -166.558 696.089 0 0 0 0.5 
592 2 2 4.40931 3.25839 0.0622852 -5 0 0 -164.607 14.152 12.2329 799.739 340.616 87.3095 0 0 0 0.5 
743 2 2 3.28948 2.95788 1.53447 -22 0 0 -188.162 -3.93371 -13.643 2683.03 -1443.4 -1796.09 0 0 0 0.5 
772 2 2 3.13209 0.0329136 0.110953 -24 0 1 -415.798 -7.88919 -10.3803 1612.07 -237.959 326.209 0 0 0 0.5 
609 2 2 4.29567 2.79077 1.0126 -10 0 0 -189.827 -6.26252 17.776 1196.57 1567.33 15.4172 0 0 0 0.5 
740 2 2 3.31719 1.59689 0.181947 -35 0 1 -291.849 -4.79754 5.38122 -1842.95 1085.67 -808.621 0 0 0 0.5 
677 2 2 2.82137 4.17893 1.24233 -11 0 1 -69.1471 -5.75412 -5.44617 -3021.27 566.879 401.487 0 0 0 0.5 
223 1 1 4.58541 4.66463 0.353481 -14 0 0 -35.6761 7.68347 2.47766 -1455.76 752.299 -2133.29 0 0 0 0.5 
739 2 2 0.484426 4.89962 0.0624254 5 0 1 -11.8831 -17.8074 -18.8422 2717.79 -945.262 1292.2 0 0 0 0.5 
618 2 2 0.292793 3.77162 0.295442 -11 0 1 -106.626 0.827154 -5.42577 -464.799 1371.6 -400.94 0 0 0 0.5 
161 1 1 3.64225 4.624 0.456172 -4 0 1 -27.3862 -2.90208 -7.30269 242.136 -658.194 558.148 0 0 0 0.5 
598 2 2 3.61892 3.08124 0.467596 -14 0 1 -155.917 -17.6961 13.4267 187.471 -854.738 -1472.31 0 0 0 0.5 
297 1 1 4.57142 0.283166 1.57281 60 1 0 -418.375 16.1704 12.4634 712.582 82.3868 990.938 0 0 0 0.5 
783 2 2 3.69225 3.93258 1.00711 -14 0 1 -114.724 -3.43041 23.8727 2450.75 -953.181 -767.456 0 0 0 0.5 
619 2 2 3.94128 2.58202 1.96741 -12 0 1 -204.102 -5.93163 21.6274 -1731.97 475.957 1308.01 0 0 0 0.5 
559 2 2 4.42275 1.65661 0.900612 -63 0 1 -259.417 -16.3413 -12.8791 67.1758 217.604 282.978 0 0 0 0.5 
66 1 1 4.51086 4.99894 1.27157 -13 0 1 19.9264 -17.507 -18.759 -3904.27 749.37 2774.54 0 0 0 0.5 
606 2 2 3.91088 0.118449 2.52034 -41 0 0 -463.058 13.807 -19.7365 1636.77 177.236 -1609.25 0 0 0 0.5 
576 2 2 3.97069 4.93728 2.09379 46 0 0 31.765 -14.1632 14.1627 -3061.28 -194.764 -2892.69 0 0 0 0.5 
373 1 1 1.2482 0.84349 3.31652 -29 0 0 -397.609 -26.2614 -2.72727 -3806.94 262.572 1527 0 0 0 0.5 
157 1 1 1.64072 2.63568 2.22252 -10 0 0 -206.849 5.00847 23.0265 -14.2055 12.8357 -68.6529 0 0 0 0.5 
682 2 2 2.30515 4.61187 2.99166 -6 0 0 -44.0312 -9.60879 0.53276 619.689 97.5627 227.932 0 0 0 0.5 
975 2 2 0.400529 1.07881 3.81098 62 1 1 -398.731 24.6837 -18.3513 -429.192 -2039.93 -171.832 0 0 0 0.5 
346 1 1 0.265147 0.457829 2.65757 66 1 0 -481.798 42.1203 -28.9337 238.495 405.187 -636.884 0 0 0 0.5 
487 1 1 0.913435 1.33749 3.10357 -44 0 0 -352.435 23.4048 1.06727 -1667.66 2378.36 -874.64 0 0 0 0.5 
266 1 1 3.54212 0.631681 2.86072 -61 0 0 -432.092 20.4953 -11.9296 1041.38 845.622 247.632 0 0 0 0.5 
854 2 2 4.51026 4.14764 3.96413 -12 0 0 -57.3779 -12.4008 -9.30764 -1114.72 -338.538 103.844 0 0 0 0.5 
138 1 1 1.45279 1.38291 2.40255 -15 0 1 -316.005 -12.8399 10.8484 -2733.89 1342.65 -1117.02 0 0 0 0.5 
729 2 2 1.76632 0.258452 2.98399 66 1 1 -472.337 4.31054 -5.51892 3920.31 -280.922 -3590.94 0 0 0 0.5 
354 1 1 3.27513 4.80065 3.08756 -13 0 1 -34.2396 -0.912652 7.69412 221.249 60.4522 1650.73 0 0 0 0.5 
764 2 2 1.99689 3.62701 3.23008 -38 0 1 -117.238 8.86675 -11.267 561.747 591.211 -137.433 0 0 0 0.5 
418 1 1 2.40278 0.863199 3.88077 -35 0 0 -412.963 16.5455 5.41106 889.216 65.8409 1429.11 0 0 0 0.5 
603 2 2 0.317031 0.18308 3.52659 53 1 0 -516.095 12.5336 -21.8378 1619.66 1552.35 -156.487 0 0 0 0.5 
509 2 2 2.58923 3.19335 3.63722 -32 0 0 -136.58 -5.28907 -15.9462 881.849 -289.143 22.9117 0 0 0 0.5 
600 2 2 1.41365 3.62481 2.70819 -9 0 1 -120.75 -24.8339 -14.3484 -1480.15 164.445 -1328.14 0 0 0 0.5 
514 2 2 1.84027 1.06074 3.67539 -25 0 0 -405.368 13.8844 -18.5026 -504.546 1226.11 -1269.41 0 0 0 0.5 
280 1 1 2.21791 1.74924 2.11928 -36 0 0 -312.578 39.7602 -4.57765 -166.929 -681.11 1743.14 0 0 0 0.5 
298 1 1 0.780424 2.76846 3.04487 -50 0 0 -170.172 -10.1311 -0.777552 503.464 -174.673 8.20487 0 0 0 0.5 
147 1 1 2.11315 2.21313 3.82438 -54 0 0 -253.205 19.4077 19.7154 -402.345 -674.996 248.468 0 0 0 0.5 
101 1 1 2.07799 1.73896 3.03604 -11 0 0 -330.472 22.3371 -0.366235 -2462.25 796.365 819.835 0 0 0 0.5 
784 2 2 2.31171 0.955999 2.62218 -42 0 1 -384.562 2.98313 -3.48375 -2339.95 -1075.74 1251.47 0 0 0 0.5 
882 2 2 0.274273 3.23388 2.20778 -12 0 0 -166.679 1.80099 -13.5453 649.429 -405.88 136.991 0 0 0 0.5 
714 2 2 1.36078 4.15819 3.70652 122 1 0 -96.6547 9.95341 -1.57442 1231.71 -1627.46 -1819.41 0 0 0 0.5 
121 1 1 2.83505 1.70025 3.20265 68 1 0 -338.938 27.3772 4.36536 2364.8 1335.37 793.424 0 0 0 0.5 
623 2 2 4.25486 1.88365 2.56296 -22 0 1 -226.112 -35.8086 6.77125 -1147.94 2424.46 -1763.56 0 0 0 0.5 
774 2 2 2.83338 0.522458 2.17551 -31 0 1 -441.553 -1.63356 -7.88334 995.309 -347.777 -622.212 0 0 0 0.5 
167 1 1 4.30768 1.2228 3.30727 58 1 0 -359.654 -4.0708 -20.6722 -109.785 -1646.97 1155.34 0 0 0 0.5 
730 2 2 3.81443 1.50665 3.93319 -64 0 0 -350.987 -11.0538 17.6441 388.259 -943.592 -1702.1 0 0 0 0.5 
583 2 2 3.07041 2.54297 2.93657 -25 0 1 -198.071 8.80681 16.6931 8.33232 29.8341 -9.41966 0 0 0 0.5 
429 1 1 4.17772 3.34914 2.41534 -16 0 0 -127.929 -9.9868 -2.21985 -3064.37 1104.82 1100.35 0 0 0 0.5 
86 1 1 1.22365 4.4785 2.51952 -15 0 1 -64.0628 14.9015 -0.974254 5148.32 -3464.09 -1748.7 0 0 0 0.5 
169 1 1 2.97191 0.904563 3.11338 55 1 0 -423.033 4.56192 13.2732 -1795.38 1832.37 -409.78 0 0 0 0.5 
19 1 1 4.47549 2.75642 3.24308 -31 0 0 -206.464 15.1807 -9.50763 -2261.63 2372.97 -2428.79 0 0 0 0.5 
170 1 1 3.47843 0.411202 3.676 46 1 0 -495.942 34.5684 20.5675 4350.54 -2439.6 -2995.48 0 0 0 0.5 
427 1 1 2.70825 4.57312 3.87927 0 0 0 -16.6267 -14.8575 -3.06694 26.3345 -1051.5 -262.474 0 0 0 0.5 
881 2 2 2.0513 4.24664 2.00463 -2 0 0 -85.0397 2.83793 2.23617 -197.665 486.046 -162.786 0 0 0 0.5 
391 1 1 3.29592 2.12963 3.84457 -6 0 0 -250.59 6.44982 -17.2052 -2837.03 272.939 -4633.93 0 0 0 0.5 
231 1 1 0.546972 4.25501 3.10587 -29 0 1 -45.9538 -29.3626 2.24866 -534.122 217.645 486.06 0 0 0 0.5 
289 1 1 2.71719 0.119821 3.82294 -76 0 -1 -468.488 -23.1664 13.4326 -1337.58 -328.059 1347.58 0 0 0 0.5 
235 1 1 3.97179 2.99737 3.96339 -24 0 0 -163.979 2.44176 -10.9141 -652.495 -346.097 108.115 0 0 0 0.5 
858 2 2 3.9758 4.15032 3.14079 -3 0 0 -47.3287 -14.2448 -6.68072 -444.185 -440.477 -452.842 0 0 0 0.5 
785 2 2 4.90638 2.42037 3.73572 101 1 0 -235.672 11.9145 2.29103 1161.73 91.6402 670.661 0 0 0 0.5 
974 2 2 4.90529 4.35471 3.11835 138 1 1 -50.473 -0.728218 -3.33133 436.486 -266.607 -396.25 0 0 0 0.5 
304 1 1 4.95511 0.933099 3.91371 -30 0 0 -386.695 4.26063 10.4023 53.8064 1497.36 54.9905 0 0 0 0.5 
342 1 1 4.96158 3.54872 2.91112 -11 0 1 -120.595 -25.034 -3.67576 -1494.58 30.5264 1182.48 0 0 0 0.5 
120 1 1 1.2284 0.232312 5.92009 -52 0 -1 -503.505 -3.93188 7.63098 1629.59 -1027.69 342.407 0 0 0 0.5 
646 2 2 1.94178 2.15347 5.44007 -20 0 0 -261.44 -3.81829 42.6937 -1340.62 1972.49 1217.21 0 0 0 0.5 
254 1 1 1.59688 3.49357 4.29135 4 0 0 -125.799 1.33136 3.22564 -116.971 1104.41 -622.56 0 0 0 0.5 
358 1 1 4.73985 3.48596 4.52032 -9 0 0 -91.8155 -21.6336 -20.9301 -1638.57 527.15 1055.65 0 0 0 0.5 
240 1 1 0.584848 0.846042 5.27848 -50 0 0 -440.478 9.16491 -6.82517 -1393.65 764.58 -1894.99 0 0 0 0.5 
902 2 2 2.61399 2.25204 5.05019 56 1 0 -268.008 29.4368 11.2604 677.647 1778.38 -2058.75 0 0 0 0.5 
476 1 1 4.34015 2.90264 5.20159 1 0 0 -166.891 -6.65834 -18.3764 2885.2 -965.95 -295.949 0 0 0 0.5 
187 1 1 1.93776 1.36464 5.06928 -36 0 0 -380.268 12.8152 40.6186 906.484 -3084.28 -619.002 0 0 0 0.5 
536 2 2 1.65197 1.53837 4.30224 -76 0 0 -338.206 26.2977 -2.20353 -295.737 1776.7 -1016.33 0 0 0 0.5 
523 2 2 0.241357 1.48222 4.56361 -31 0 1 -346.302 7.57155 0.973649 -1459.43 1275.42 1336.1 0 0 0 0.5 
708 2 2 1.04357 1.43194 4.62787 -57 0 0 -337.268 -3.79097 6.29923 -3928.36 1040.38 219.325 0 0 0 0.5 
941 2 2 3.76432 4.88245 4.82311 -7 0 0 19.5108 -7.47855 11.3943 -629.063 -20.1684 -56.088 0 0 0 0.5 
226 1 1 0.841486 1.97615 5.88619 -37 0 0 -282 22.9813 37.2275 -1010.98 67.4958 -347.892 0 0 0 0.5 
869 2 2 3.07533 3.41321 5.46778 -20 0 0 -95.7124 6.28233 -2.34727 -2021.5 224.104 1002.02 0 0 0 0.5 
539 2 2 1.41368 0.662166 5.13778 -52 0 0 -469.872 5.10471 5.49976 2921.25 -3643.6 380.344 0 0 0 0.5 
689 2 2 0.916394 2.69947 4.61875 -23 0 0 -211.387 -2.79729 -23.8513 -596.521 305.754 28.6672 0 0 0 0.5 
968 2 2 0.6318 1.36608 5.77115 75 1 0 -385.279 1.35621 17.7526 -1300.03 3508.94 -872.939 0 0 0 0.5 
951 2 2 1.74184 2.71882 4.80787 -12 0 0 -195.373 10.9074 -11.5329 967.201 -1947.2 1577.56 0 0 0 0.5 
364 1 1 3.69401 3.36655 4.71851 -10 0 0 -81.0495 -11.7821 4.93682 -2224.9 1492.58 303.483 0 0 0 0.5 
7 1 1 0.614265 2.10597 5.23034 -13 0 0 -266.672 -0.427087 -23.1996 -290.632 -355.7 -486.437 0 0 0 0.5 
780 2 2 0.102026 0.606526 4.46779 -89 0 0 -475.549 13.503 4.17103 -1135.7 862.29 -2707.3 0 0 0 0.5 
332 1 1 0.612797 0.0675916 5.15448 -51 0 0 -503.239 -28.2696 11.9996 -1050.34 3373.04 1.94057 0 0 0 0.5 
746 2 2 2.70409 4.14002 5.15165 3 0 0 -64.487 7.56513 -3.89601 -58.085 -1128.35 -313.224 0 0 0 0.5 
39 1 1 2.59871 1.62404 4.48885 -45 0 0 -381.684 31.1945 -8.75886 1283.5 -441.796 407.53 0 0 0 0.5 
94 1 1 0.786071 4.79102 5.84384 -17 0 0 25.9143 -4.95791 -22.7451 119.295 608.163 -171.222 0 0 0 0.5 
460 1 1 0.672926 3.92809 5.96082 -1 0 0 -73.3345 1.30072 3.67134 273.356 -42.7436 728.908 0 0 0 0.5 
734 2 2 3.65223 2.82423 5.53412 -19 0 0 -165.6 -14.1033 -5.02975 -946.633 -3694.8 761.875 0 0 0 0.5 
911 2 2 3.94135 0.120582 4.34479 -78 0 -1 -511.797 16.5804 5.1396 1202.87 874.388 1433.17 0 0 0 0.5 
751 2 2 2.36306 0.23662 4.71843 71 1 0 -536.518 19.2075 -6.62418 -2460.13 805.91 -930.302 0 0 0 0.5 
277 1 1 4.05369 0.394237 5.55589 -73 0 1 -452.917 -5.2278 -14.5933 1734.77 -1436.66 -201.337 0 0 0 0.5 
333 1 1 3.18607 3.97059 4.32567 7 0 0 -32.7231 -14.9445 5.90357 -1047.88 1066.18 -313.058 0 0 0 0.5 
98 1 1 4.46525 3.98401 5.12112 6 0 0 -43.5316 -9.28519 8.52834 -192.884 2201.54 100.948 0 0 0 0.5 
644 2 2 2.95718 2.69445 4.26559 115 1 0 -169.217 1.28463 2.4598 -7383.78 4641.79 2377.49 0 0 0 0.5 
517 2 2 0.385289 3.40548 4.07649 -20 0 0 -141.884 3.9192 10.0226 0 0 0 0 0 0 0.5 
679 2 2 0.732018 3.49772 5.14046 -12 0 0 -133.251 3.63823 16.1324 753.143 -1063.28 -1425.62 0 0 0 0.5 
65 1 1 3.25673 4.68507 5.97476 -1 0 0 -9.00135 3.00111 -11.0616 108.05 -218.656 -654.427 0 0 0 0.5 
326 1 1 4.60362 3.56478 5.95805 4 0 0 -60.6923 -22.4416 10.7188 -1883.37 636.675 49.8087 0 0 0 0.5 
549 2 2 3.28281 0.846023 5.71872 -77 0 0 -421.345 11.4319 -2.41699 -1622.36 3652.72 17.7853 0 0 0 0.5 
271 1 1 2.52867 4.94057 4.9617 -50 0 0 49.4573 6.52256 -16.8406 1078.99 1717.47 93.2702 0 0 0 0.5 
486 1 1 3.13944 0.91242 4.40923 48 1 1 -420.535 -6.31933 -7.30308 186.473 1563.82 3912.81 0 0 0 0.5 
409 1 1 3.19406 2.00923 5.58206 118 1 0 -284.093 11.334 31.0811 3341.09 -2636.29 -2051.6 0 0 0 0.5 
278 1 1 3.36394 0.21557 5.87562 76 1 -1 -484.115 -22.148 -5.58589 -3616.98 1207.5 -1170.05 0 0 0 0.5 
728 2 2 0.913421 4.75027 4.10569 16 0 0 -4.61085 7.10448 19.1276 -1993.96 2639.03 1779.19 0 0 0 0.5 
870 2 2 4.69491 4.91229 4.90609 5 0 0 21.771 6.09639 -15.5009 -1631.42 -630.701 232.563 0 0 0 0.5 
954 2 2 3.42295 1.41866 5.0662 55 1 0 -358.407 11.4013 -25.6009 -645.592 -491.912 -809.791 0 0 0 0.5 
827 2 2 3.80844 2.22173 4.49296 -17 0 0 -308.442 27.8337 1.66363 6412.73 -2403.36 2828.75 0 0 0 0.5 
129 1 1 4.18283 1.26258 5.50459 -51 0 0 -380.085 3.2176 5.78147 1159.55 96.7043 -269.084 0 0 0 0.5 
262 1 1 4.33054 0.993152 4.56798 -58 0 0 -426.561 2.11348 -13.8431 1701.47 -768.865 3828.85 0 0 0 0.5 
890 2 2 4.4554 1.88966 4.88254 -7 0 0 -317.688 21.7715 19.9425 746.514 -2623.01 457.65 0 0 0 0.5 
67 1 1 1.93275 1.37321 7.52277 84 1 0 -396.503 22.7874 -2.42786 2971.63 -1622.36 2032.69 0 0 0 0.5 
572 2 2 1.56693 2.13044 6.37034 -28 0 0 -272.719 22.3518 7.39017 -600.165 2905.7 -1041.07 0 0 0 0.5 
449 1 1 1.97824 3.09359 6.34486 -3 0 0 -153.867 9.85444 -2.22497 -905.417 61.5265 -342.156 0 0 0 0.5 
813 2 2 2.5103 0.835801 7.27958 85 1 0 -435.296 12.2719 9.3436 628.356 -224.654 -1482.65 0 0 0 0.5 
956 2 2 0.370055 2.21721 7.23968 -32 0 0 -244.834 2.90075 -6.55703 -2368.5 915.899 -1089.26 0 0 0 0.5 
314 1 1 2.03563 2.28165 7.18749 -29 0 0 -304.31 21.702 12.3482 3299.56 -1578.65 1151.73 0 0 0 0.5 
287 1 1 3.97766 0.363935 6.81721 48 1 0 -484.921 -4.86077 4.26225 -2912.21 4594.92 -48.1825 0 0 0 0.5 
806 2 2 3.30576 2.36328 6.43046 -47 0 0 -191.759 -13.4768 19.1473 -963.367 1343.31 3309.7 0 0 0 0.5 
719 2 2 3.45017 0.966379 7.20059 60 1 0 -445.243 22.262 25.4511 447.137 740.622 302.854 0 0 0 0.5 
498 1 1 0.948534 0.820834 6.26881 102 1 0 -424.606 23.1307 26.2557 1627.89 185.118 2835.74 0 0 0 0.5 
586 2 2 1.19765 1.81479 7.26299 65 1 0 -304.164 -5.80961 -1.17185 -2047.84 2021.77 -2269.78 0 0 0 0.5 
495 1 1 4.57359 1.19265 7.77438 -28 0 0 -321.892 -34.4296 2.76487 -4878.51 1629.49 230.252 0 0 0 0.5 
830 2 2 0.376626 1.60688 6.74484 56 1 -1 -302.999 -16.6298 -24.362 -137.767 -1956.86 519.384 0 0 0 0.5 
141 1 1 2.10703 3.51214 7.2105 6 0 0 -113.182 2.79259 -14.5129 -1066.58 2088.54 -984.416 0 0 0 0.5 
741 2 2 0.747338 1.11076 7.71378 -70 0 0 -366.943 6.49526 -3.17607 598.683 1268.35 -1299.27 0 0 0 0.5 
818 2 2 1.81327 0.529006 6.65457 60 1 0 -424.576 -15.8308 -14.5188 -293.188 -1179.85 552.299 0 0 0 0.5 
722 2 2 0.0218841 0.863727 7.12906 -51 0 0 -409.035 4.74744 36.1599 297.831 1206.06 -556.505 0 0 0 0.5 
288 1 1 1.401 3.845 7.60848 6 0 -1 -106.806 9.31017 11.8001 114.692 -1512.46 344.041 0 0 0 0.5 
654 2 2 4.69263 2.59224 7.37073 -49 0 1 -208.784 -26.8785 30.1449 -1944.61 175.829 962.445 0 0 0 0.5 
205 1 1 0.966284 0.458624 7.32259 -72 0 -1 -411.45 -7.53955 -27.4476 -3770.24 2471.45 265.483 0 0 0 0.5 
345 1 1 0.242035 0.699534 6.41034 46 1 0 -444.729 -11.6899 1.21424 95.4735 -285.263 937.267 0 0 0 0.5 
924 2 2 1.22198 2.74515 7.12165 -22 0 0 -238.571 27.6745 2.58967 -2881.85 267.327 -806.211 0 0 0 0.5 
750 2 2 1.90857 1.44367 6.61672 -40 0 0 -358.043 -2.31203 -24.4057 1361.8 -3097.75 1093.07 0 0 0 0.5 
351 1 1 2.64828 2.93614 7.66583 -11 0 0 -194.416 -15.6262 -28.2902 -1218.02 -445.015 1905.84 0 0 0 0.5 
321 1 1 4.77225 4.06732 6.98622 14 0 -1 -27.9347 -14.3456 -9.63226 -1512.38 271.691 262.227 0 0 0 0.5 
446 1 1 4.25579 3.18058 7.07368 -15 0 0 -146.546 6.99352 -3.90636 -564.027 1302.55 -447.588 0 0 0 0.5 
383 1 1 3.31847 2.40381 7.72632 -15 0 0 -239.466 3.65515 -12.7596 1620.77 -304.124 -1340.53 0 0 0 0.5 
648 2 2 4.72086 1.54607 6.89849 67 1 0 -331.083 -13.5945 -10.0411 334.147 -396.765 345.072 0 0 0 0.5 
861 2 2 1.20411 4.83295 7.24713 0 0 0 -21.9496 2.91313 20.282 -526.262 -591.319 -652.852 0 0 0 0.5 
888 2 2 1.32707 4.15167 6.66171 107 1 0 -61.9692 -15.193 -13.9488 371.36 424.612 1524.12 0 0 0 0.5 
982 2 2 2.2267 4.97604 7.26124 -2 0 -1 -9.93726 12.3728 -20.6945 -279.3 853.21 -987.215 0 0 0 0.5 
829 2 2 2.79172 2.70424 6.01357 0 0 0 -172.784 -3.04264 -1.55845 -2472.04 5244.22 -85.954 0 0 0 0.5 
411 1 1 4.17994 2.45475 6.27405 -23 0 0 -219.154 3.15055 14.9163 275.986 2790.75 1348.79 0 0 0 0.5 
671 2 2 4.50236 4.53915 6.06294 5 0 0 -14.3479 -3.50392 13.1191 -718.095 -1594.88 1099.03 0 0 0 0.5 
844 2 2 2.92327 0.346884 6.61466 34 1 0 -459.463 -7.19787 24.4087 -550.497 2625.68 -2099.34 0 0 0 0.5 
990 2 2 3.11452 4.97286 6.8361 1 0 -1 -6.95545 9.99089 -10.699 145.497 205.003 563.108 0 0 0 0.5 
148 1 1 3.45987 3.36967 6.63659 -13 0 0 -148.457 1.10377 -9.15696 -489.429 116.274 -268.775 0 0 0 0.5 
206 1 1 4.61046 1.77001 6.06897 -34 0 0 -312.968 5.20152 -13.9846 422.417 -2676.44 -2298.31 0 0 0 0.5 
11 1 1 2.26806 4.41673 7.97693 -20 0 -1 -88.8039 34.3515 -10.4107 1521.1 -169.832 -228.529 0 0 0 0.5 
38 1 1 0.578944 4.19542 7.65747 -38 0 0 -99.4289 9.28982 -14.598 2506.01 400.952 240.206 0 0 0 0.5 
21 1 1 3.48529 1.51718 6.27748 -60 0 0 -293.917 -17.4664 36.5529 363.431 -2747.51 -703.103 0 0 0 0.5 
912 2 2 4.01693 4.66113 7.13254 18 0 -1 -10.7943 3.77149 -2.88168 -302.241 221.184 39.0844 0 0 0 0.5 
53 1 1 4.87632 4.63056 7.72808 4 0 0 -3.48978 0.149325 -3.2451 -160.485 799.132 -690.045 0 0 0 0.5 
272 1 1 4.49775 0.994415 9.2551 -60 0 -1 -338.44 -12.5989 13.621 546.673 -1455.7 1871.63 0 0 0 0.5 
99 1 1 1.79441 0.56647 9.14411 -25 0 -1 -405.694 3.9115 -4.57486 -517.072 546.211 -237.722 0 0 0 0.5 
492 1 1 1.77137 1.33237 8.40487 -76 0 0 -351.224 26.9983 6.74644 1445.81 551.319 155.559 0 0 0 0.5 
775 2 2 1.03989 0.346172 8.35213 -52 0 -1 -428.954 5.86414 -5.97731 263.539 -1173.35 -2060.4 0 0 0 0.5 
636 2 2 4.15279 1.33182 8.63075 -39 0 0 -325.7 -13.9979 -10.9815 -181.891 -967.77 1072.59 0 0 0 0.5 
908 2 2 0.483907 2.49063 9.09232 -33 0 0 -268.092 20.6213 28.1547 2711.36 -1657.03 -590.829 0 0 0 0.5 
318 1 1 4.52602 1.82652 9.62977 -22 0 0 -290.212 -7.25754 -6.44433 -1091.72 367.11 811.856 0 0 0 0.5 
448 1 1 2.19539 3.88632 9.21416 -7 0 0 -110.061 -2.20346 1.3605 163.921 425.057 78.6863 0 0 0 0.5 
776 2 2 0.698856 1.57608 9.79139 -38 0 0 -293.806 -18.4148 0.977768 -237.145 781.5 -387.093 0 0 0 0.5 
846 2 2 0.95534 1.9967 9.00774 -10 0 0 -297.627 15.0345 -6.31431 -298.542 -875.382 -1318.8 0 0 0 0.5 
800 2 2 1.60061 1.79477 9.39544 89 1 -1 -317.467 20.8236 -1.95588 1884.26 -1014.14 -69.908 0 0 0 0.5 
839 2 2 1.57404 3.96103 9.89154 -27 0 0 -102.373 -7.04732 25.8069 -87.626 10.5363 95.5282 0 0 0 0.5 
237 1 1 0.432924 1.23677 8.38502 -17 0 0 -353.256 -25.2977 20.824 57.4124 -2360.94 792.29 0 0 0 0.5 
42 1 1 0.794983 2.11281 8.01804 -40 0 0 -278.876 3.61948 19.6266 -348.21 333.672 1338.15 0 0 0 0.5 
9 1 1 0.363418 0.523312 9.86496 86 1 -1 -388.149 -10.6719 8.0941 -816.412 339.549 839.946 0 0 0 0.5 
142 1 1 2.08611 0.583518 8.08346 -37 0 -1 -428.42 -15.7596 -13.6334 -4156.38 2759.38 3456.66 0 0 0 0.5 
865 2 2 2.18814 3.03288 8.83515 -27 0 -1 -206.565 -4.33402 -1.34636 -382.976 646.668 488.242 0 0 0 0.5 
771 2 2 1.1191 1.23321 8.75607 -40 0 -1 -348.394 -15.9481 20.9563 648.052 -716.693 2287.37 0 0 0 0.5 
909 2 2 2.48504 3.66536 8.08377 -3 0 0 -140.814 -0.434698 11.8832 100.773 -741.536 -6.15664 0 0 0 0.5 
766 2 2 2.49803 2.32072 8.40164 -24 0 0 -256.998 -15.7806 -10.2211 316.277 -177.838 -1628.38 0 0 0 0.5 
661 2 2 1.53756 2.94651 9.65149 -15 0 -1 -177.288 -0.237101 12.0466 -913.246 -240.798 -1056.24 0 0 0 0.5 
415 1 1 3.34607 3.66087 9.81235 1 0 -1 -107.787 8.93011 -7.96378 234.06 -1195.74 783.944 0 0 0 0.5 
703 2 2 0.712518 0.446168 9.11838 -61 0 0 -413.022 -1.67585 7.346 375.055 -551.866 -993.035 0 0 0 0.5 
52 1 1 2.72184 0.513728 9.65964 100 1 0 -418.184 10.8828 -8.46232 -606.658 888.082 -1018.68 0 0 0 0.5 
557 2 2 2.52679 0.14201 8.7898 48 1 0 -425.556 -25.3329 3.66943 537.187 -168.744 -1148.79 0 0 0 0.5 
876 2 2 3.11081 3.07901 9.14181 -15 0 0 -196.123 2.03864 -12.2308 -20.486 499.855 -384.758 0 0 0 0.5 
43 1 1 4.19692 0.254595 9.68101 -35 0 0 -439.994 -5.59179 21.8867 -928.479 1629.7 168.765 0 0 0 0.5 
267 1 1 1.34067 0.532256 9.95175 -63 0 0 -381.732 1.14061 7.84265 255.308 -1438.61 -647.847 0 0 0 0.5 
454 1 1 2.96383 0.680698 8.14446 62 1 0 -429.309 22.5507 18.3739 -336.014 -1969.99 -1693.85 0 0 0 0.5 
413 1 1 0.0772453 2.72468 8.52003 -31 0 -1 -239.247 10.129 -9.37872 3631.73 -1896.69 -1185.67 0 0 0 0.5 
384 1 1 3.07244 4.05751 9.05822 -31 0 0 -91.8613 -8.61683 -14.6804 -121.08 -765.208 -747.463 0 0 0 0.5 
87 1 1 1.62194 4.50497 8.42269 5 0 0 -82.8874 -0.863688 5.21305 582.432 -1270.72 1448.7 0 0 0 0.5 
805 2 2 3.70862 1.81579 8.18212 -45 0 -1 -291.369 1.53527 -19.2354 -110.417 -670.289 502.466 0 0 0 0.5 
467 1 1 0.772588 3.37245 9.48939 100 1 0 -161.383 14.3279 36.6814 -1261.01 878.74 -304.385 0 0 0 0.5 
727 2 2 0.210357 4.17849 9.27666 -38 0 0 -87.2161 -0.213657 -23.3497 1445.29 -1171.81 -918.238 0 0 0 0.5 
843 2 2 0.903293 4.9744 8.34167 9 0 0 -52.6554 -6.24814 -11.5797 -103.708 -3288.9 553.66 0 0 0 0.5 
767 2 2 4.82479 2.40082 8.89645 -30 0 0 -259.573 9.70633 3.33975 234.696 526.407 1125.86 0 0 0 0.5 
284 1 1 3.82767 3.38542 8.57069 -65 0 0 -206.445 16.3237 -27.6118 -91.428 49.8023 -108.315 0 0 0 0.5 
229 1 1 3.02075 1.82093 8.85953 -24 0 0 -268.838 -31.262 20.786 321.282 -349.84 -12.7473 0 0 0 0.5 
241 1 1 4.73935 3.23097 8.10412 100 1 0 -147.991 1.49963 36.3143 -53.5811 -732.583 -841.143 0 0 0 0.5 
566 2 2 3.20489 2.49174 9.7642 80 1 0 -251.68 10.1851 4.26729 1733.63 -1858.56 982.375 0 0 0 0.5 
565 2 2 4.51017 3.1137 9.17534 -17 0 0 -215.351 25.6883 -3.31248 463.251 3211.17 222.134 0 0 0 0.5 
532 2 2 1.92344 4.88577 9.31701 25 0 -1 -17.1752 -3.03005 -9.80684 1227.29 -315.803 225.979 0 0 0 0.5 
516 2 2 3.82793 2.13628 9.21341 -64 0 0 -260.06 9.92195 -14.0227 -1028.05 541.341 -1316.07 0 0 0 0.5 
146 1 1 0.765821 3.61784 8.42875 -5 0 0 -144.781 25.5795 22.782 -997.061 2069.04 897.729 0 0 0 0.5 
852 2 2 3.65248 1.1257 9.45266 -53 0 0 -332.309 -16.5938 -7.61424 -2604.13 151.094 -1998.8 0 0 0 0.5 
896 2 2 2.93493 4.80541 8.88976 -2 0 -1 -30.6361 1.422 -2.79452 2006.17 -2278.22 97.6809 0 0 0 0.5 
110 1 1 1.06366 3.02512 8.03513 -13 0 0 -212.533 5.89322 3.98261 1210.8 -742.473 -1223.53 0 0 0 0.5 
765 2 2 3.41222 0.0313958 9.16235 69 1 -1 -417.991 -8.75928 -9.13263 -3137.36 5393.31 -1988.6 0 0 0 0.5 
265 1 1 4.94697 1.76713 8.51769 -25 0 0 -330.528 11.303 -6.61259 -964.45 -609.154 -2038.02 0 0 0 0.5 
23 1 1 4.99121 0.515843 8.72992 -34 0 0 -385.195 -13.7888 -7.9058 1684.64 -517.826 -1388.81 0 0 0 0.5 
195 1 1 4.54147 9.5579 0.204485 -45 -1 1 537.744 -20.8621 4.19267 -3119.19 -2009.98 -442.135 0 0 0 0.5 
88 1 1 4.88308 8.58559 0.172117 21 0 1 330.49 17.8074 0.622725 1388.69 -33.0484 381.493 0 0 0 0.5 
811 2 2 3.15912 5.6832 0.855444 -1 0 1 44.3517 -8.47752 -10.7556 -85.1614 -1213.04 -1672.7 0 0 0 0.5 
452 1 1 4.81353 6.34458 1.16777 10 0 0 72.5764 33.8391 7.96712 1897.06 858.95 -1017.37 0 0 0 0.5 
718 2 2 2.93571 7.59274 0.0265196 -56 -1 1 270.54 2.53684 7.24137 -258.963 2597.31 301.695 0 0 0 0.5 
221 1 1 4.51996 7.3167 1.88918 31 0 0 254.675 9.53801 -4.86198 2021.25 -815.801 1605.95 0 0 0 0.5 
570 2 2 2.97051 8.0185 0.783033 -61 -1 1 296.338 1.3535 -6.74066 -217.43 174.746 -311.22 0 0 0 0.5 
376 1 1 3.33557 9.29548 1.62564 -40 -1 0 438.075 -22.0956 -9.87504 -849.422 -987.628 -2054.48 0 0 0 0.5 
230 1 1 3.55191 8.49992 0.0865206 55 0 1 365.944 -11.7097 -10.815 -166.242 3164.17 -2634.52 0 0 0 0.5 
400 1 1 3.08419 8.77037 0.36186 -34 -1 0 395.591 13.3785 -10.0681 -227.944 -1364.66 3452.28 0 0 0 0.5 
5 1 1 3.99467 7.72262 0.485056 9 0 0 268.361 28.9526 -24.2027 805.817 -1075.95 2043.16 0 0 0 0.5 
710 2 2 1.15196 9.09826 1.70892 46 0 0 445.115 -13.1986 -42.5433 -1843.05 -876.101 -577.641 0 0 0 0.5 
466 1 1 3.82419 7.41346 1.54841 30 0 0 258.769 -11.6149 -5.91317 1.82291 -1380.83 638.988 0 0 0 0.5 
95 1 1 1.64469 5.17588 1.9378 -6 0 0 20.0014 -21.5517 -24.0611 -1513.01 -415.219 2729.76 0 0 0 0.5 
210 1 1 0.270004 9.61903 0.835711 54 0 0 497.048 -21.5499 -6.75844 207.705 474.569 1030.79 0 0 0 0.5 
407 1 1 3.58847 6.58326 1.20399 19 0 0 139.577 -2.24222 -17.1392 271.026 825.605 14.4043 0 0 0 0.5 
302 1 1 1.08607 8.98828 0.397121 53 0 1 451 -8.76696 -7.18483 -1262.09 3723.44 -1155.53 0 0 0 0.5 
252 1 1 1.1032 9.80693 1.0538 69 0 1 513.496 15.0389 0.783557 -180.733 686.797 -696.72 0 0 0 0.5 
26 1 1 1.95059 9.23622 0.0227885 60 0 0 443.981 16.7104 -8.27216 1355.82 -224.312 809.601 0 0 0 0.5 
194 1 1 4.80351 7.48462 0.879408 -94 -1 0 243.954 2.27631 0.966349 766.701 -225.601 373.809 0 0 0 0.5 
78 1 1 4.04344 5.51761 1.02324 9 0 1 42.7955 0.913139 -14.2277 -930.234 1504.5 342.501 0 0 0 0.5 
812 2 2 2.87024 7.99799 1.65298 26 0 1 322.982 -12.1219 20.9473 -738.815 -845.354 -1945.87 0 0 0 0.5 
328 1 1 2.5829 6.66069 0.543913 2 0 0 143.017 -2.41798 8.17328 1653.2 156.52 85.3971 0 0 0 0.5 
85 1 1 1.18982 7.41652 1.84483 46 0 1 241.189 -0.966057 16.8168 -385.357 850.716 2078.61 0 0 0 0.5 
322 1 1 1.66479 6.58177 0.447489 9 0 0 157.796 -10.4893 27.0973 359.608 605.417 -2686.02 0 0 0 0.5 
337 1 1 2.22762 9.73292 1.07764 62 0 0 475.756 -4.39417 24.991 1180.96 -2828.93 -913.276 0 0 0 0.5 
733 2 2 4.42609 9.54223 1.55513 76 0 0 412.483 -16.7357 0.816302 -18.4692 -301.937 -7.20343 0 0 0 0.5 
887 2 2 1.93423 9.13493 1.97732 35 0 0 418.693 8.77472 -8.59525 -241.873 3332.79 -602.54 0 0 0 0.5 
874 2 2 1.88045 7.5141 0.307146 30 0 0 243.995 -0.196089 18.6911 -480.192 -952.882 -962.363 0 0 0 0.5 
292 1 1 1.20905 6.25281 1.23706 -109 -1 0 115.991 -1.0036 -25.7586 -5776.34 3142.58 177.072 0 0 0 0.5 
552 2 2 1.97307 8.09284 1.54225 34 0 0 319.541 -15.1363 0.929355 -100.438 475.58 331.202 0 0 0 0.5 
986 2 2 0.25676 6.6814 1.26744 32 0 1 164.615 -3.61753 -16.422 55.0797 -4.82147 69.9931 0 0 0 0.5 
906 2 2 4.07713 6.88833 0.362316 19 0 0 129.985 22.4385 -1.79603 -65.8181 -1292.02 -338.179 0 0 0 0.5 
494 1 1 -0.00803304 5.57304 0.10682 6 0 0 65.6881 -7.0306 8.93975 -1869.77 782.492 709.659 0 0 0 0.5 
515 2 2 1.31856 8.10337 0.781523 -73 -1 0 267.603 37.6109 13.5597 -88.8047 -5581.39 1021.5 0 0 0 0.5 
649 2 2 0.511568 6.5818 0.129231 -6 0 1 164.453 -3.75277 3.7074 1530.68 812.151 973.985 0 0 0 0.5 
144 1 1 0.876728 5.53374 0.705356 -8 0 0 72.806 10.9477 -12.4397 -1559.03 -828.885 -2279.32 0 0 0 0.5 
791 2 2 3.36188 7.52844 0.943381 19 0 0 274.542 -34.962 3.08418 -769.222 -1740.74 -1794.48 0 0 0 0.5 
713 2 2 2.66221 8.67182 1.1062 -71 -1 1 391.914 2.88033 22.016 -1313.96 4797.14 -311.495 0 0 0 0.5 
632 2 2 1.96588 5.74993 0.941117 16 0 0 48.9875 18.9488 -0.179107 4458.71 -3160.79 -3487.74 0 0 0 0.5 
435 1 1 0.939655 7.27742 0.50798 8 0 0 212.109 7.39989 -4.92473 2533.85 817.239 973.333 0 0 0 0.5 
981 2 2 1.31328 7.08278 1.10178 25 0 0 203.391 12.3066 17.391 829.576 48.6639 675.855 0 0 0 0.5 
872 2 2 2.02346 5.00689 0.285668 -5 0 0 -16.6958 0.247141 -2.83996 -46.2343 354.633 464.823 0 0 0 0.5 
103 1 1 2.80211 6.26379 1.47601 0 0 0 135.805 -16.3133 5.74519 -2006.89 1579.97 707.456 0 0 0 0.5 
582 2 2 1.49713 5.96752 1.73274 11 0 0 91.7399 12.3127 -8.30417 647.145 -326.437 4330.55 0 0 0 0.5 
853 2 2 2.81753 9.38753 0.620666 33 0 0 465.972 15.9458 -16.298 -1040.28 1240.78 2024.22 0 0 0 0.5 
102 1 1 2.99176 5.10595 0.0921585 -2 0 0 -16.167 -4.53848 -4.41143 453.501 -1584.87 417.667 0 0 0 0.5 
212 1 1 3.24486 9.99145 1.77087 85 0 0 531.901 -1.76166 -8.69118 519.066 -995.057 -16.0196 0 0 0 0.5 
109 1 1 4.18757 6.09086 1.75193 4 0 0 120.05 -8.46113 7.35447 -60.2032 -1206.91 516.046 0 0 0 0.5 