# vtk DataFile Version 4.2
Generated by LIGGGHTS
ASCII
DATASET POLYDATA
POINTS 1000 float
1.20102 2.95191 0.689993 2.0097 0.866628 1.06509 1.11291 0.840638 0.50265 
4.16381 4.91258 0.0505169 1.9397 2.49759 0.717215 1.59652 1.77686 1.19652 
0.714031 2.53401 1.39729 2.40681 0.189028 0.898088 4.84401 3.40362 1.46414 
0.0319756 1.04173 0.324256 2.33885 4.47006 0.212095 2.38459 1.72629 0.529044 
0.459899 1.82129 0.848496 1.62406 2.70509 1.52456 1.28366 1.96467 0.339476 
3.41349 2.21647 0.0405112 0.531277 0.873362 1.94354 1.99886 3.53237 0.427546 
4.639 3.98149 0.973516 1.58027 3.50186 1.86233 4.4953 1.02065 1.05258 
1.50167 1.13243 1.5939 0.710663 1.22079 0.711391 3.66308 2.58746 1.26094 
0.889727 0.0326939 0.750201 0.522834 2.61833 0.545457 4.79608 4.82975 0.724266 
3.21474 1.69816 1.3749 0.646727 3.13442 1.9531 1.61137 4.30503 1.6099 
3.64823 4.34887 1.39945 3.62074 3.23512 0.772506 2.14286 4.99162 1.1042 
0.71389 4.46128 1.46088 0.718267 3.92411 0.575263 3.99177 1.92743 0.892946 
2.76862 3.28942 1.19425 4.31842 1.94423 0.0223782 3.4671 3.20898 1.90875 
0.0641218 3.49914 1.40465 0.134031 3.06521 0.332827 1.40691 4.42651 0.425647 
3.58083 1.01759 0.525406 2.86101 3.3488 0.246645 0.446599 4.76251 0.667285 
4.19402 4.079 0.136288 4.78825 2.16119 1.98199 2.97409 4.85009 1.58212 
3.68867 1.08459 1.58584 4.1918 2.55638 1.77175 4.53825 3.06692 0.502105 
2.61684 0.425239 2.338 4.16914 0.984355 2.94018 1.17676 0.604704 2.236 
0.434998 0.135917 3.56804 1.96771 0.0958965 3.9155 2.06515 2.90844 2.7192 
3.86226 1.58163 3.06555 1.94544 0.507245 2.23436 1.8278 2.07282 2.08955 
1.3615 0.452601 3.14133 2.92061 4.27472 2.36592 3.23285 3.29992 3.41556 
3.81798 4.84598 3.90652 2.54036 3.36953 2.06495 1.53674 1.77426 2.84029 
0.65728 1.32763 2.97773 0.697207 1.06459 3.8898 2.25912 4.67968 2.24545 
0.498978 1.64605 2.11071 2.02567 1.21288 3.13383 0.818597 2.05408 3.01726 
0.295856 2.49247 2.77778 1.95869 3.44096 3.5375 0.983445 2.4629 2.20448 
4.59698 0.643165 3.64618 2.59909 1.89007 3.69125 2.2974 3.91165 2.8569 
0.584001 1.94383 3.90195 0.56751 0.607368 2.86036 3.68207 2.69132 3.0681 
1.17793 3.53096 3.21785 4.40397 2.73554 3.76754 2.85546 2.4386 2.819 
3.97644 0.306895 2.65636 2.50833 1.46317 2.20653 3.51955 4.11063 3.34435 
2.98451 4.61363 3.48226 3.12444 1.25598 2.53676 0.043921 4.3399 2.96452 
3.60272 1.89209 3.7232 2.92472 0.732996 3.34322 3.40259 2.21721 2.13986 
1.01343 4.24093 2.54539 4.32693 2.47979 2.78958 0.598983 4.12579 3.90261 
0.286368 3.40327 2.57813 1.56486 4.33925 3.91141 4.27287 1.35848 2.10415 
4.27721 3.853 3.90935 4.3589 3.19679 2.32469 4.48393 4.03551 2.14978 
4.59766 1.91488 3.87465 4.8118 2.1631 2.94924 4.79275 4.13204 3.0636 
4.79415 4.7364 3.65702 4.95214 3.34665 3.08791 2.87909 1.7674 5.51594 
0.307553 0.102835 4.48684 2.01328 0.563797 5.23733 1.53192 1.10656 5.60519 
0.00598716 0.989608 4.46392 1.5337 1.8365 5.36967 0.58957 1.11982 5.87951 
4.48899 3.27888 4.74358 0.872752 4.8757 5.46391 0.579106 3.10559 5.37294 
3.9151 4.03438 4.71795 0.0412065 1.97145 4.74104 2.41051 4.25419 5.38687 
1.12588 2.53778 5.8344 1.11592 0.200406 5.30664 1.2671 3.03313 4.09725 
4.56054 1.4062 4.44907 2.37686 1.29749 4.53145 3.1984 1.41178 4.44587 
1.89127 2.6777 5.1168 1.03625 2.69822 4.89882 0.174842 2.6876 4.07945 
1.43093 0.671817 4.27839 1.34162 2.19516 4.29643 1.67995 1.56269 4.44995 
0.506582 0.825655 5.10038 0.572343 3.92082 5.71724 0.70324 3.56102 4.44921 
1.69058 4.24232 4.95812 2.82674 2.71378 5.44186 3.51962 2.68592 4.0482 
3.82094 3.47007 5.46161 4.44989 0.106804 4.9152 3.01454 4.06655 4.24622 
1.71851 3.46639 5.8806 3.69877 2.59093 5.06629 4.75141 3.90549 5.40911 
2.85403 3.27611 4.30626 3.75776 0.9515 4.15445 2.63135 2.36851 4.53509 
0.243129 4.24233 4.87814 4.00937 0.23227 4.26159 0.248234 4.77019 4.15598 
3.60264 0.739524 5.312 4.33754 1.84855 5.69051 4.43717 0.0924857 5.96749 
4.51911 3.13306 5.98062 4.75532 2.4704 4.67952 4.9825 0.792222 5.4066 
4.93471 4.26808 4.58649 4.9289 4.45146 5.97199 2.21521 2.81058 6.10537 
2.32248 1.10038 6.10746 2.39539 3.17503 7.61513 2.17982 2.00066 6.08096 
1.50574 3.00286 7.38257 3.1564 2.78727 6.42192 2.07187 0.572724 6.85952 
0.296918 0.247823 6.02258 1.33325 1.14357 7.18599 0.814921 3.27353 7.71411 
1.15733 1.76841 6.28072 2.33873 2.17251 7.35764 0.53203 2.20783 7.48119 
2.10816 1.24519 7.6071 4.3246 0.840892 6.54515 4.67553 1.39154 7.30934 
0.0121891 2.08039 6.23028 3.24636 0.823922 6.25591 3.04334 3.43067 7.03239 
1.43472 1.72299 7.8132 1.67796 2.87148 6.62116 0.816789 0.780385 6.61181 
4.87088 1.81284 6.518 0.107032 0.0311991 7.06493 1.61847 3.83925 6.72091 
2.87139 4.07351 7.72076 0.489365 1.3459 7.63714 2.10699 3.87783 7.7795 
3.36354 2.61312 7.95001 2.69666 4.59498 6.92491 4.44929 4.28024 7.33524 
1.39446 2.09208 7.07414 4.30069 3.84389 6.51465 2.09956 4.63892 6.26843 
4.1599 4.84866 6.38472 3.55572 1.76454 6.51529 3.5794 4.30411 7.43109 
1.2475 4.28279 7.8053 2.52758 3.70066 6.63108 2.65466 1.77973 6.72646 
0.738159 4.16224 6.85719 1.90032 4.54557 7.27632 3.98796 0.313737 7.34317 
3.95613 1.97994 7.46528 3.97539 2.66648 6.82032 2.52256 0.585069 7.84795 
3.14112 0.58256 7.20003 0.135954 3.3921 7.22257 4.83039 2.22802 7.90308 
1.90267 1.24554 8.48825 1.51851 4.08374 9.48273 2.44515 2.03127 9.83747 
1.1741 2.72996 8.21927 1.62396 0.486658 9.88156 3.43664 3.43512 9.18979 
0.0655807 0.00796231 9.27198 0.891439 2.32276 9.84157 0.978636 0.259444 8.30504 
1.79569 4.66913 8.37378 1.10018 1.37796 9.69634 1.09909 3.21879 9.87766 
0.492157 2.95413 8.77998 1.12439 1.88278 8.47032 4.07805 0.0722844 8.90724 
3.41387 4.78816 8.99465 2.90089 1.3882 8.53647 1.18375 0.678257 9.14841 
0.938325 0.986681 8.33784 1.92425 2.04102 8.94074 0.694507 1.63049 9.13604 
0.162516 2.18737 9.47384 4.62092 0.448315 9.74585 1.3298 2.84848 9.13781 
0.210973 0.782677 8.7158 2.03596 2.70894 9.60952 4.38586 4.24276 9.07185 
1.0685 3.8152 8.54313 3.59757 4.20639 9.49143 2.56091 4.52488 8.48095 
1.20823 4.82081 9.10956 4.9095 3.46135 9.26736 3.96749 3.65103 8.0656 
0.701213 4.46741 9.81392 2.57689 3.68758 8.86635 2.83251 1.9011 9.17996 
2.29387 2.44944 8.12433 0.515462 3.56427 9.5286 3.29723 0.15098 9.87635 
2.44801 0.493592 8.91029 0.280743 4.95032 8.3812 3.14308 2.62458 8.8395 
0.0155058 3.79598 8.88931 0.207211 4.62188 9.17809 4.15749 4.92946 8.50891 
3.98096 0.750644 8.11981 4.29413 1.29274 9.31774 3.54994 3.01738 9.80113 
3.12368 3.42169 8.2859 4.74006 4.50998 8.20215 4.95074 4.41676 9.77942 
3.01379 6.83026 0.783765 1.52773 9.96025 1.24643 4.62466 6.10737 1.12236 
3.52042 7.13677 1.49322 2.93163 7.76284 0.48608 3.45915 5.41603 0.043781 
2.8709 8.61174 0.00664052 0.21486 9.32942 1.85936 2.86432 9.41512 0.459937 
2.15495 9.69124 1.7721 3.80624 8.6993 0.908074 3.54865 7.98764 1.59456 
1.57154 9.78843 0.323898 1.47428 5.23844 0.0266462 2.08224 6.04016 1.12537 
3.05271 5.95945 1.13513 0.647983 9.26799 0.283432 4.16366 6.65896 0.581203 
0.796042 9.97768 1.66578 3.90099 7.90105 0.373643 0.967292 9.02344 1.4576 
2.18722 6.76595 0.526597 2.95316 8.76231 1.17711 0.8545 7.45297 0.726132 
2.03623 7.26329 1.1033 0.00165639 5.38572 0.84328 4.52711 8.51507 1.15021 
2.48456 5.99133 1.98925 0.722965 7.26205 1.64928 2.7053 5.5563 0.318192 
-0.0500363 6.59706 0.668085 0.847878 6.55306 1.11255 1.20402 6.65063 0.327225 
0.758871 5.44787 1.50443 1.34228 5.28311 0.877536 0.276271 6.12469 1.64324 
3.77623 6.33593 1.46148 4.41562 6.96624 1.81878 0.594207 8.1361 1.28655 
4.78701 5.88405 1.9316 4.06262 9.61166 1.82729 2.10799 8.03463 1.50526 
3.78555 5.4979 1.47752 2.55496 6.84725 1.77978 1.86849 8.84771 1.24831 
4.47012 7.60858 0.754765 1.81414 7.38218 2.5478 4.06203 5.61679 3.34036 
3.19278 5.51507 2.22088 0.0932591 8.95584 3.93218 0.538808 9.81439 2.58345 
2.86729 9.00385 2.88578 4.1992 8.44846 3.53182 1.58143 9.60468 2.97174 
4.29786 5.06232 2.38299 3.86552 8.99694 3.11304 4.13726 6.00547 2.23001 
3.26275 5.47182 3.88545 1.08573 8.99983 3.91193 0.948405 9.843 3.88566 
3.27169 6.56732 2.69259 4.09182 7.89839 2.62422 3.20068 8.3444 3.69078 
1.38888 8.60216 2.37694 3.77684 9.67024 3.01995 3.33704 8.20691 2.84263 
1.26044 6.33968 3.19734 1.34524 9.55361 2.18146 3.25755 7.209 3.267 
2.2842 5.94056 3.43681 1.1497 7.20502 3.30153 0.096073 8.97649 2.88836 
-0.0465338 7.58025 2.25202 0.088023 8.202 3.33655 0.421399 7.70909 3.76915 
2.76374 5.2088 3.03835 0.886967 5.6079 3.79291 2.48712 7.89242 3.09409 
2.08564 6.59417 2.67474 1.85119 8.99298 3.3978 2.13731 5.39597 2.666 
1.07143 5.06345 2.18601 0.314097 6.17103 3.45277 0.399173 6.07343 2.50675 
3.14511 8.55961 2.05007 1.41133 5.75739 2.58807 4.35222 9.58041 3.88087 
2.42444 8.79607 2.00603 0.363169 7.06412 2.78708 2.43092 8.57854 3.60932 
1.91177 8.16901 2.74041 3.77052 6.14959 2.77585 1.10847 6.8296 2.3071 
2.42943 7.17521 3.51974 0.0411979 5.19085 2.63139 3.76657 6.38227 3.67057 
4.6165 7.34592 2.62732 4.5893 7.43673 3.60127 4.70716 6.55395 3.53618 
4.91523 5.6116 3.2295 3.62248 8.49022 5.35314 4.27961 9.38151 5.36329 
3.36319 9.97313 5.99113 2.71387 8.94125 5.35508 3.72977 7.29286 5.14265 
3.54392 9.24951 5.01063 2.69699 8.68951 4.45739 4.84416 7.67508 5.56273 
1.48669 9.49851 5.57072 2.6355 6.55986 4.9423 0.649382 8.59472 5.14748 
3.23335 7.44027 4.11998 3.06464 7.1303 5.90109 3.36568 5.82421 5.6928 
0.578353 9.44052 4.76879 4.47114 5.83764 5.36319 4.5779 8.54513 5.59539 
4.56953 5.58313 4.4703 1.02921 6.46864 4.0966 2.89207 7.48854 5.15225 
0.267053 7.13922 4.82957 2.70073 8.17414 5.28406 2.43565 6.0195 5.70288 
4.30218 6.42153 4.48544 1.65608 5.70559 4.76826 1.96856 7.36398 5.38254 
0.851006 5.73691 4.74523 0.535998 5.63882 5.5915 4.15841 8.15854 4.76779 
2.15738 7.85486 4.14638 1.2059 6.57951 5.72401 2.20767 7.20299 4.51501 
2.38697 9.76579 5.27851 1.57993 8.04747 5.51609 0.49805 6.31235 4.88878 
0.721723 7.08032 5.53822 2.22604 5.13461 4.8402 2.12773 6.47557 4.0745 
1.67314 6.55527 5.01652 4.76275 6.79996 5.26384 0.983552 7.27206 4.25872 
3.37916 9.38824 4.09027 1.68165 5.12824 5.69955 3.19952 8.12512 4.55084 
[...]
POINT_DATA 1000
FIELD FieldData 7
id 1 1000 int
851 542 952 437 126 482 581 259 416 
205 699 354 568 454 984 147 877 186 
446 908 22 503 120 656 750 626 889 
606 350 819 831 912 317 161 218 1000 
768 39 731 549 80 301 711 778 924 
226 958 846 181 794 975 683 193 603 
982 178 148 833 598 307 248 765 803 
76 21 658 189 702 104 895 172 400 
835 464 989 414 51 789 96 426 364 
850 180 459 269 389 394 243 940 816 
620 263 593 67 741 624 770 90 130 
336 266 562 197 828 88 871 153 270 
985 131 780 786 280 338 931 836 995 
58 55 86 42 367 572 10 763 629 
957 544 939 751 445 890 551 190 798 
492 661 674 806 745 552 93 821 40 
951 909 61 101 524 501 308 139 777 
919 875 79 415 220 82 754 375 278 
84 616 134 783 565 252 283 408 938 
17 169 941 345 337 910 652 932 239 
660 694 862 529 168 611 329 204 113 
485 5 371 650 260 608 766 516 705 
142 586 470 935 927 746 614 613 249 
16 198 977 33 761 9 708 795 372 
764 966 311 410 310 498 949 899 322 
756 573 717 868 421 721 163 863 671 
136 646 331 264 196 348 268 98 804 
675 767 210 167 520 314 125 547 891 
378 483 159 926 555 214 852 109 472 
302 187 467 670 920 66 925 325 455 
638 623 755 883 47 752 738 118 948 
304 916 170 462 458 588 587 396 341 
779 404 419 902 149 972 171 634 856 
839 395 704 209 279 141 212 841 477 
213 729 499 45 963 655 340 825 38 
289 811 536 707 240 906 275 514 387 
151 802 100 847 435 942 449 657 476 
299 234 617 627 133 206 195 950 560 
724 380 110 701 83 967 29 642 489 
515 160 534 727 143 682 732 53 227 
466 500 818 874 490 553 907 564 799 
475 432 94 712 146 781 244 230 570 
402 867 221 479 370 59 964 676 969 
313 158 255 335 8 85 451 531 145 
497 943 866 901 484 505 990 800 407 
174 532 447 363 417 734 463 979 937 
698 431 897 423 48 166 714 599 796 
668 594 749 900 643 184 44 933 718 
610 830 223 365 103 730 892 546 725 
262 92 992 297 706 376 381 686 917 
50 496 70 175 703 757 915 528 448 
323 355 946 914 296 202 595 567 150 
32 276 116 775 805 869 903 188 36 
680 315 618 632 684 589 128 651 554 
343 379 424 360 369 719 382 813 192 
326 681 127 728 452 427 894 457 37 
135 790 330 973 105 440 905 713 374 
177 644 321 787 207 361 930 857 541 
722 208 25 782 986 539 911 138 254 
579 896 91 921 700 744 654 527 284 
968 62 480 293 566 439 392 860 956 
993 887 391 569 23 358 540 155 918 
526 481 506 222 182 769 309 450 742 
509 809 78 530 962 812 478 418 557 
399 666 273 312 217 792 339 333 327 
625 488 760 231 405 785 808 842 913 
944 413 3 19 191 41 247 232 56 
647 203 65 211 523 591 356 332 282 
848 347 428 185 592 288 556 320 667 
612 823 258 486 495 390 251 228 665 
406 342 154 971 844 295 285 35 575 
619 64 788 609 580 12 826 747 590 
510 353 95 988 74 640 639 697 737 
1 352 922 687 393 253 441 200 865 
688 224 24 292 759 980 281 102 97 
460 115 291 987 140 468 31 487 720 
346 245 959 201 290 845 961 983 7 
132 199 843 233 373 645 748 773 797 
521 237 577 157 648 827 277 106 947 
607 121 287 11 298 861 810 533 438 
880 743 954 733 165 582 430 318 753 
502 904 465 596 881 173 740 241 559 
108 726 257 316 162 2 383 999 882 
978 929 425 853 692 715 194 690 621 
229 538 876 774 677 28 832 26 543 
368 420 664 384 928 235 242 696 144 
997 412 637 265 18 20 772 817 409 
858 849 27 411 758 493 471 274 429 
286 545 864 386 597 49 152 691 362 
349 183 695 563 443 300 75 164 112 
571 548 176 444 855 994 574 324 334 
117 576 923 14 583 111 837 685 602 
739 261 820 401 6 518 762 885 442 
114 250 63 723 513 633 344 351 398 
628 385 870 461 216 663 535 179 996 
319 122 525 859 81 622 267 71 873 
829 215 814 504 124 238 558 771 366 
801 604 99 630 15 669 54 434 522 
659 600 653 43 294 631 884 991 550 
156 107 893 974 872 473 456 469 716 
256 585 68 822 965 584 815 69 673 
77 678 709 878 649 693 934 672 225 
517 491 422 403 271 512 898 306 507 
838 305 436 89 662 474 72 519 791 
123 328 433 219 511 970 57 793 888 
955 601 834 936 641 615 87 246 129 
636 377 52 981 886 537 635 13 388 
4 689 854 960 710 998 494 736 945 
578 807 784 508 453 605 776 359 73 
561 30 137 735 272 119 46 236 879 
679 976 60 824 34 303 397 953 357 
840 
type 1 1000 int
2 2 2 1 1 1 2 1 1 
1 2 1 2 1 2 1 2 1 
1 2 1 2 1 2 2 2 2 
2 1 2 2 2 1 1 1 2 
2 1 2 2 1 1 2 2 2 
1 2 2 1 2 2 2 1 2 
2 1 1 2 2 1 1 2 2 
1 1 2 1 2 1 2 1 1 
2 1 2 1 1 2 1 1 1 
2 1 1 1 1 1 1 2 2 
2 1 2 1 2 2 2 1 1 
1 1 2 1 2 1 2 1 1 
2 1 2 2 1 1 2 2 2 
1 1 1 1 1 2 1 2 2 
2 2 2 2 1 2 2 1 2 
1 2 2 2 2 2 1 2 1 
2 2 1 1 2 2 1 1 2 
2 2 1 1 1 1 2 1 1 
1 2 1 2 2 1 1 1 2 
1 1 2 1 1 2 2 2 1 
2 2 2 2 1 2 1 1 1 
1 1 1 2 1 2 2 2 2 
1 2 1 2 2 2 2 2 1 
1 1 2 1 2 1 2 2 1 
2 2 1 1 1 1 2 2 1 
2 2 2 2 1 2 1 2 2 
1 2 1 1 1 1 1 1 2 
2 2 1 1 2 1 1 2 2 
1 1 1 2 2 1 2 1 1 
1 1 1 2 2 1 2 1 1 
2 2 2 2 1 2 2 1 2 
1 2 1 1 1 2 2 1 1 
2 1 1 2 1 2 1 2 2 
2 1 2 1 1 1 1 2 1 
1 2 1 1 2 2 1 2 1 
1 2 2 2 1 2 1 2 1 
1 2 1 2 1 2 1 2 1 
1 1 2 2 1 1 1 2 2 
2 1 1 2 1 2 1 2 1 
2 1 2 2 1 2 2 1 1 
1 1 2 2 1 2 2 2 2 
1 1 1 2 1 2 1 1 2 
1 2 1 1 1 1 2 2 2 
1 1 1 1 1 1 1 2 1 
1 2 2 2 1 2 2 2 1 
1 2 1 1 1 2 1 2 2 
2 1 2 1 1 1 2 2 2 
2 2 2 2 2 1 1 2 2 
2 2 1 1 1 2 2 2 2 
1 1 2 1 2 1 1 2 2 
1 1 1 1 2 2 2 2 1 
1 1 2 2 1 1 2 2 1 
1 1 1 2 2 2 2 1 1 
2 1 2 2 2 2 1 2 2 
1 1 1 1 1 2 1 2 1 
1 2 1 2 1 1 2 1 1 
1 2 1 2 1 1 2 2 1 
1 2 1 2 1 1 2 2 2 
2 1 1 2 2 2 2 1 1 
2 2 1 2 2 2 2 2 1 
2 1 1 1 2 1 1 2 2 
2 2 1 2 1 1 2 1 2 
2 1 2 1 1 2 1 1 2 
2 2 1 2 2 2 1 1 2 
1 2 1 1 1 2 1 1 1 
2 1 2 1 1 2 2 2 2 
2 1 1 1 1 1 1 1 1 
2 1 1 1 2 2 1 1 1 
2 1 1 1 2 1 2 1 2 
2 2 1 1 1 1 1 1 2 
1 1 1 2 2 1 1 1 2 
2 1 2 2 2 1 2 2 2 
2 1 1 2 1 2 2 2 2 
1 1 2 2 1 1 1 1 2 
2 1 1 1 2 2 1 1 1 
1 1 1 2 1 1 1 1 2 
1 1 2 1 1 2 2 2 1 
1 1 2 1 1 2 2 2 2 
2 1 2 1 2 2 1 1 2 
2 1 1 1 1 2 2 2 1 
2 2 2 2 1 2 1 1 2 
2 2 1 2 2 1 2 1 2 
1 2 1 1 1 1 1 2 2 
2 2 1 2 2 2 1 2 2 
1 2 2 2 2 1 2 1 2 
1 1 2 1 2 1 1 2 1 
2 1 2 1 1 1 2 2 1 
2 2 1 1 2 1 1 1 1 
1 2 2 1 2 1 1 2 1 
1 1 2 2 1 1 1 1 1 
2 2 1 1 2 2 2 1 1 
1 2 2 1 2 1 2 2 2 
2 1 2 1 1 2 2 2 1 
1 1 1 2 2 2 1 1 1 
2 1 2 1 1 2 2 1 2 
1 1 2 2 1 2 1 1 2 
2 1 2 2 1 1 2 2 1 
2 2 1 2 1 2 1 1 2 
2 2 2 1 1 2 2 2 2 
1 1 2 2 2 1 1 1 2 
1 2 1 2 2 2 2 1 2 
1 2 2 2 2 2 2 2 1 
2 1 1 1 1 2 2 1 2 
2 1 1 1 2 1 1 2 2 
1 1 1 1 2 2 1 2 2 
2 2 2 2 2 2 1 1 1 
2 1 1 2 2 2 2 1 1 
1 2 2 2 2 2 1 2 2 
2 2 2 2 1 2 2 1 1 
2 1 1 2 1 1 1 1 2 
2 2 1 2 1 1 1 2 1 
2 
i 3 1000 int
-162 0 0 -226 0 1 -4 0 0 
-93 0 0 210 1 -1 82 1 0 
-25 0 1 -158 0 -1 -105 0 0 
-95 1 0 27 0 -1 -62 0 1 
-74 0 0 226 1 0 204 1 1 
-126 0 0 220 1 1 191 1 0 
-46 0 1 -84 0 1 165 1 0 
22 1 0 -163 0 0 -112 0 1 
-142 0 1 -62 0 -1 3 0 0 
-140 0 -1 203 1 0 -60 0 1 
73 0 0 6 0 0 -8 0 1 
0 0 1 7 0 0 -106 0 0 
-139 0 -1 -104 0 0 317 1 0 
-153 0 0 -57 0 1 69 0 0 
148 1 0 -156 0 1 -49 0 1 
-172 -1 1 200 1 2 -44 0 1 
136 1 0 -5 0 0 216 1 1 
77 1 0 199 1 0 220 1 0 
75 1 -1 72 1 0 -33 0 1 
-24 0 0 -80 0 1 233 1 -1 
-257 0 0 256 1 0 234 1 0 
115 0 1 -94 0 1 -66 0 0 
209 1 0 220 1 0 -5 0 0 
-88 0 0 -183 0 0 -138 0 0 
-52 0 1 20 0 0 62 0 0 
151 1 0 -12 0 1 -73 0 0 
-103 0 0 136 1 -1 -59 0 0 
94 0 1 -5 0 0 11 0 0 
-165 0 0 -91 0 0 188 1 -1 
-57 0 0 -14 0 -1 -14 0 0 
-27 0 0 -97 0 1 13 0 1 
267 1 1 -116 0 0 12 0 -1 
-63 0 0 50 0 0 -60 0 0 
102 0 0 -246 -1 0 126 0 1 
124 1 0 -62 0 1 62 0 0 
-13 0 0 22 0 0 -109 0 1 
90 1 0 111 1 0 -164 0 0 
-161 0 1 -138 0 0 127 1 0 
29 0 0 138 0 -1 -137 0 1 
40 0 -1 141 1 0 -35 0 1 
-93 0 0 147 1 -1 -91 0 0 
-169 0 1 102 1 1 -169 0 -1 
37 0 0 -10 0 0 -50 0 0 
185 1 1 -40 0 0 -50 0 -1 
31 1 0 -46 0 1 -175 0 0 
-151 0 0 -77 0 -1 -56 0 0 
-99 0 0 -66 0 1 74 0 -1 
151 1 -1 204 1 0 -43 0 0 
-46 0 0 -105 0 1 -141 0 0 
-107 0 0 -78 0 1 190 1 0 
-91 0 1 -45 0 0 -187 0 -1 
-161 -1 0 -53 0 1 -117 0 1 
-6 0 -1 303 1 0 33 0 -1 
-119 0 0 200 1 -1 217 1 -1 
111 0 0 -43 0 0 -155 0 0 
-83 0 1 -115 0 0 180 1 0 
-159 0 0 -29 0 -1 8 0 -1 
-121 0 -1 236 1 0 -39 0 -1 
208 1 0 163 1 0 -56 0 1 
-44 0 0 -81 0 0 -289 0 0 
-12 0 0 -228 0 0 -47 0 0 
-23 0 0 78 1 0 -46 0 0 
-138 0 0 -142 0 1 40 0 -1 
-116 0 1 23 0 -1 -21 0 0 
-50 0 0 -138 0 0 -49 0 0 
-69 0 0 -108 0 1 -160 0 0 
-97 0 -1 266 1 0 111 1 -1 
-74 0 0 13 0 0 -45 0 -1 
151 1 0 -50 0 0 -85 0 1 
-130 0 0 -8 0 0 142 1 -1 
265 1 0 -149 0 0 291 1 -1 
-154 0 0 -92 0 -1 -149 0 0 
-48 0 0 -76 0 0 -25 0 0 
-60 0 -1 93 1 0 201 1 0 
100 0 1 -148 0 -1 150 1 -1 
-116 0 1 -121 0 0 -100 0 0 
-94 0 1 199 1 -1 214 1 0 
194 1 0 -65 0 0 -27 0 0 
0 0 -1 -55 0 0 -11 0 -1 
-21 0 -1 250 1 -1 -30 0 0 
39 0 -1 -52 0 -1 -171 0 -1 
-77 0 -1 -104 0 0 171 1 -1 
194 1 -1 72 0 0 -101 0 0 
-284 -1 0 57 0 -1 14 0 -1 
-169 0 0 177 1 -1 248 1 -1 
178 1 0 -35 0 -1 -24 0 -1 
-210 -1 1 62 0 1 11 0 1 
119 0 0 -59 0 1 334 1 1 
-104 -1 1 -205 -1 1 -101 -1 1 
136 0 0 139 0 -1 30 0 0 
82 0 -1 -55 0 1 -42 0 0 
10 0 0 -133 -1 0 27 0 -1 
224 0 1 178 0 1 242 0 0 
-187 -1 1 -124 -1 0 146 0 0 
137 0 0 38 0 0 80 0 1 
-18 0 1 -13 0 1 16 0 0 
2 0 0 15 0 1 124 0 0 
276 1 1 -20 0 0 14 0 0 
-19 0 0 92 0 -1 -185 -1 1 
-24 0 1 128 0 0 122 0 -1 
-272 -1 0 434 1 0 -100 -1 1 
202 0 0 76 0 0 123 0 0 
275 1 1 192 0 1 80 0 0 
113 0 1 99 0 0 -243 -1 1 
17 0 0 135 0 -1 -78 0 1 
-248 -1 -1 66 0 0 -189 -1 0 
-358 -1 0 -197 -1 1 101 0 0 
-161 -1 0 -98 -1 0 -215 -1 0 
-4 0 0 60 0 1 -5 0 0 
27 0 0 57 0 -1 60 0 0 
31 0 0 107 0 0 -128 -1 1 
19 0 0 -55 0 0 96 0 1 
4 0 0 150 0 1 -48 0 1 
-232 -1 1 30 0 -1 56 0 0 
-218 -1 0 -43 0 1 -101 -1 1 
106 0 0 169 0 0 191 0 -1 
123 0 0 -263 -1 0 99 0 -1 
-227 -1 -1 95 0 0 51 0 1 
-6 0 1 106 0 0 41 0 0 
-287 -1 1 70 0 0 -147 -1 1 
115 0 0 58 0 0 148 0 0 
118 0 0 -222 -1 0 -280 -1 1 
-135 -1 0 24 0 0 148 0 0 
72 0 0 53 0 0 -3 0 0 
119 0 0 -5 0 0 180 0 0 
-355 -1 0 114 0 0 -263 -1 1 
-195 -1 0 57 0 0 98 0 0 
81 0 0 -17 0 0 94 0 -1 
71 0 -1 122 0 -1 135 0 0 
-178 -1 -1 -83 -1 1 -170 -1 1 
-115 -1 0 86 0 1 91 0 1 
40 0 1 -68 0 0 163 0 0 
178 0 1 -160 -1 0 45 0 -1 
-142 -1 0 31 0 0 -194 -1 0 
16 0 0 336 1 0 42 0 0 
94 0 -1 59 0 0 57 0 0 
65 0 -1 119 0 0 -62 0 0 
168 0 0 96 0 0 -98 -1 0 
86 0 -1 -122 -1 -1 68 0 0 
-252 -1 0 81 0 -1 73 0 -1 
413 1 0 92 0 -1 24 0 -1 
17 0 0 -151 -1 1 -222 -1 0 
-173 -1 0 23 0 1 55 0 0 
87 0 -1 -25 0 0 -205 -1 0 
51 0 -1 309 1 -1 20 0 -1 
-224 -1 -1 23 0 0 -195 -1 -1 
54 0 -1 34 0 0 -33 0 -1 
-188 -1 0 86 0 0 -140 0 0 
124 0 -1 64 0 0 -197 -1 0 
52 0 0 69 0 -1 36 0 0 
39 0 0 87 0 -1 96 0 0 
37 0 -1 -167 -1 0 81 0 0 
63 0 0 93 0 -1 33 0 0 
-273 -1 -1 156 0 0 98 0 -1 
46 0 0 65 0 -2 111 0 -1 
125 0 0 37 0 0 112 0 -1 
204 0 -1 -233 -1 0 58 0 0 
-168 -1 -1 -130 -1 -1 -7 0 0 
-30 0 -1 17 0 0 -230 -1 -1 
-172 -1 -1 60 0 0 -112 -1 1 
31 0 -1 67 0 0 96 0 0 
73 0 0 26 0 -1 -232 -1 -1 
-89 -1 0 -183 -1 0 -21 0 0 
-225 -1 0 -30 0 0 168 0 0 
-239 -1 -2 221 0 0 38 0 0 
2 0 0 29 0 0 -160 -1 0 
28 0 0 26 0 0 -35 0 -1 
14 0 -1 51 0 -1 -319 -1 -1 
8 0 -1 -196 -1 0 76 0 -1 
-5 0 0 161 0 0 -17 0 0 
-71 0 0 -209 0 1 -32 0 1 
52 0 1 337 1 1 -14 0 0 
-70 0 1 198 1 1 -60 0 0 
-52 0 0 -33 0 0 204 1 0 
-123 0 0 -37 0 1 -137 0 0 
77 0 -1 60 0 1 -105 0 1 
-249 -1 -1 -52 0 1 -10 0 0 
-53 0 0 -19 0 -1 -14 0 0 
-74 0 1 128 1 1 180 1 0 
-82 0 1 1 0 0 -104 0 0 
246 1 1 -47 0 0 -118 0 2 
-146 0 1 271 1 1 -77 0 0 
-14 0 0 -31 0 1 -103 0 1 
37 0 1 167 1 0 -7 0 0 
230 1 0 -136 0 1 -71 0 0 
-269 -1 0 37 0 1 -116 0 0 
-135 0 1 65 0 -1 -108 0 0 
264 1 0 46 0 -1 -49 0 1 
93 1 0 163 1 0 3 0 -1 
-117 0 0 198 1 0 -29 0 1 
-80 0 2 -157 0 0 18 0 1 
-25 0 1 -146 0 1 177 1 0 
-127 0 -1 9 0 0 -201 0 2 
6 0 1 -73 0 0 250 1 0 
-74 0 1 -33 0 0 -58 0 0 
-37 0 0 -120 0 1 -56 0 1 
-37 0 1 7 0 0 302 1 1 
85 0 0 -134 0 1 -23 0 0 
-88 0 1 -51 0 0 58 0 0 
-130 0 0 162 1 0 -177 0 0 
-174 0 0 -91 0 1 -55 0 0 
-103 0 0 -179 0 0 -79 0 0 
181 1 0 -141 0 1 -303 -1 1 
30 0 0 -138 0 0 233 1 0 
-221 0 1 -18 0 -1 -90 0 1 
1 0 0 -34 0 0 -44 0 -1 
132 1 -1 49 0 0 -45 0 0 
-33 0 1 233 1 -1 -123 0 1 
219 1 1 -83 0 1 142 1 -1 
-82 0 0 -122 0 1 148 1 1 
-65 0 1 -9 0 1 3 0 0 
50 0 0 183 1 0 142 1 -1 
56 0 -1 -142 0 1 165 1 -1 
-82 0 1 44 0 -1 101 1 0 
-45 0 0 201 1 0 -98 0 0 
296 1 0 -199 0 0 -25 0 -1 
-58 0 -1 140 1 0 -30 0 0 
8 0 0 -13 0 0 -130 0 0 
105 1 0 -32 0 -1 -74 0 0 
-211 0 -1 -102 0 0 24 0 0 
176 1 0 120 1 -1 -212 0 0 
44 0 0 -137 0 0 -113 0 -1 
-52 0 1 -164 0 0 194 1 -1 
-342 -1 -1 -88 0 -1 178 1 1 
-8 0 -1 -23 0 -1 32 1 0 
-21 0 0 153 1 -1 -132 0 0 
199 1 0 121 1 0 8 0 0 
173 1 0 -131 0 -1 46 0 -1 
244 1 0 -23 0 0 164 1 0 
-80 0 0 200 1 0 -34 0 0 
-19 0 0 -5 0 -1 -78 0 0 
43 0 0 -232 0 -1 -36 0 0 
-121 0 0 -160 0 -1 140 1 -1 
228 1 -1 -114 0 -1 202 1 -1 
-94 0 0 -125 0 0 200 1 -1 
-64 0 0 223 1 0 -56 0 0 
-148 0 0 -62 0 -1 -11 0 0 
79 0 0 247 1 -1 202 1 0 
-23 0 -1 -143 0 -1 -60 0 0 
37 0 0 295 1 -1 11 0 -1 
3 0 0 -69 0 0 206 1 -1 
113 0 -1 26 0 -1 -10 0 -1 
-24 0 0 -88 0 0 68 0 0 
-144 0 0 165 1 -1 -26 0 0 
-103 0 0 -11 0 -1 189 1 0 
-82 0 0 326 1 1 -168 0 0 
-176 0 0 155 1 -1 -49 0 0 
-142 0 -1 180 1 -1 -56 0 0 
-85 0 0 -44 0 -1 -4 0 0 
27 0 -1 -24 0 1 -161 -1 1 
187 0 0 177 0 0 168 0 0 
-276 -1 0 142 0 0 0 0 1 
-145 -1 1 221 0 1 -94 -1 1 
-202 -1 1 16 0 1 72 0 0 
10 0 0 160 0 0 -171 -1 1 
50 0 0 -24 -1 1 118 0 0 
-22 0 0 23 0 0 21 0 0 
-323 -1 1 35 0 0 22 0 0 
51 0 1 -251 -1 1 -121 -1 2 
-65 0 1 -47 0 1 -212 -1 0 
-59 0 2 55 0 0 368 1 1 
-1 0 0 40 0 1 -159 -1 1 
-4 0 0 7 0 0 213 0 0 
93 0 1 -231 -1 -1 7 0 1 
85 0 1 128 0 -1 -28 0 1 
108 0 0 -123 -1 1 6 0 1 
55 0 1 206 1 0 60 0 1 
77 0 1 124 0 -1 104 0 0 
36 0 1 140 0 0 126 0 -1 
240 1 1 76 0 -1 16 0 0 
55 0 1 -143 -1 1 75 0 1 
87 0 1 -259 -1 0 81 0 0 
22 0 1 129 0 0 89 0 0 
-180 -1 0 107 0 0 163 0 0 
36 0 1 -143 -1 1 143 0 0 
-230 -1 0 30 0 1 146 0 0 
26 0 0 -2 0 0 -152 -1 0 
56 0 0 29 0 -1 -226 -1 0 
-131 -1 1 43 0 0 23 0 0 
-259 -1 -1 -54 0 1 102 0 0 
111 0 0 -80 0 0 -177 -1 1 
78 0 0 1 0 1 115 0 -1 
37 0 1 -256 -1 0 -3 0 1 
296 1 0 -132 0 1 98 0 0 
129 0 0 118 0 0 -98 -1 0 
28 0 -1 125 0 0 -262 -1 -1 
-219 -1 1 66 0 1 58 0 0 
-162 -1 0 95 0 0 -192 -1 0 
-80 -1 0 81 0 0 -222 -1 1 
75 0 0 133 0 0 -242 -1 0 
76 0 0 -159 -1 0 -6 0 1 
-269 -1 -1 111 0 1 -198 -1 -1 
101 0 0 -143 -1 2 -293 -1 0 
77 0 0 -124 -1 0 -6 0 1 
-133 -1 0 -28 0 1 292 1 0 
-134 -1 0 90 0 0 36 0 0 
81 0 0 73 0 0 50 0 0 
58 0 0 -241 -1 1 14 0 0 
370 1 0 0 0 0 57 0 0 
-83 -1 0 156 0 0 -33 0 -1 
18 0 0 -142 -1 0 125 0 0 
-129 -1 0 79 0 -1 -114 -1 0 
163 0 -1 -132 -1 0 153 0 -1 
154 0 0 42 0 -1 151 0 0 
154 0 0 54 0 0 69 0 -1 
72 0 -1 -20 0 -1 -127 -1 0 
0 0 0 99 0 -1 -281 -1 -2 
-12 0 -1 -43 0 0 68 0 -1 
-36 0 0 82 0 -1 -176 -1 0 
6 0 1 65 0 -1 70 0 0 
-154 -1 0 -115 -1 1 66 0 0 
188 0 0 -161 -1 -1 49 0 -1 
-19 0 -1 35 0 -1 225 1 -1 
16 0 -1 -22 0 -1 210 0 -1 
148 0 0 167 0 -1 395 1 0 
9 0 1 117 0 0 57 0 0 
34 0 0 -33 0 0 168 0 -1 
18 0 0 207 0 0 -218 -1 -1 
-168 -1 0 -290 -1 1 180 0 0 
116 0 -1 321 1 -1 144 0 0 
-329 -1 0 20 0 -1 -201 -1 0 
-173 -1 -1 -140 -1 0 25 0 -1 
196 0 0 95 0 -1 -113 0 0 
46 0 -1 -257 -1 1 98 0 -1 
120 0 -1 -109 -1 0 -52 0 1 
-313 -1 0 65 0 -1 34 0 0 
-154 -1 0 -10 0 0 -12 -1 -1 
80 0 -1 32 0 0 -195 -1 -1 
52 0 -1 -194 -1 -1 4 0 0 
94 0 0 -185 -1 0 167 0 1 
-4 0 -1 58 0 -1 48 0 0 
21 0 0 165 0 0 163 0 0 
94 0 -1 89 0 -1 -258 -1 0 
-9 0 0 
v 3 1000 double
-252.1527552 40.660675418 4.9847191931 -414.86398376 15.846563825 -24.843476482 -400.02366616 2.8493403672 -5.6482623769 
39.155413291 3.2085964596 -3.7822197562 -259.4652569 34.786674407 -26.95655432 -346.32347901 29.124537429 -12.740725179 
-243.25330135 -9.534272206 5.2953136657 -499.38904945 11.610714578 -15.805314166 -142.82514399 -15.253904365 19.090351192 
-377.35636011 7.0755450728 -6.5763093944 -81.649575378 13.300180201 -30.666616205 -329.0937342 -10.166287961 2.9614696346 
-309.23662584 1.6782519315 24.947116181 -250.14680983 23.083491807 -11.809313015 -285.86458414 -1.1826159851 23.939712147 
-273.4104945 -25.56712722 -10.605998378 -385.63628579 -20.333888567 -14.595277108 -211.45774964 11.758147847 11.032923202 
-74.712020759 -0.43169864909 -0.044353460846 -174.95098844 15.784059143 34.034923438 -344.59525425 -6.2182402313 24.654178486 
-410.4773343 0.18220997407 21.867341098 -380.52157652 14.54328122 20.780953042 -249.60656849 -4.7312452548 -20.362585626 
-505.32094226 -4.9195502352 0.93254554063 -229.22329014 -16.672193547 4.66089242 -24.948257163 2.7516814961 9.1334533074 
-302.1098263 -10.671482123 -31.242485896 -177.0520901 19.953507228 22.147083559 -85.29574163 36.291125906 3.666827251 
-11.961445755 -25.242805383 -21.877528912 -177.70200946 22.452315595 -6.6542733187 -29.741699753 3.888870426 16.354268119 
-84.287329957 7.0881133452 18.193778381 -71.193448911 -23.67391435 18.071174915 -266.86517905 -21.590525325 -32.171603928 
-180.57988793 3.9585970228 1.4943662753 -258.26560485 -2.6643339779 -28.453163102 -186.76868001 23.290529558 29.772543092 
-174.83107344 10.566841882 18.938108541 -186.1615193 -16.682925061 -12.199559964 -69.588915306 12.768363938 15.423442633 
-348.80697154 -15.129172114 -10.100418618 -193.54870628 11.236696564 0.33526338541 -18.664216525 -2.548497101 -13.544781011 
-77.728503778 -31.713895638 23.802126663 -260.43480652 -6.3746247283 -5.9968184253 -23.035198744 -6.0519941211 -3.1248882668 
-357.2462359 -41.363725445 -11.586060392 -255.6072576 7.9003485966 -14.5484757 -177.56528592 -7.5340330972 -10.937649318 
-428.80677324 -0.55658732225 2.2517785698 -422.27650029 8.4970651965 -9.8371931419 -397.79289376 -14.03518965 18.438874235 
-481.69128728 -15.894325615 -4.0093252179 -505.79123383 3.1542540838 18.528144488 -150.38024826 -17.117132273 10.657020083 
-389.46606655 28.762356146 -10.423414107 -425.96061102 -8.3410096441 -6.7475244306 -282.71269204 11.836142579 1.3676171972 
-435.61502215 1.4427900516 7.8761210646 -71.531898174 17.284086772 1.1332159199 -197.47316858 14.304143589 5.0098835724 
29.718138117 -12.862968545 24.770272971 -165.39137391 19.892092068 8.2917420575 -334.88594258 15.457831411 9.2300408565 
-344.79295506 -0.98744909729 6.2839207253 -369.37756699 -14.585430469 -4.3597350587 -63.325157524 8.2187117415 -11.690807203 
-310.59571941 15.481793974 -0.90607014378 -357.74455058 -12.070257799 7.1047518746 -263.78269342 16.476198169 11.855718826 
-264.28285493 17.757847338 -17.815252202 -107.09842068 -6.0549273279 14.595199119 -225.03220463 -2.6191391611 16.243811116 
-443.58701161 10.893234552 2.7552916099 -296.8944697 0.60013867975 4.7153192985 -86.35273466 -1.3839661896 2.0442690197 
-301.32827979 -5.7511350642 3.4933457365 -433.93210985 -15.457541269 -8.59827087 -248.22604127 2.9846852932 12.339133835 
-111.86673325 -14.571650184 -2.5543034636 -220.05254642 5.8432454697 1.4850566368 -245.08868552 -9.9588520947 3.8323905851 
-511.92238946 20.314337829 -40.138834868 -369.61570119 0.86898843654 -28.756350125 -30.925135855 -10.094412224 10.612999814 
2.4758639677 -8.3433022949 33.757181111 -357.24992059 -1.4260723946 1.8286025024 -52.403410733 -16.548786701 -19.69464808 
-294.44002714 -3.381035478 25.507964774 -446.66933849 1.8338882612 16.74634528 -243.01616267 -6.6271729481 -18.992622013 
-62.559035003 -19.426194838 28.118752232 -262.82441343 1.7701117778 -6.4196650707 -90.381975075 -4.5295646197 -23.356966909 
-160.50368333 9.9406795536 45.663206697 -98.614486357 20.113246287 -2.332283813 -371.42383799 8.5674740588 -7.2579564484 
-120.58525478 0.40321888051 -3.5305088191 -178.7296416 18.373991512 11.837881005 -119.16337745 24.210710375 19.785845527 
-286.41953918 -12.243308775 -3.2488141241 -296.30745425 -9.2703180203 -12.369796637 -99.158119544 11.991877137 2.7492301784 
-0.47016416951 6.820997232 16.883448823 -157.87827345 -9.2382807418 -2.2454962767 -350.05092255 -11.036105335 18.010485175 
-528.75890746 19.373777002 2.6032626542 -476.89513791 0.55155126418 -25.859703514 -439.02321045 -12.075833434 6.2650988973 
-377.34041502 -4.2410732431 7.7744678657 -347.21338956 15.712866681 -13.932515521 -436.14034101 16.416216758 -7.2530554689 
-162.81717841 -5.100274643 -6.6528712912 57.207687143 -43.924419942 -1.5231165873 -222.31145467 4.6034191413 12.86987346 
-86.816773206 9.276515241 8.5681875997 -308.98642975 2.6397177787 -2.4823832775 -79.614679666 8.5037293785 17.276049198 
-272.73765241 5.6352789892 5.3049717181 -489.31940074 -2.768534303 -0.45060315461 -208.02514821 16.832780155 -15.058467431 
-408.11566092 5.8197219393 1.8637878377 -359.12236932 -15.660877047 23.349324634 -379.82958627 21.433936992 21.890806535 