ITEM: TIMESTEP
14000
ITEM: NUMBER OF ATOMS
1000
ITEM: BOX BOUNDS xy xz yz pp pp pp
0 10 2.27374e-13
0 10 0
-0 10 0
ITEM: ATOMS id type type x y z ix iy iz vx vy vz fx fy fz omegax omegay omegaz radius 
882 2 2 2.53403 3.4046 0.131934 -8 0 0 -140.824 -3.57764 5.7944 -762.731 -678.15 380.114 0 0 0 0.5 
487 1 1 3.9917 2.26398 1.19265 -38 0 0 -235.944 -5.56732 16.2966 111.35 2442.07 -198.237 0 0 0 0.5 
881 2 2 3.1839 3.97575 1.99429 0 0 0 -74.9618 -23.3736 0.600448 -2451.64 -3356.55 -417.737 0 0 0 0.5 
318 1 1 2.47778 2.47623 0.382288 -15 0 1 -225.884 -4.23095 6.031 -55.0719 -484.462 896.999 0 0 0 0.5 
587 2 2 3.48006 4.4497 1.05211 -16 0 1 -65.3414 -4.01492 -16.4299 -1768.96 417.319 -1630.43 0 0 0 0.5 
864 2 2 0.690433 2.46545 0.890655 -13 0 1 -233.088 8.03931 3.80936 107.145 -745.525 1224.47 0 0 0 0.5 
228 1 1 1.90102 1.60464 0.955077 -43 0 1 -307.742 -12.6138 -8.45877 755.387 1195.38 651.085 0 0 0 0.5 
36 1 1 3.27025 0.093508 1.70906 -42 0 0 -482.755 3.20894 14.85 -4122.49 4485.95 -1673.57 0 0 0 0.5 
17 1 1 3.92181 0.416386 0.264587 -37 0 1 -487.461 24.0066 -9.91777 2192.42 -433.04 469.667 0 0 0 0.5 
574 2 2 2.73486 4.90613 0.535283 -4 0 1 -11.7102 -7.36335 -14.5648 -1100.07 1182.39 3343.09 0 0 0 0.5 
903 2 2 1.36404 3.15582 0.454012 -10 0 0 -170.112 5.35911 10.5105 210.648 -406.363 -997.402 0 0 0 0.5 
770 2 2 2.25211 3.05654 0.893895 -25 0 0 -191.604 -0.433135 -4.42151 244.9 224.525 1760.96 0 0 0 0.5 
196 1 1 4.10843 0.455672 1.2485 79 1 0 -496.883 11.5523 -16.7038 0 0 0 0 0 0 0.5 
731 2 2 2.34465 4.2391 1.90093 109 1 0 -65.2066 29.0046 15.5092 820.185 -730.136 -3590.37 0 0 0 0.5 
415 1 1 4.64501 4.01227 1.8487 3 0 0 -75.815 2.78518 -6.03997 946.908 35.2858 -981.592 0 0 0 0.5 
203 1 1 3.13882 0.0400309 0.840578 -41 0 0 -523.733 10.6114 -1.94508 -1669.45 614.205 -1648.94 0 0 0 0.5 
650 2 2 2.22202 3.70775 1.2352 -7 0 0 -129.437 15.8235 -1.03094 3458.07 927.987 -1536.94 0 0 0 0.5 
275 1 1 2.3029 2.41889 1.35253 -11 0 0 -243.905 -22.1376 20.8659 -840.966 -140.418 -337.674 0 0 0 0.5 
787 2 2 2.56913 3.22462 1.8806 -26 0 1 -183.095 0.757431 9.911 3442.24 639.014 -1286.14 0 0 0 0.5 
159 1 1 0.720037 1.74278 1.51103 56 1 0 -275.578 -22.5471 7.16204 1957.4 -775.349 -1685.11 0 0 0 0.5 
96 1 1 0.995904 1.74399 0.625052 -13 0 1 -305.988 -13.6551 -19.4755 360.185 -1532.46 -621.084 0 0 0 0.5 
102 1 1 2.23803 4.07178 0.463546 0 0 0 -83.8981 14.2944 -6.58767 680.991 1663.27 685.754 0 0 0 0.5 
485 1 1 0.194083 2.11727 1.78952 -34 0 1 -267.773 -0.493657 11.1502 -309.193 850.52 -237.044 0 0 0 0.5 
267 1 1 1.6376 0.814409 1.68191 -54 0 1 -363.863 -12.4358 18.5972 0 0 0 0 0 0 0.5 
134 1 1 1.57906 2.41741 0.0710055 -16 0 1 -228.508 -25.0316 -22.9362 214.147 -4.43821 62.954 0 0 0 0.5 
161 1 1 1.03436 4.53673 1.61496 -3 0 1 -36.8995 4.59338 -8.60576 -169.939 1161.47 -739.816 0 0 0 0.5 
627 2 2 4.32548 4.09461 0.893624 -3 0 0 -85.2834 -11.8642 18.5896 2600.9 -1213.89 -1833.73 0 0 0 0.5 
100 1 1 1.54851 3.90634 1.65534 -4 0 0 -69.997 -28.7362 -1.8067 -2913.37 1180.54 1943.83 0 0 0 0.5 
697 2 2 0.255077 2.85764 1.70857 -18 0 0 -183.258 10.8483 11.7523 1134.21 25.2838 985.022 0 0 0 0.5 
599 2 2 4.22966 4.89271 0.598668 3 0 0 -41.7615 10.515 17.6251 10.3694 1659.26 -678.834 0 0 0 0.5 
872 2 2 1.69011 4.64407 0.168603 -5 0 0 -57.5655 20.2095 -7.89904 193.291 -55.8632 -1513.97 0 0 0 0.5 
597 2 2 3.81383 1.36423 0.619569 -19 0 1 -371.203 5.01946 29.144 -50.4575 58.5338 -145.791 0 0 0 0.5 
103 1 1 1.89992 4.87174 1.10788 -1 0 0 -15.4989 -3.29204 -13.0752 757.869 -355.271 -1408.79 0 0 0 0.5 
513 2 2 3.11077 2.11538 1.39074 -23 0 0 -230.817 -18.2117 -19.6676 -389.333 -42.9499 894.026 0 0 0 0.5 
647 2 2 3.80905 2.46298 0.251325 -22 0 0 -226.62 -1.8503 14.2874 -764.787 -705.577 -27.6488 0 0 0 0.5 
674 2 2 4.39167 3.3938 0.251802 -5 0 0 -138.616 -7.28894 -3.32001 85.4394 -46.6832 26.0665 0 0 0 0.5 
637 2 2 4.23104 3.18714 1.37453 -17 0 1 -158.485 2.65469 -3.51564 -231.681 -893.645 -176.063 0 0 0 0.5 
142 1 1 2.76826 0.81602 0.647215 -26 0 0 -440.893 29.3101 -5.4813 -1758.5 2240.12 25.0566 0 0 0 0.5 
905 2 2 0.647327 3.25333 0.806567 -9 0 0 -179.14 15.0525 0.223988 525.672 2223.52 -758.469 0 0 0 0.5 
772 2 2 4.64863 1.67647 1.2868 -15 0 1 -269.795 -19.1748 7.30664 -652.389 -898.342 782.395 0 0 0 0.5 
609 2 2 3.42414 3.653 0.667369 -6 0 0 -101.017 -33.4412 -0.900326 -169.676 604.688 -558.082 0 0 0 0.5 
802 2 2 1.03879 4.99707 0.56264 -7 0 1 -30.7086 24.6261 8.3376 -315.718 -541.004 2122.97 0 0 0 0.5 
774 2 2 2.64646 1.06616 1.51277 -21 0 1 -376.405 5.12084 3.07891 -172.07 353.388 1222.81 0 0 0 0.5 
319 1 1 0.98916 4.06625 0.737794 0 0 0 -80.5933 8.66174 -5.24765 -211.45 -302.895 -179.802 0 0 0 0.5 
921 2 2 3.10758 0.57721 0.0901611 -25 0 1 -466.986 19.7156 -39.291 -514.805 -3179.14 1870.39 0 0 0 0.5 
530 2 2 3.92022 4.09805 1.70515 -9 0 1 -82.1687 -3.09839 -1.78914 -473.857 234.231 1693.62 0 0 0 0.5 
886 2 2 2.6282 1.70546 2.422 77 1 0 -274.286 -4.10934 -32.7779 1385.62 -75.2498 -759.685 0 0 0 0.5 
346 1 1 0.638443 0.341939 2.78696 53 1 0 -440.475 -1.53863 -10.9697 1082.48 64.8832 196.215 0 0 0 0.5 
507 2 2 4.63752 0.462738 3.5564 -27 0 0 -427.665 -6.2875 15.3693 -1977.37 2163.03 -796.242 0 0 0 0.5 
675 2 2 2.51727 4.14201 3.80247 -4 0 0 -53.538 -16.6224 -8.12519 -3263.15 3754.08 1011.82 0 0 0 0.5 
231 1 1 1.57044 2.364 3.70788 -25 0 1 -253.198 -15.441 7.44599 -61.9634 -679.037 -173.935 0 0 0 0.5 
948 2 2 0.50313 2.28742 3.90146 56 1 0 -237.042 21.0715 -2.91041 2477.23 -457.872 1674.71 0 0 0 0.5 
169 1 1 0.923012 0.23391 3.81397 41 1 0 -456.073 -16.9114 -10.0854 1339.6 -1156.98 -167.859 0 0 0 0.5 
828 2 2 2.31815 3.87635 2.81028 -18 0 1 -85.1453 -1.70721 -25.6528 -1845.37 1781.24 1758.84 0 0 0 0.5 
743 2 2 4.23042 3.20017 3.87774 -18 0 0 -151.931 -9.48984 -13.6836 801.974 -107.159 -650.308 0 0 0 0.5 
307 1 1 0.137531 0.6984 3.56493 54 1 0 -437.012 -8.76069 0.638428 1481.24 -2371.12 521.838 0 0 0 0.5 
15 1 1 1.9318 2.18412 2.54382 -28 0 1 -255.115 -0.597523 10.5558 -1807.5 967.396 11.613 0 0 0 0.5 
667 2 2 2.34376 3.23936 3.37312 -41 0 0 -148.047 -25.3458 4.90382 -1207.09 4378.58 -700.873 0 0 0 0.5 
600 2 2 1.75781 3.18843 2.28362 -5 0 1 -135.347 -14.9275 3.58329 -871.165 -1463.33 2258.85 0 0 0 0.5 
725 2 2 1.49593 3.25641 3.8738 -5 0 0 -151.741 -1.98928 4.93819 -2583.34 578.984 -785.742 0 0 0 0.5 
429 1 1 2.35065 4.76965 3.11396 -15 0 0 -6.66202 6.48509 -9.82753 439.929 -2464.42 298.156 0 0 0 0.5 
157 1 1 3.20303 3.47778 3.63841 -6 0 0 -125.756 -5.71461 15.1591 1644.7 -3448.16 -1220.24 0 0 0 0.5 
6 1 1 4.10029 4.70337 2.40271 -7 0 0 7.44757 -14.0977 5.81375 -1887.1 918.85 -313.725 0 0 0 0.5 
653 2 2 4.7605 2.4433 3.24682 71 1 0 -213.607 -16.2626 -14.3012 2073.66 -1933.68 904.623 0 0 0 0.5 
434 1 1 3.98474 1.48203 3.54102 -27 0 0 -316.487 -9.373 2.87728 -121.976 -1817.7 -408.828 0 0 0 0.5 
919 2 2 3.48068 2.11008 2.63278 -4 0 0 -284.96 -1.46452 22.4489 369.193 -855.188 737.806 0 0 0 0.5 
298 1 1 0.910966 1.64189 3.17585 -44 0 0 -332.822 17.184 -5.03902 2129.99 -431.504 2410.73 0 0 0 0.5 
901 2 2 2.64142 2.38905 3.18695 -27 0 0 -229.046 -5.10402 -21.9285 1310.47 -2664.41 -683.514 0 0 0 0.5 
974 2 2 4.46205 3.87676 2.76615 115 1 1 -52.8086 -14.9685 -6.98603 -3518.26 -121.177 572.674 0 0 0 0.5 
16 1 1 0.369437 1.7516 2.56294 -43 0 0 -287.573 -2.84093 -10.5694 188.372 -1013.59 -966.174 0 0 0 0.5 
121 1 1 3.55575 0.261363 2.56426 54 1 0 -505.781 21.8828 32.041 -744.782 862.294 1095.26 0 0 0 0.5 
457 1 1 1.65445 4.6446 2.44759 2 0 0 -24.8374 -3.11725 -0.533282 -1979.54 303.788 2671.23 0 0 0 0.5 
804 2 2 4.61654 1.1004 2.89316 -63 0 0 -336.204 7.59668 -23.9616 190.386 -860.289 621.334 0 0 0 0.5 
889 2 2 0.686579 4.76455 3.26673 1 0 0 0.996359 -14.2712 -4.77285 -903.061 -552.647 -911.247 0 0 0 0.5 
18 1 1 1.38367 3.81759 3.01606 -8 0 0 -70.5766 -8.11245 3.65482 15.7528 -743.105 -1716.28 0 0 0 0.5 
280 1 1 3.29564 2.77412 2.11528 -30 0 0 -182.392 -4.19469 -24.2644 983.174 -649.034 -1353.59 0 0 0 0.5 
101 1 1 0.872552 3.36176 2.31734 -6 0 0 -116.593 -8.03578 12.5086 121.79 -942.491 25.0863 0 0 0 0.5 
779 2 2 4.15198 3.01075 2.98136 -6 0 0 -166.271 -13.0622 -10.6403 -1726.54 2930.97 -2037.07 0 0 0 0.5 
382 1 1 2.69662 0.121638 2.75772 -27 0 0 -512.638 -18.2446 13.4405 -3260.99 4020.71 -1340.94 0 0 0 0.5 
208 1 1 3.10282 4.52405 2.57107 4 0 0 -7.44262 -12.9509 16.3149 516.327 414.845 514.923 0 0 0 0.5 
937 2 2 0.8365 3.98723 3.66262 -8 0 0 -54.7999 -15.3397 6.98742 81.6509 -2104.63 1289.01 0 0 0 0.5 
895 2 2 3.81393 2.29637 3.68526 -46 0 0 -229.605 -0.986049 4.2242 -416.502 1985.72 351.729 0 0 0 0.5 
95 1 1 0.312441 3.76507 2.02587 -4 0 0 -116.85 19.646 -20.9759 -406.215 198.66 -520.656 0 0 0 0.5 
785 2 2 0.0288624 2.98703 2.86959 81 1 0 -196.831 15.505 -18.5155 1887.97 -1434.32 -837.874 0 0 0 0.5 
10 1 1 2.64688 0.924763 2.7744 -29 0 1 -407.66 10.7386 21.4514 -21.5181 -283.888 479.65 0 0 0 0.5 
999 2 2 1.52676 4.88224 3.39587 -9 0 0 -2.53169 1.10038 5.8888 1052.56 1453.01 1709.33 0 0 0 0.5 
136 1 1 0.346674 4.65905 2.31407 -15 0 0 -4.64502 14.3722 -6.87404 370.83 -1737.83 1723.31 0 0 0 0.5 
756 2 2 3.01817 3.23763 2.78853 -11 0 1 -155.658 4.2016 -0.590749 3311.79 -2047.79 -403.883 0 0 0 0.5 
112 1 1 0.407977 4.00017 2.89044 -1 0 0 -73.3797 -13.357 8.28143 689.097 -251.03 -34.2775 0 0 0 0.5 
623 2 2 4.53219 1.98788 2.33265 -16 0 1 -287.371 11.5464 9.0624 0 0 0 0 0 0 0.5 
254 1 1 4.17233 4.50881 3.33456 6 0 0 -23.5045 -5.63346 26.3318 155.75 -658.901 -1852.35 0 0 0 0.5 
767 2 2 3.88559 1.77626 5.27514 -23 0 0 -361.942 19.7228 17.6623 145.054 -1569.57 898.836 0 0 0 0.5 
201 1 1 4.46756 2.24081 5.98652 -30 0 0 -251.339 -7.99171 -6.4499 -521.555 1969.58 -642.632 0 0 0 0.5 
456 1 1 1.98026 4.51154 4.65294 -2 0 0 -50.3736 23.1034 3.16192 -570.144 2120.34 -361.701 0 0 0 0.5 
568 2 2 0.86686 2.00432 4.97801 -16 0 0 -266.577 3.41532 2.155 -1618.42 2262.26 1733.45 0 0 0 0.5 
679 2 2 0.113958 2.53845 4.71867 -8 0 0 -258.007 12.4096 24.4478 2363.2 -2940.76 861.752 0 0 0 0.5 
705 2 2 0.848462 2.66774 5.49863 -1 0 0 -195.012 5.32862 17.5275 -84.321 867.779 296.975 0 0 0 0.5 
411 1 1 2.4135 2.54499 4.0864 -18 0 0 -233.393 -10.5311 -17.3503 234.508 -3094.7 1878.56 0 0 0 0.5 
521 2 2 0.295603 4.87282 5.44665 4 0 0 38.3687 -9.15604 9.9699 -36.5604 -199.808 -1561.61 0 0 0 0.5 
509 2 2 4.56004 3.15048 5.85953 -28 0 0 -143.72 -15.4797 -22.4412 93.6164 -279.197 878.282 0 0 0 0.5 
420 1 1 0.511485 4.356 4.24311 9 0 0 -44.2738 -18.5381 23.5598 -790.22 -1044.16 1359.86 0 0 0 0.5 
890 2 2 2.54194 2.82832 5.66587 -1 0 0 -171.29 -18.7362 -5.39938 -697.537 208.045 241.14 0 0 0 0.5 
187 1 1 3.29586 2.37781 5.96763 -29 0 0 -203.351 -11.108 -3.03657 706.872 -317.824 -1316.25 0 0 0 0.5 
511 2 2 4.67529 4.9322 4.98395 -13 0 -1 -22.1326 -5.47676 -2.13145 -351.368 -631.068 -1257.97 0 0 0 0.5 
594 2 2 2.86709 1.79999 5.45619 -25 0 0 -340.028 10.9085 -13.2497 2516.55 1727.95 218.311 0 0 0 0.5 
69 1 1 1.68192 2.48614 4.81648 -19 0 0 -258.5 0.813733 -3.33899 -1913.51 623.149 452.989 0 0 0 0.5 
389 1 1 3.39786 4.23925 4.02879 -17 0 0 -63.3577 3.80978 -19.1177 3377.26 -2494.33 -500.438 0 0 0 0.5 
902 2 2 0.423692 1.52112 4.06414 38 1 0 -322.822 -0.217076 2.41314 2794.81 1458.33 -278.675 0 0 0 0.5 
163 1 1 1.12848 1.58391 4.7223 45 1 0 -304.71 -15.0057 4.58487 -910.301 -3220.86 -7.0372 0 0 0 0.5 
954 2 2 1.55606 1.28115 4.12843 39 1 0 -386.838 5.25927 -20.2437 1075.99 -413.838 -3244.33 0 0 0 0.5 
123 1 1 1.92369 2.02723 5.63181 -28 0 0 -285.429 5.58333 20.8361 -2741.14 1552.73 -727.561 0 0 0 0.5 
19 1 1 2.26695 3.27347 4.25286 -28 0 0 -182.971 11.0114 7.4158 1950.13 820.274 1876.9 0 0 0 0.5 
240 1 1 2.16372 1.9719 4.75412 -41 0 0 -303.528 -13.515 -3.85702 2901.84 -2418.17 -765.067 0 0 0 0.5 
514 2 2 3.88122 3.33669 4.59242 -19 0 0 -167.505 0.970504 -17.8975 1589.98 -278.861 722.996 0 0 0 0.5 
973 2 2 1.66808 1.0421 5.38191 -16 0 0 -331.278 -25.1977 4.61094 0 0 0 0 0 0 0.5 
836 2 2 2.21353 0.586776 4.36564 55 1 0 -426.252 7.68197 -10.5792 1003.95 -1018.65 375.545 0 0 0 0.5 
658 2 2 2.30814 3.64519 5.52135 -5 0 0 -97.689 4.33074 -2.13298 1667.08 38.8262 505.034 0 0 0 0.5 
451 1 1 2.45685 3.91834 4.69766 2 0 0 -94.7277 3.9887 14.06 -1386.51 524.376 -2915.07 0 0 0 0.5 
764 2 2 1.44949 3.206 4.85533 -34 0 1 -185.469 25.6255 14.5647 1246.64 -368.401 -1868.39 0 0 0 0.5 
25 1 1 0.61873 0.845341 4.41839 -39 0 0 -393.091 -4.30551 12.1355 1095.88 -1395.49 1305.57 0 0 0 0.5 
283 1 1 0.232698 0.213966 4.94605 -52 0 0 -472.658 -12.7474 1.84526 10730 -257.496 -1406.24 0 0 0 0.5 
962 2 2 3.72789 2.54587 5.02169 -5 0 0 -224.644 -10.3952 -39.5785 -1.55605 1489.11 -2129.2 0 0 0 0.5 
256 1 1 0.602824 3.44627 4.99959 -15 0 0 -166.356 27.0037 7.08214 -252.388 255.045 -110.908 0 0 0 0.5 
149 1 1 1.46698 4.04598 5.3939 -3 0 0 -60.412 -16.3285 -7.6931 -1042.79 1444.14 -89.0406 0 0 0 0.5 
611 2 2 0.732872 3.50216 5.94455 -4 0 0 -125.799 22.4169 8.9498 1462.27 -605.011 104.373 0 0 0 0.5 
340 1 1 3.30711 4.68205 4.66184 -6 0 0 -21.017 -7.26241 13.3075 650.685 1422.29 220.156 0 0 0 0.5 
94 1 1 4.14605 4.15296 4.90256 -16 0 0 -106.227 3.48271 -15.3416 1233.55 163.197 -812.113 0 0 0 0.5 
827 2 2 0.350409 3.35959 4.14167 -12 0 0 -138.656 5.06346 -9.28779 1339.94 455.197 -934.287 0 0 0 0.5 
543 2 2 3.47459 0.540126 4.57025 -37 0 0 -389.223 -19.7549 -13.4065 -172.921 2392.32 -215.276 0 0 0 0.5 
364 1 1 4.79472 4.06475 4.28285 -8 0 0 -102.983 14.1292 11.062 786.924 488.056 -855.595 0 0 0 0.5 
454 1 1 4.47824 0.483859 4.46025 48 1 0 -432.457 -15.2018 13.4282 -297.32 -682.927 421.853 0 0 0 0.5 
641 2 2 0.175779 4.97091 4.05817 -8 0 0 -7.87573 6.40798 -21.6678 -629.871 -650.961 -1164.42 0 0 0 0.5 
250 1 1 3.45591 3.12265 5.43831 -8 0 0 -160.614 -4.57956 2.43606 -158.876 -575.87 276.08 0 0 0 0.5 
539 2 2 3.91683 0.675971 5.68016 -39 0 0 -394.716 -8.57576 1.53263 563.895 -409.689 -610.033 0 0 0 0.5 
445 1 1 1.02823 4.55104 5.9227 1 0 0 -24.1345 -5.96518 -12.5882 2022.3 643.882 1351.01 0 0 0 0.5 
236 1 1 4.34504 1.18079 4.96341 -33 0 0 -385.207 11.3864 3.7119 776.997 -964.149 69.5148 0 0 0 0.5 
854 2 2 4.31139 3.9358 5.7972 -10 0 0 -107.71 21.0835 -8.75166 -37.7259 401.817 472.494 0 0 0 0.5 
503 2 2 3.13986 3.63198 4.93925 -18 0 0 -129.304 6.09354 -14.5445 575.389 640.427 1239.36 0 0 0 0.5 
366 1 1 2.73327 4.53668 5.39053 -5 0 0 -26.9584 -18.5268 9.63355 -1101.28 -2002.11 -191.298 0 0 0 0.5 
873 2 2 3.07881 1.03979 5.1127 -18 0 0 -358.597 -14.9939 1.92974 -626.863 360.174 812.519 0 0 0 0.5 
858 2 2 1.12302 4.66111 4.77292 -2 0 0 -47.6458 13.7575 15.4975 -732.592 1043.76 481.565 0 0 0 0.5 
522 2 2 3.60134 4.52812 5.38554 -6 0 0 -43.6907 5.42122 22.9673 1550.32 1096.92 2507.75 0 0 0 0.5 
708 2 2 4.76242 1.34002 4.01346 -49 0 0 -307.422 1.49252 4.2566 265.238 -825.875 -168.116 0 0 0 0.5 
565 2 2 2.41638 2.76685 7.85487 -12 0 0 -210.585 1.31672 8.62958 375.737 46.6835 163.755 0 0 0 0.5 
944 2 2 1.1295 1.48248 6.38639 -28 0 0 -344.525 0.46163 6.78849 -586.308 122.548 -436.693 0 0 0 0.5 
126 1 1 0.301045 0.617298 6.98369 40 1 -1 -472.005 5.65142 30.9875 988.607 154.115 683.791 0 0 0 0.5 
852 2 2 1.13854 1.33551 7.24545 -44 0 0 -374.925 0.268712 21.2434 1279.91 2258.82 -452.285 0 0 0 0.5 
823 2 2 3.20063 0.396347 6.82729 72 1 -1 -452.547 -5.08184 -3.89288 71.1258 -287.846 -525.553 0 0 0 0.5 
437 1 1 1.73406 0.172737 6.21685 -46 0 0 -469.505 2.78107 -16.4396 206.348 -104.207 -178.864 0 0 0 0.5 
227 1 1 0.0976695 2.11436 6.34925 -25 0 0 -264.448 -26.6978 6.92058 365.073 -1197.29 -545.304 0 0 0 0.5 
916 2 2 1.71427 1.96713 7.63117 -22 0 -1 -276.52 -11.6899 20.5084 -4507.46 -291.356 -4128.86 0 0 0 0.5 
572 2 2 0.228193 1.49791 7.72954 -19 0 0 -327.89 -9.27312 -37.382 725.668 -637.822 -1024.49 0 0 0 0.5 
7 1 1 3.90165 2.96251 6.45403 -8 0 0 -158.783 -43.4322 -12.1794 -609.167 -568.565 641.154 0 0 0 0.5 
861 2 2 4.15547 4.51715 7.19682 1 0 0 -56.4839 10.436 -17.2642 -384.153 -787.413 -136.164 0 0 0 0.5 
616 2 2 3.44569 3.58058 6.13848 -3 0 0 -90.7664 -12.1182 0.526515 -2059.43 -185.557 103.228 0 0 0 0.5 
262 1 1 2.05825 1.43513 6.21596 -47 0 0 -344.673 -22.4897 17.3581 -908.398 -871.149 -29.5094 0 0 0 0.5 
327 1 1 2.09825 2.62988 6.71341 0 0 0 -173.285 -29.9448 -4.64832 16.0092 41.8393 104.971 0 0 0 0.5 
460 1 1 2.19568 4.06037 6.93048 1 0 0 -63.8681 -0.263951 1.25544 -114.66 313.466 515.851 0 0 0 0.5 
813 2 2 1.10806 0.488876 6.75948 71 1 0 -464.202 8.26075 12.6617 647.096 -238.044 -178.127 0 0 0 0.5 
383 1 1 0.818677 2.84065 6.49676 -9 0 0 -171.12 -13.5198 34.559 -380.593 563.109 -397.56 0 0 0 0.5 
67 1 1 1.30989 0.590806 7.80611 70 1 0 -430.828 -11.1805 8.9827 556.091 -1922.96 38.9996 0 0 0 0.5 
818 2 2 0.097177 0.576394 6.02768 46 1 0 -444.792 6.92097 19.3982 1540.51 -381.848 1632.6 0 0 0 0.5 
924 2 2 1.55288 2.65956 7.47854 -17 0 0 -205.75 15.8855 -12.0451 -673.71 1698.36 -795.11 0 0 0 0.5 
225 1 1 2.47997 3.51083 6.34806 -13 0 0 -97.4128 0.65365 -4.11966 -1520.6 1900.86 -1449.28 0 0 0 0.5 
661 2 2 3.88629 2.94306 7.37315 -10 0 -1 -188.426 -2.80852 6.6002 2929.95 -2122.31 -2535.05 0 0 0 0.5 
313 1 1 3.58871 1.3218 6.97865 -34 0 0 -341.595 -8.55139 7.39216 2111.6 381.614 -2918.08 0 0 0 0.5 
564 2 2 1.71031 4.3504 6.32163 -2 0 0 -39.9245 1.13243 -5.21127 779.475 151.74 -384.98 0 0 0 0.5 
229 1 1 2.91763 2.9273 6.58429 -18 0 0 -160.696 12.945 4.06195 1651.34 -825.07 219.554 0 0 0 0.5 
524 2 2 3.67667 4.78565 7.91448 -13 0 0 -21.4209 2.23036 20.8433 1101.44 -284.262 143.128 0 0 0 0.5 
33 1 1 3.4711 1.43558 6.02696 69 1 0 -361.823 4.78249 0.656786 1718.23 -2976.4 1235.26 0 0 0 0.5 
384 1 1 4.69101 2.93712 6.81756 -27 0 0 -193.854 5.19684 5.36117 2672.65 77.0383 177.268 0 0 0 0.5 
529 2 2 3.31207 4.31982 6.22231 -5 0 0 -42.1308 -9.35858 14.3235 -969.329 1687.88 1146.57 0 0 0 0.5 
786 2 2 3.96927 0.970099 7.83033 -38 0 1 -404.313 13.487 -10.603 719.224 -486.508 3022.78 0 0 0 0.5 
241 1 1 0.365333 3.11197 7.4755 80 1 0 -170.695 -4.62778 -2.42882 133.273 64.1922 208.82 0 0 0 0.5 
288 1 1 1.62794 4.52335 7.33494 7 0 -1 -58.1132 6.80783 3.69807 -769.81 809.743 -37.7488 0 0 0 0.5 
148 1 1 2.74393 3.85025 7.42649 -10 0 0 -78.7713 -4.70056 9.95399 -674.027 362.464 881.886 0 0 0 0.5 
387 1 1 4.15909 0.475801 6.75383 -43 0 -1 -453.73 2.88856 -24.6032 -1971.49 965.927 -1197.13 0 0 0 0.5 
306 1 1 4.92672 0.15573 7.15306 46 1 -1 -517.716 2.60623 13.4133 394.117 -567.09 2095.4 0 0 0 0.5 
738 2 2 3.87153 2.11362 7.45264 72 1 0 -278.619 -2.0988 15.9193 856.13 -3972.85 -298.637 0 0 0 0.5 
526 2 2 3.01627 1.73263 7.48462 -32 0 0 -286.069 -20.2647 33.4158 -2638.57 374.596 625.641 0 0 0 0.5 
263 1 1 0.400192 4.40697 7.30255 -9 0 0 -6.64862 -17.8351 4.87107 272.55 -161.083 113.631 0 0 0 0.5 
476 1 1 3.98297 3.72936 6.88853 4 0 0 -95.3803 0.804424 -1.51652 575.777 -1876.75 -869.702 0 0 0 0.5 
930 2 2 0.202413 4.43981 6.23527 -8 0 0 10.7052 -8.87116 11.5734 881.17 -1995.8 1632 0 0 0 0.5 
862 2 2 0.998409 3.84992 7.92469 -31 0 0 -100.371 -4.56854 -7.227 -1316.72 1182.47 -1459.93 0 0 0 0.5 
446 1 1 3.42641 3.55987 7.63112 -12 0 0 -87.6065 -9.53668 -2.15002 -2068.11 2557.01 1739.17 0 0 0 0.5 
237 1 1 3.17381 2.26 6.84388 -10 0 0 -210.924 -11.6519 10.7293 -2492.86 -3233.77 -1374.74 0 0 0 0.5 
740 2 2 2.83307 1.4423 6.55694 -27 0 0 -349.33 -10.8828 14.1644 307.908 2245.81 3173.26 0 0 0 0.5 
79 1 1 2.73913 0.792564 7.59994 -16 0 0 -432.817 4.46622 -12.4302 1937.61 -2137.18 -1473.07 0 0 0 0.5 
498 1 1 4.56458 1.422 6.29212 87 1 0 -406.425 11.0063 14.2525 -2621.58 -1819.49 645.3 0 0 0 0.5 
260 1 1 4.68198 2.01837 7.8214 -49 0 0 -283.673 15.6627 5.96994 1104.6 830.721 -669.432 0 0 0 0.5 
835 2 2 4.67867 4.08866 7.70978 -6 0 0 -83.3294 -8.71716 8.15626 -1051.53 -410.441 441.218 0 0 0 0.5 
226 1 1 4.96756 1.16596 7.46391 -30 0 0 -376.719 -10.888 -4.15608 -281.703 -198.931 -330.51 0 0 0 0.5 
979 2 2 3.63963 0.262255 8.92345 30 1 0 -463.491 16.9136 7.44202 -705.533 -175.951 -570.985 0 0 0 0.5 
596 2 2 2.62397 1.94835 9.77788 -24 0 0 -249.738 -16.1597 25.4037 -5096.87 1121.93 -113.33 0 0 0 0.5 
99 1 1 1.28383 1.23774 9.11982 -15 0 -1 -364.36 7.25284 -28.1006 146.719 533.077 506.911 0 0 0 0.5 
27 1 1 3.40264 2.34501 9.12866 -28 0 0 -234.354 -22.1655 25.1459 -692.168 -942.03 1831.03 0 0 0 0.5 
42 1 1 0.34753 2.21154 9.06993 -33 0 0 -275.273 18.5212 -27.4826 1324.7 -383.545 -865.833 0 0 0 0.5 
89 1 1 0.121529 1.35039 8.77764 -21 0 0 -356.403 1.20123 -6.14865 1576.76 -187.795 2290.56 0 0 0 0.5 
52 1 1 2.3067 1.4015 9.12608 84 1 0 -370.634 -7.42921 11.0167 -2429.1 1348.66 1656.36 0 0 0 0.5 
195 1 1 2.82231 0.982227 8.58906 -35 0 0 -362.36 0.95454 3.99012 966.952 -777.97 832.342 0 0 0 0.5 
264 1 1 0.199074 3.71568 9.98613 -2 0 -1 -92.3635 -1.98838 -11.6507 -1938.75 1411.76 1773.56 0 0 0 0.5 
842 2 2 2.9622 1.24218 9.4112 -25 0 0 -375.657 -0.576567 21.0792 3494.3 -1499.36 -3426.97 0 0 0 0.5 
626 2 2 4.50568 4.78229 8.52687 4 0 -1 -10.8007 -7.93254 -15.9627 -3320.96 1380.05 -734.886 0 0 0 0.5 
819 2 2 2.30301 2.46759 9.24524 -13 0 0 -196.249 -18.2788 -3.10596 -1332.75 329.113 -718.869 0 0 0 0.5 
839 2 2 2.13129 1.94803 8.52727 -22 0 0 -274.36 3.83848 -19.6973 3563.38 -195.064 3182.35 0 0 0 0.5 
30 1 1 1.51363 3.75386 9.87228 -4 0 0 -108.086 17.4133 10.5217 452.669 717.035 1617.08 0 0 0 0.5 
581 2 2 1.98246 4.20765 8.08956 3 0 0 -68.48 -8.81878 -15.3392 1529.99 -2339.42 1354.05 0 0 0 0.5 
762 2 2 0.455121 1.62993 9.82111 -46 0 -1 -345.928 4.50525 -4.55753 5421.49 -4178.72 -1726.93 0 0 0 0.5 
592 2 2 2.10979 3.30634 9.26821 -1 0 -1 -145.399 5.12791 1.03489 -887.367 453.185 -1067.09 0 0 0 0.5 
672 2 2 1.56956 3.50011 8.63583 -15 0 -1 -136.896 -9.25433 -38.1733 2448.96 -815.273 73.9264 0 0 0 0.5 
727 2 2 4.72401 2.92171 8.0705 -34 0 0 -198.367 17.5092 3.39191 16.1791 347.747 95.8918 0 0 0 0.5 
139 1 1 0.616766 2.9842 9.60638 -10 0 0 -197.952 12.2506 -8.73666 1851.69 -3334.64 -2640.77 0 0 0 0.5 
284 1 1 1.05222 1.37523 8.1723 -58 0 0 -345.066 9.14016 9.5163 -767.441 1491.41 -83.1375 0 0 0 0.5 
703 2 2 1.43329 0.909836 9.76725 -50 0 0 -436.644 2.71681 1.0886 393.461 -677.787 1686.5 0 0 0 0.5 
573 2 2 2.31834 1.34047 8.02424 -16 0 0 -363.067 -5.01634 -14.4155 1174.53 -1295.46 1029.89 0 0 0 0.5 
343 1 1 3.9513 3.71157 8.26006 -9 0 0 -96.5551 5.90342 0.837345 1042.65 11.049 440.635 0 0 0 0.5 
46 1 1 0.184722 0.529962 8.42917 52 1 0 -461.551 -9.48086 -18.1102 -2725.59 1126.17 -1144.08 0 0 0 0.5 
865 2 2 1.41094 2.5349 8.41087 -22 0 -1 -190.977 -14.5367 -6.86158 -3651.06 2941.46 -458.449 0 0 0 0.5 
317 1 1 1.96313 4.81314 9.21765 -10 0 0 26.3777 -32.398 -35.3557 259.654 -943.741 -625.798 0 0 0 0.5 
223 1 1 4.72361 3.89 9.39906 -12 0 -1 -67.7554 -21.4875 1.02562 -885.052 48.0927 -675.564 0 0 0 0.5 
258 1 1 2.98306 2.78364 8.71355 -26 0 0 -205.257 -11.023 -5.24324 -1778.71 1110.63 -648.576 0 0 0 0.5 
532 2 2 4.42703 4.82965 9.52046 25 0 -1 18.907 -19.2953 -5.06865 1065.87 -408.053 -1371.78 0 0 0 0.5 
935 2 2 2.98348 3.16682 9.65245 -10 0 0 -166.118 1.12404 -17.606 3565.24 -1312.15 -1462 0 0 0 0.5 
87 1 1 3.28674 4.62548 9.04417 6 0 0 -28.9564 0.664087 -18.2459 -553.472 294.171 817.53 0 0 0 0.5 
745 2 2 0.358615 4.14629 9.17169 4 0 0 -80.6169 5.2023 -8.96618 -552.535 1347.27 -845.13 0 0 0 0.5 
53 1 1 0.757782 4.97849 8.04205 5 0 0 11.9697 -9.02075 -3.84274 -1302.62 1364.76 -1487.88 0 0 0 0.5 
845 2 2 3.89696 3.95118 9.1187 -14 0 0 -55.9369 -23.7781 14.1365 -1516.48 -144.336 308.025 0 0 0 0.5 
308 1 1 1.05089 3.79049 9.20631 -5 0 0 -106.019 -12.0309 -1.52782 438.72 -1501.51 317.478 0 0 0 0.5 
796 2 2 3.21934 4.35826 9.98878 5 0 -1 -68.2429 -0.995638 -0.383373 1889.12 -2212.34 -2179.1 0 0 0 0.5 
224 1 1 3.56288 1.65535 9.89448 -42 0 0 -317.513 10.1884 -29.3986 4553.22 -443.543 1161.56 0 0 0 0.5 
832 2 2 4.53199 2.51909 9.66067 -15 0 -1 -239.518 -1.74359 -0.484679 -1027.56 1154.72 845.813 0 0 0 0.5 
311 1 1 1.24807 4.46481 8.60206 3 0 0 -43.983 -8.44189 1.79182 536.506 -2109.95 1291.96 0 0 0 0.5 
351 1 1 2.90192 3.55075 8.54788 -7 0 0 -138.058 21.9618 -9.15757 -76.7821 725.872 -156.761 0 0 0 0.5 
580 2 2 2.6965 0.278957 8.35579 55 1 0 -488.901 3.63125 7.82406 -86.2921 -91.9951 -1642.1 0 0 0 0.5 
721 2 2 2.52404 0.29013 9.22881 53 1 0 -492.696 14.6251 1.77364 -670.341 1613.09 -104.648 0 0 0 0.5 
41 1 1 4.54041 0.0117084 9.22407 -48 0 -1 -483.818 0.598334 27.3301 447.858 -163.204 326.008 0 0 0 0.5 
272 1 1 3.72937 1.36779 8.68909 -51 0 -1 -369.267 6.75077 28.6605 1856.12 1702.39 -338.486 0 0 0 0.5 
232 1 1 3.64516 2.70862 8.16766 -14 0 0 -193.324 -10.8338 16.7694 648.52 753.199 924.008 0 0 0 0.5 
399 1 1 0.860905 0.100097 8.64196 -33 0 -1 -494.053 20.4916 21.6653 1706.95 -422.617 1081.79 0 0 0 0.5 
754 2 2 4.29048 2.15763 8.88815 -23 0 0 -265.159 1.94217 4.5463 -1778.85 -229.073 -412.074 0 0 0 0.5 
265 1 1 4.79223 1.49934 8.49627 -17 0 0 -367.019 1.79616 1.63446 1516.54 -3080.61 -548.875 0 0 0 0.5 
747 2 2 2.33708 9.87523 1.81962 -61 -1 1 522.846 -17.7169 32.1907 -1299.31 -513.26 333.629 0 0 0 0.5 
285 1 1 0.635813 8.73952 0.922897 48 0 0 364.79 6.47915 13.5559 587.336 -387.352 -19.0877 0 0 0 0.5 
980 2 2 0.347203 8.31195 1.62112 40 0 1 333.613 -15.627 14.4108 878.534 -815.591 131.882 0 0 0 0.5 
176 1 1 2.08342 5.81142 0.941527 15 0 1 91.7101 -1.53931 15.9266 -920.537 -299.276 176.111 0 0 0 0.5 
301 1 1 2.58875 8.26064 0.304131 42 0 0 344.296 -14.3392 -8.5279 -2234.71 3021.84 -1117.98 0 0 0 0.5 
709 2 2 3.10074 7.62049 1.21389 36 0 1 271.865 -23.2959 -5.63938 1793.19 -1455.7 -1340.44 0 0 0 0.5 
82 1 1 2.95931 5.76757 0.798736 11 0 0 92.8724 8.71294 -8.36715 853.273 -834.785 -525.315 0 0 0 0.5 
473 1 1 3.27755 5.00136 1.56202 2 0 0 -25.3721 2.20719 20.2638 -389.291 726.49 -203.944 0 0 0 0.5 
292 1 1 4.56398 5.64805 0.163399 -86 -1 0 64.9855 5.50934 2.9317 -1604.79 84.1721 581.709 0 0 0 0.5 
904 2 2 3.04589 6.75466 1.55915 14 0 0 206.562 -17.9449 -11.4195 -1702.52 4249.21 1263.95 0 0 0 0.5 
690 2 2 3.86675 8.48797 1.95563 6 0 0 378.14 -16.024 5.41053 1436.57 -2127.12 182.071 0 0 0 0.5 
302 1 1 3.05819 9.25051 0.307223 42 0 1 424.7 -16.988 -9.64976 -461.216 42.7018 357.939 0 0 0 0.5 
199 1 1 4.3802 9.37484 0.423897 -84 -1 0 418.08 12.0871 -29.3814 0 0 0 0 0 0 0.5 
640 2 2 0.568307 9.18285 0.23942 -40 -1 1 419.275 24.0421 -10.6135 -18.6991 236.693 -435.405 0 0 0 0.5 
984 2 2 3.04983 8.66179 1.94866 46 0 1 397.527 -12.1262 4.66083 -328.659 263.679 580.6 0 0 0 0.5 
83 1 1 3.55003 9.51065 0.989892 38 0 1 445.685 7.99931 -22.7336 2672.77 -1734.39 -501.839 0 0 0 0.5 
40 1 1 0.205138 5.0246 0.486648 -5 0 1 -31.0866 -1.49559 -16.9563 -382.999 -1134.37 -1907.26 0 0 0 0.5 
378 1 1 4.72879 9.78495 1.58078 -30 -1 1 441.444 4.25431 -29.8862 -960.058 612.25 -1960.44 0 0 0 0.5 
578 2 2 4.80018 7.29264 0.0696296 22 0 0 282.913 -22.1504 -8.94783 -302.747 1369.82 -351.373 0 0 0 0.5 
423 1 1 2.71972 9.10818 1.24802 -45 -1 0 452.606 2.70848 14.6616 -1431.63 1345.64 -87.9821 0 0 0 0.5 
704 2 2 3.29772 7.70933 0.293587 58 0 0 283.116 -3.06473 -0.514112 3450.51 -2781.59 355.889 0 0 0 0.5 
5 1 1 3.25935 5.8179 1.64361 4 0 0 66.2634 43.2301 10.0914 2162.01 -5039.76 941.309 0 0 0 0.5 
631 2 2 3.90836 6.00074 0.518367 8 0 0 71.4229 10.5336 -5.5038 378.605 -1069.5 120.17 0 0 0 0.5 
435 1 1 1.29257 6.06925 1.52719 3 0 0 147.431 -2.16087 -18.9634 -941.775 1361.07 -731.257 0 0 0 0.5 
649 2 2 3.21182 6.65038 0.64087 -10 0 1 152.7 20.4247 14.5608 -79.9953 1008.8 -2508.11 0 0 0 0.5 
512 2 2 1.41413 6.9958 1.32507 7 0 0 256.045 -13.741 5.45153 -147.497 1070.23 -148.081 0 0 0 0.5 
576 2 2 0.388967 7.34219 1.86707 43 0 0 240.639 0.234298 -26.3348 -227.034 440.41 -866.013 0 0 0 0.5 
426 1 1 2.48239 5.61381 0.016622 26 0 0 93.2082 8.24102 -8.83161 649.882 1716.01 -876.577 0 0 0 0.5 
570 2 2 1.01175 7.76697 1.00927 -43 -1 1 269.529 17.513 -5.65534 46.2107 -348.77 415.297 0 0 0 0.5 
90 1 1 1.59065 5.37723 1.8658 4 0 0 80.865 -12.3548 -3.70219 -712.873 21.5927 1388.66 0 0 0 0.5 
552 2 2 3.12757 8.36776 1.0302 25 0 0 387.833 16.7909 -15.0968 1056.23 -2748.83 -864.693 0 0 0 0.5 
37 1 1 1.39087 6.52994 0.511447 -87 -1 0 163.518 -11.9349 -2.96533 -260.77 -703.561 -484.585 0 0 0 0.5 
470 1 1 1.54402 7.52363 0.29556 27 0 0 258.334 0.963423 -19.7554 -234.552 106.186 -60.1937 0 0 0 0.5 
960 2 2 3.69441 9.25354 1.71035 49 0 1 396.566 24.4156 -0.655616 2387.02 -4907.22 1810.21 0 0 0 0.5 
407 1 1 2.34009 6.73881 0.675478 15 0 0 162.494 -18.4316 5.76051 -2308.47 -1265.94 1652.67 0 0 0 0.5 
879 2 2 2.06187 9.38889 0.897214 56 0 1 453.731 0.137643 2.28827 -1453.6 664.057 320.198 0 0 0 0.5 
357 1 1 2.23638 7.54503 1.85884 -53 -1 1 248.196 -32.4797 7.2971 226.295 990.421 -860.052 0 0 0 0.5 
798 2 2 2.39391 8.21527 1.24027 -45 -1 0 349.008 -5.63697 3.29652 -1619.91 3732.83 736.447 0 0 0 0.5 
390 1 1 2.20636 7.4659 0.849357 11 0 0 251.866 13.7186 2.40373 416.508 615.679 566.836 0 0 0 0.5 
3 1 1 1.01701 8.43476 0.0319984 36 0 1 406.234 -17.1001 19.5934 -1954.74 -3143.68 -890.331 0 0 0 0.5 
632 2 2 4.21787 6.69206 1.3178 13 0 0 124.153 35.9527 -7.05941 34.0628 -521.047 -546.957 0 0 0 0.5 
763 2 2 4.24184 5.83332 1.43608 4 0 1 54.9024 -5.12024 -9.40214 -1095.48 1222.87 -943.259 0 0 0 0.5 
328 1 1 4.93888 5.94749 1.04268 -1 0 0 71.7294 15.4082 2.33953 -87.9159 529.572 472.277 0 0 0 0.5 
175 1 1 2.50786 5.47967 2.10274 12 0 0 77.5856 -3.20815 -24.5617 517.864 -2399.43 122.238 0 0 0 0.5 
880 2 2 4.11877 5.53661 2.16839 19 0 0 57.6831 5.97849 0.0457568 -180.164 346.686 86.7517 0 0 0 0.5 
453 1 1 4.39681 7.55399 2.32365 12 0 0 252.174 -6.65393 -43.7457 386.383 -125.117 -428.47 0 0 0 0.5 
700 2 2 3.15557 8.10304 3.80607 20 0 0 311.82 -47.5219 0.599707 -1378.34 -1151.33 565.404 0 0 0 0.5 
334 1 1 3.25443 5.56584 3.34622 10 0 0 78.4225 -2.27163 6.83434 -1032.42 -144.153 -389.615 0 0 0 0.5 
194 1 1 3.88689 8.59591 3.01005 -76 -1 0 356.608 7.02771 -15.1491 2391.38 -2380.17 988.393 0 0 0 0.5 
421 1 1 1.87019 9.20436 2.39318 42 0 0 444.827 -1.33061 -1.41634 -136.464 575.812 212.862 0 0 0 0.5 
309 1 1 0.697519 6.49494 2.11768 18 0 0 163.874 -12.1878 25.8918 278.465 -635.915 111.776 0 0 0 0.5 
853 2 2 3.41708 8.90344 2.84142 23 0 0 376.564 4.3857 -6.94161 -553.089 72.2476 -157.087 0 0 0 0.5 
978 2 2 3.32554 6.16176 2.58579 12 0 0 137.377 -3.26844 -3.67174 756.949 -526.437 1313.9 0 0 0 0.5 
330 1 1 4.19612 6.44999 2.25472 12 0 0 125.779 25.9605 -16.3604 -159.157 -660.413 -669.118 0 0 0 0.5 