ITEM: TIMESTEP
19000
ITEM: NUMBER OF ATOMS
1000
ITEM: BOX BOUNDS xy xz yz pp pp pp
0 10 0
0 10 0
-0 10 0
ITEM: ATOMS id type type x y z ix iy iz vx vy vz fx fy fz omegax omegay omegaz radius 
887 2 2 1.75208 0.409758 0.232264 47 1 0 -441.126 1.60571 -25.386 2537.42 -2621.26 3316.44 0 0 0 0.5 
428 1 1 2.29257 2.54744 1.30708 -31 0 1 -234.152 3.28351 -3.78811 -60.8627 153.857 -274.884 0 0 0 0.5 
307 1 1 4.54732 1.46263 0.764623 88 1 0 -322.022 -15.3913 16.5259 -2416.78 1199.95 1543.79 0 0 0 0.5 
467 1 1 2.66268 3.21258 0.111632 121 1 1 -153.913 -23.9538 28.8982 -1429.46 380.921 -650.613 0 0 0 0.5 
513 2 2 1.54124 1.6335 1.95095 -37 0 0 -311.451 -0.370535 2.4019 598.43 430.803 -27.3278 0 0 0 0.5 
359 1 1 2.16259 3.56233 0.892649 -15 0 0 -144.06 -7.03441 7.59062 952.607 -2195.6 939.439 0 0 0 0.5 
820 2 2 1.28562 0.350141 1.06522 -39 0 0 -396.179 -36.869 46.2506 954.407 -5.3861 -1493.69 0 0 0 0.5 
352 1 1 0.986422 0.914376 0.603218 -25 0 1 -385.135 -3.75567 15.865 -694.684 1751.9 635.42 0 0 0 0.5 
779 2 2 4.27955 4.31627 1.13484 -12 0 0 -84.2139 5.73218 -8.46376 -25.9884 2.30193 -15.8342 0 0 0 0.5 
727 2 2 1.28905 3.45096 1.2871 -41 0 1 -145.569 8.82803 6.67338 33.2367 -960.202 116.782 0 0 0 0.5 
461 1 1 1.38703 1.7446 0.984201 99 1 0 -320.066 1.69434 -0.998449 -341.761 -336.568 -572.131 0 0 0 0.5 
266 1 1 3.00065 1.33613 0.993282 -70 0 0 -382.487 6.72064 -19.6497 -239.766 156.535 -149.744 0 0 0 0.5 
618 2 2 4.85573 3.08049 1.0295 -15 0 1 -172.649 -11.9363 18.2054 168.556 1544.69 8.97253 0 0 0 0.5 
258 1 1 1.26945 2.57545 1.59748 -35 0 1 -211.465 -20.846 11.5117 -1363.7 757.804 -628.526 0 0 0 0.5 
32 1 1 2.59498 0.449504 1.42746 106 1 0 -398.059 -14.7777 -26.3343 1556.09 -2192.67 -286.029 0 0 0 0.5 
77 1 1 3.5802 0.632307 0.177432 71 1 1 -424.978 5.57655 26.5236 -254.694 3.40374 195.18 0 0 0 0.5 
516 2 2 3.08767 2.44328 0.494386 -70 0 1 -248.481 0.803426 -2.52593 2383.13 -3337.01 1634.64 0 0 0 0.5 
898 2 2 4.04312 3.49412 0.0942698 -28 0 0 -168.352 23.4163 -0.34634 -66.1863 557.465 133.072 0 0 0 0.5 
487 1 1 2.02701 1.4565 0.216933 -53 0 0 -357.827 2.57552 10.9869 763.486 -657.711 1795.65 0 0 0 0.5 
609 2 2 2.00977 3.61112 1.89291 -14 0 0 -172.426 19.6423 -9.34327 1935.6 310.523 709.067 0 0 0 0.5 
921 2 2 2.19547 2.39166 0.413975 -40 0 1 -250.164 -8.87604 -5.60244 935.85 287.135 -1617.72 0 0 0 0.5 
524 2 2 1.49472 3.57038 0.325947 -14 0 1 -127.984 -12.4335 -5.82763 1318.16 1000.79 -262.052 0 0 0 0.5 
216 1 1 0.847991 1.64507 0.106444 -49 0 1 -344.23 15.0487 6.98317 417.753 -2431.42 -741.135 0 0 0 0.5 
27 1 1 0.446326 1.9472 1.18557 -41 0 1 -319.431 16.974 -6.80984 -266.044 -29.5856 300.445 0 0 0 0.5 
190 1 1 2.15977 4.55064 0.0635039 -19 0 1 -53.5759 6.49836 -3.52836 420.006 314.358 -914.441 0 0 0 0.5 
4 1 1 2.08598 1.16673 1.52102 -77 0 0 -327.147 -4.93592 7.84185 -633.854 1037.06 -1562.43 0 0 0 0.5 
531 2 2 0.684843 2.58077 0.305326 -27 0 0 -226.242 -8.32363 -16.404 -445.925 2025.1 4176.34 0 0 0 0.5 
566 2 2 1.45078 2.68234 0.758194 100 1 1 -235.516 15.4138 -8.82818 -258.954 -2112.85 946.772 0 0 0 0.5 
555 2 2 3.95635 3.21238 1.07215 -12 0 0 -166.835 8.99542 -7.73154 248.991 -706.212 -38.0291 0 0 0 0.5 
95 1 1 2.18024 4.75713 1.63995 -7 0 0 -52.2931 -28.3182 -13.6046 -480.251 -1255.31 -617.794 0 0 0 0.5 
881 2 2 0.760557 3.93347 0.663164 -4 0 0 -98.0791 -3.15738 -7.70851 -274.467 1066.08 1163.18 0 0 0 0.5 
365 1 1 0.387627 0.71044 1.98731 -77 0 0 -396.486 -10.2654 -14.7781 3464.34 -1181.63 572.963 0 0 0 0.5 
937 2 2 2.71414 4.76721 0.953453 -13 0 0 -56.7064 -10.0665 -40.6396 -70.851 -922.54 -734.014 0 0 0 0.5 
533 2 2 3.93231 2.27056 0.836538 118 1 0 -249.287 -7.40629 7.24977 590.613 199.784 -179.546 0 0 0 0.5 
756 2 2 3.07357 3.44398 1.09689 -20 0 1 -159.455 -0.78009 -20.2864 343.84 555.655 633.6 0 0 0 0.5 
697 2 2 1.72602 4.30413 0.938119 -25 0 0 -71.4084 -2.94847 -19.9723 226.724 965.765 -1472.41 0 0 0 0.5 
16 1 1 3.66948 0.899477 1.41099 -61 0 0 -385.091 -6.97884 -2.50871 -674.981 -65.5869 -73.9681 0 0 0 0.5 
909 2 2 0.202997 2.92307 0.854625 -7 0 1 -204.99 -14.0227 27.7037 -748.638 -728.528 156.938 0 0 0 0.5 
574 2 2 3.11929 4.28325 1.54151 -7 0 1 -81.3151 3.65991 2.30208 975.212 -1414.68 -508.54 0 0 0 0.5 
308 1 1 4.7907 2.09631 1.44976 -17 0 1 -254.611 -0.0862605 -13.2515 -529.552 63.8504 -1747.21 0 0 0 0.5 
538 2 2 3.07573 2.3502 1.84527 114 1 0 -248.761 -24.4019 1.14964 559.133 -1145.15 -590.521 0 0 0 0.5 
316 1 1 0.447744 3.33502 1.55132 -52 0 0 -142.367 -14.5903 9.2593 -374.657 -324.479 1348.86 0 0 0 0.5 
864 2 2 1.14468 4.65068 1.22853 -21 0 1 -63.0051 -10.1311 1.48269 -886.709 -565.11 754.348 0 0 0 0.5 
267 1 1 4.3391 0.210817 0.0667321 -73 0 1 -436.646 -3.50655 -8.7254 135.423 -1039.81 402.407 0 0 0 0.5 
787 2 2 0.293903 4.10974 1.59451 -32 0 1 -79.6463 20.8251 -5.86569 1019.16 596.573 845.95 0 0 0 0.5 
91 1 1 0.0632556 4.2944 0.347177 -4 0 0 -69.6658 5.72691 5.39408 -1473.13 1668.55 -187.872 0 0 0 0.5 
139 1 1 4.00763 2.5415 1.7315 -20 0 1 -251.369 3.66673 11.4736 -274.23 -166.054 -830.565 0 0 0 0.5 
923 2 2 4.46386 1.97198 0.0655917 30 1 0 -261.97 -19.3506 -7.80988 -2408.1 1441.31 2811.09 0 0 0 0.5 
346 1 1 4.54005 0.920414 1.52549 81 1 0 -383.037 -2.52571 21.1312 -237.08 63.2008 1629.97 0 0 0 0.5 
510 2 2 4.85614 3.44112 1.88167 -27 0 0 -167.504 -6.15758 5.66969 -1721.19 1642.13 1529.17 0 0 0 0.5 
505 2 2 3.52708 0.2112 2.01924 -54 0 0 -466.61 3.21053 5.8856 -1619.2 1701.57 93.2211 0 0 0 0.5 
974 2 2 1.98461 4.48802 2.84105 162 1 1 -62.0884 -23.2051 -18.3049 -232.737 -1974.33 -847.933 0 0 0 0.5 
759 2 2 0.678283 2.70541 3.22468 -23 0 0 -219.676 7.39505 27.1768 921.234 -110.101 -228.047 0 0 0 0.5 
980 2 2 4.59748 0.282469 2.50006 62 1 1 -429.191 -14.0374 -9.50789 1603.44 629.891 -1897.32 0 0 0 0.5 
596 2 2 1.33423 2.73679 3.94015 -37 0 1 -212.265 7.29738 26.2818 56.5418 -643.638 1245.6 0 0 0 0.5 
101 1 1 0.551841 1.90898 3.75188 -18 0 0 -308.942 -3.48373 6.67942 -109.035 27.5184 1163.19 0 0 0 0.5 
366 1 1 4.48063 3.92503 3.47389 -10 0 0 -119.572 19.8741 3.49358 83.1037 778.016 68.9408 0 0 0 0.5 
228 1 1 3.65602 1.07165 2.98903 -58 0 1 -346.796 -3.77774 6.53289 93.9783 385.602 -979.612 0 0 0 0.5 
692 2 2 1.10329 1.38344 2.91096 63 1 0 -345.818 0.505725 10.7139 573.425 -771.341 1408.41 0 0 0 0.5 
886 2 2 2.78402 2.94246 2.38259 114 1 0 -209.326 -4.46996 2.97432 122.655 -464.993 269.984 0 0 0 0.5 
485 1 1 2.12451 1.5452 2.94045 -49 0 1 -364.239 1.21347 -9.29229 1306.02 -2233.05 -910.375 0 0 0 0.5 
890 2 2 1.40767 2.78301 2.80168 -13 0 0 -230.847 13.282 -2.07 668.188 -938.765 682.107 0 0 0 0.5 
738 2 2 2.63023 1.09824 2.31179 107 1 1 -348.409 6.02735 11.7021 750.585 1396.14 -1651.41 0 0 0 0.5 
259 1 1 1.90956 0.87526 3.61503 -54 0 -1 -405.779 1.33811 -17.4745 685.694 -28.0154 -969.701 0 0 0 0.5 
900 2 2 0.0526102 0.995757 3.37154 -29 0 0 -378.355 -14.2915 -18.5391 -94.3338 -4.17119 -136.542 0 0 0 0.5 
656 2 2 0.649725 2.51015 2.31525 -38 0 1 -237.873 8.99188 9.95075 1582.57 1474.58 642.459 0 0 0 0.5 
411 1 1 2.3079 2.8163 3.78456 -28 0 0 -208.549 -18.6592 2.87431 -1153.25 1350.56 -79.7606 0 0 0 0.5 
450 1 1 1.75335 0.118964 2.93036 23 1 0 -426.114 12.9483 -3.74986 76.6582 1914.27 426.693 0 0 0 0.5 
425 1 1 1.05554 0.607714 3.24765 -56 0 0 -416.616 -11.8211 17.0461 -1558.03 232.195 673.298 0 0 0 0.5 
975 2 2 2.763 0.421993 2.8337 76 1 1 -405.306 11.4226 -5.59845 270.484 -658.505 2099.17 0 0 0 0.5 
159 1 1 0.89654 1.8866 2.28153 89 1 0 -316.255 -15.5271 0.376803 -1259.8 -1214.32 -779.443 0 0 0 0.5 
460 1 1 2.05953 3.61093 3.6064 -4 0 0 -138.546 8.54839 -27.5212 2332.11 617.003 -546.623 0 0 0 0.5 
600 2 2 1.40629 3.63459 2.59499 -13 0 1 -145.779 5.66383 14.9129 2327.44 -158.933 784.875 0 0 0 0.5 
627 2 2 4.38955 3.07233 3.39833 -10 0 0 -232.596 18.95 17.6439 165.468 136.93 -119.179 0 0 0 0.5 
12 1 1 1.70449 2.1626 3.30223 -51 0 0 -268.99 -8.44134 25.4681 -1257.69 1699.22 1090.14 0 0 0 0.5 
832 2 2 3.04352 3.2103 3.46324 -26 0 0 -187.354 19.9251 21.7612 -996.052 411.691 584.949 0 0 0 0.5 
429 1 1 3.50306 4.02745 3.81732 -19 0 0 -123.784 5.63012 5.07503 -1099.29 977.174 -874.395 0 0 0 0.5 
342 1 1 0.120939 2.80238 2.19404 -14 0 1 -240.545 7.23675 1.85783 -3215.86 1689.26 -648.672 0 0 0 0.5 
392 1 1 0.826998 4.04379 2.45224 -16 0 0 -118.044 17.6486 4.20504 -1341.08 1135.39 -699.842 0 0 0 0.5 
137 1 1 3.47663 0.767445 3.80304 -94 0 0 -388.245 -5.49077 -1.6122 -55.6806 -487.352 349.511 0 0 0 0.5 
933 2 2 0.261388 3.76437 3.21417 -10 0 0 -112.43 -12.1141 -1.59285 2213.29 -524.556 66.0603 0 0 0 0.5 
100 1 1 4.07216 4.6879 2.88399 -9 0 0 -79.1697 17.8446 7.01759 0 0 0 0 0 0 0.5 
19 1 1 2.82063 2.21084 3.93138 -36 0 0 -230.276 -25.1531 2.27543 1541.45 -1820.26 441.397 0 0 0 0.5 
357 1 1 1.86853 4.65518 3.78654 -97 -1 1 6.91159 11.1482 -17.5432 1024.63 671.199 207.78 0 0 0 0.5 
373 1 1 4.60408 0.8854 3.07345 -39 0 0 -342.553 6.83602 21.1337 -540.602 -310.167 -310.234 0 0 0 0.5 
477 1 1 4.02938 0.123862 3.23477 39 1 0 -369.709 1.93206 -10.3497 -1337.6 -97.4833 1997.08 0 0 0 0.5 
509 2 2 4.49017 2.14928 3.60982 -37 0 0 -267.157 3.23174 -6.27248 -642.077 -95.8406 700.33 0 0 0 0.5 
549 2 2 1.10636 3.6696 3.71535 -83 0 0 -95.5434 -2.14045 -15.7914 -3154.2 1592.53 -411.282 0 0 0 0.5 
427 1 1 2.84955 4.86551 3.81185 -1 0 0 9.92697 -4.85888 10.5656 330.691 1663.34 1181.93 0 0 0 0.5 
714 2 2 0.306388 4.70414 3.36524 145 1 0 -28.1 14.0844 -2.54698 1135.34 -2447.93 -2475.08 0 0 0 0.5 
762 2 2 1.95106 2.60658 2.087 -60 0 0 -215.318 -12.0448 22.6468 1170.39 -276.823 407.038 0 0 0 0.5 
15 1 1 4.12274 1.90472 2.47622 -44 0 1 -259.672 -7.08999 5.5943 6.6188 -36.6146 42.8207 0 0 0 0.5 
667 2 2 0.0835491 4.49324 2.43265 -50 0 0 -102.113 31.172 -3.25818 -1430.23 827.467 401.161 0 0 0 0.5 
939 2 2 3.56795 2.77463 2.99309 -10 0 0 -206.431 -15.0172 7.7 -725.052 -889.169 -411.319 0 0 0 0.5 
807 2 2 4.02481 3.75559 2.52092 -21 0 0 -138.174 8.64839 -0.0219592 -697.307 1990.51 96.7873 0 0 0 0.5 
731 2 2 2.68546 3.67556 2.73015 154 1 0 -166.808 9.75054 -13.0905 -255.553 815.785 445.08 0 0 0 0.5 
623 2 2 4.31636 2.92334 2.48046 -29 0 1 -217.725 -0.248825 -3.53237 148.401 -14.9098 -620.809 0 0 0 0.5 
354 1 1 2.6428 4.69558 2.23465 -14 0 1 -53.4203 2.08067 8.56728 1175.51 -212.027 196.525 0 0 0 0.5 
961 2 2 2.77253 4.34577 3.12789 2 0 0 -57.2588 15.6884 2.23037 1248.79 -644.391 602.799 0 0 0 0.5 
47 1 1 2.00649 1.80251 4.62062 -33 0 0 -284.766 -15.6672 -33.4931 -166.845 -168.63 46.7903 0 0 0 0.5 
169 1 1 1.94916 1.37112 5.56919 71 1 0 -337.814 -5.32296 17.3365 1440.92 -848.628 226.736 0 0 0 0.5 
39 1 1 1.61195 0.927665 4.43944 -53 0 0 -417.257 17.4444 -22.2701 -147.817 1372.53 1449.42 0 0 0 0.5 
967 2 2 1.73985 0.0235379 4.37396 66 1 -1 -479.176 1.01491 4.58108 -1890.39 2609.83 -24.6132 0 0 0 0.5 
476 1 1 0.788893 0.910464 5.5453 -6 0 0 -400.567 14.9998 -1.34543 -3454.1 1446.8 2742.48 0 0 0 0.5 
75 1 1 4.26482 1.72976 5.31406 46 1 1 -290.829 6.97524 -5.28847 424.659 864.309 -1121.41 0 0 0 0.5 
902 2 2 2.26615 2.63602 4.89785 76 1 0 -226.5 -7.41757 -15.3244 -773.085 -2004.07 -358.152 0 0 0 0.5 
585 2 2 0.579916 1.01907 4.13478 -41 0 1 -408.56 -6.21528 15.0156 54.6898 131.494 415.012 0 0 0 0.5 
249 1 1 3.92105 2.60281 4.08427 -47 0 1 -253.623 14.0271 1.45455 -798.478 2227.66 1106.35 0 0 0 0.5 
658 2 2 1.16424 1.8334 5.44568 -12 0 0 -306.651 7.27943 -10.8186 -1421.71 846.747 -290.942 0 0 0 0.5 
389 1 1 3.7846 3.00217 5.3022 -23 0 0 -223.055 17.1654 7.75642 0 0 0 0 0 0 0.5 
932 2 2 4.85347 2.89591 4.6493 -15 0 0 -250.887 25.5726 -21.8559 1319.82 -1588.43 1011.1 0 0 0 0.5 
145 1 1 1.81634 0.270784 5.81229 65 1 0 -514.843 22.0057 14.3211 1754.94 95.304 142.283 0 0 0 0.5 
18 1 1 1.41524 3.36697 5.4902 -13 0 0 -131.521 -10.3198 8.96721 -427.672 34.9576 -118.409 0 0 0 0.5 
271 1 1 0.33871 4.986 5.52461 -49 0 0 43.2577 -25.6326 1.91514 350.328 -1486.82 356.627 0 0 0 0.5 
837 2 2 3.48093 0.132953 5.48884 -83 0 0 -520.594 -9.61936 -3.45998 1945.04 -2935.15 -300.067 0 0 0 0.5 
792 2 2 0.460676 1.74455 4.7239 46 1 0 -359.318 11.0021 31.7083 1520.33 -1227.78 -1694.51 0 0 0 0.5 
640 2 2 1.38882 0.517213 5.1858 -66 0 0 -489.324 3.58162 -22.2878 2699.75 -662.917 -3461.32 0 0 0 0.5 
333 1 1 2.07475 4.13874 4.30595 6 0 0 -75.6025 -5.16746 9.11779 59.8833 1102.41 -289.749 0 0 0 0.5 
673 2 2 0.762573 0.101377 5.85117 53 1 -1 -484.582 -25.7441 9.32961 -810.44 -142.244 549.373 0 0 0 0.5 
243 1 1 2.24293 3.34726 4.56814 -23 0 0 -174.404 13.6573 3.57733 892.693 -1990.68 92.0517 0 0 0 0.5 
691 2 2 0.0544981 0.0241122 4.04309 43 1 0 -508.853 -9.89227 -32.4498 180.217 -31.2718 210.88 0 0 0 0.5 
111 1 1 2.81973 0.0865668 4.60399 29 1 0 -527.743 -12.7117 5.68081 -1618.87 46.3688 63.5998 0 0 0 0.5 
746 2 2 1.75153 4.4582 5.72127 2 0 0 -37.978 -2.4564 -9.75375 -613.475 802.317 -24.2724 0 0 0 0.5 
761 2 2 2.70879 0.897526 4.3714 -64 0 0 -397.882 10.5948 -15.949 203.652 933.2 139.475 0 0 0 0.5 
56 1 1 0.343867 3.73308 5.21334 -20 0 0 -106.235 -1.15674 -4.98543 1095.96 -179.999 241.092 0 0 0 0.5 
522 2 2 2.54569 4.12616 5.1771 -9 0 0 -90.2019 3.49384 30.5776 2384.82 -1273.92 -238.091 0 0 0 0.5 
451 1 1 2.09607 4.64661 4.95576 1 0 0 -24.0163 1.11745 11.0893 -1264.56 1778.3 -533.886 0 0 0 0.5 
129 1 1 2.97962 0.925 5.55572 -61 0 0 -405.24 2.69843 -26.644 -2342.06 2300.26 -1935.15 0 0 0 0.5 
445 1 1 2.78489 2.51435 5.59836 -7 0 0 -221.076 -0.683253 -14.4962 -723.162 894.299 1347.04 0 0 0 0.5 
240 1 1 4.30083 0.901532 5.35646 -61 0 0 -378.927 -21.2455 -3.51544 -2728.07 4868.01 1500.67 0 0 0 0.5 
217 1 1 0.0999291 3.93043 4.21085 -13 0 0 -104.553 0.719915 -10.3074 850.334 36.0714 -950.61 0 0 0 0.5 
941 2 2 1.06982 4.67974 4.05604 -6 0 0 -2.623 -17.0268 -4.63276 -353.689 1341.77 -82.6134 0 0 0 0.5 
486 1 1 3.61969 0.946691 4.73548 62 1 1 -386.349 -6.12125 -3.1416 -816.771 79.4623 -75.2821 0 0 0 0.5 
147 1 1 4.05509 1.81818 4.43231 -60 0 0 -302.342 -15.9099 -10.8153 -811.208 -290.891 -922.158 0 0 0 0.5 
396 1 1 3.22243 3.35486 4.50523 -19 0 0 -167.044 6.09036 -1.12656 -207.269 -0.448908 11.8951 0 0 0 0.5 
299 1 1 1.09726 4.8616 4.97463 -13 0 0 25.4792 -11.4118 -4.83818 1515.5 255.346 -220.421 0 0 0 0.5 
358 1 1 4.13649 3.46439 4.32116 -13 0 0 -155.094 29.9127 12.7499 -2531.7 380.285 -983.136 0 0 0 0.5 
644 2 2 2.65883 3.35878 5.62171 136 1 0 -151.498 8.78135 0.795963 928.17 -1156.86 454.202 0 0 0 0.5 
288 1 1 1.17048 3.813 4.6594 3 0 -1 -106.625 -6.4448 -10.7686 18.3372 -152.129 644.55 0 0 0 0.5 
942 2 2 -0.0468575 4.79615 4.75594 12 0 0 34.4857 -25.7698 -0.784011 13.2764 768.415 -1130.95 0 0 0 0.5 
493 1 1 3.45044 1.96772 5.21425 92 1 0 -297.516 2.40838 -2.9846 1609.83 -1801.07 -2291.26 0 0 0 0.5 
724 2 2 4.63301 0.151555 5.21312 -97 0 0 -505.843 -7.27971 -14.668 3459.83 -1345.87 15.2801 0 0 0 0.5 
465 1 1 4.82184 4.24433 4.82886 3 0 0 11.6389 -23.4957 14.0617 0 0 0 0 0 0 0.5 
689 2 2 4.92595 1.98077 4.55535 -30 0 0 -303.101 13.0461 -29.2351 187.472 691.065 -619.741 0 0 0 0.5 
369 1 1 4.88335 2.29681 5.75397 -22 0 0 -248.153 -5.28969 -18.8272 -1905.39 -934.298 -834.87 0 0 0 0.5 
687 2 2 3.39522 0.514708 6.22065 49 1 0 -490.065 -6.2077 6.22088 -445.69 1085.61 2245.09 0 0 0 0.5 
785 2 2 2.10709 3.68093 6.16473 121 1 0 -139.115 2.07569 27.5688 2374.48 1172.78 -832.041 0 0 0 0.5 
678 2 2 2.53775 4.56201 6.08366 -5 0 0 -29.3785 11.9467 16.2404 489.936 -4950.46 -288.678 0 0 0 0.5 
2 1 1 3.74908 2.07705 7.59559 1 0 0 -240.784 9.8313 -3.09784 194.039 879.337 -313.96 0 0 0 0.5 
332 1 1 2.34303 0.384941 6.60772 -64 0 0 -471.022 -3.46788 7.3921 798.839 2784.77 -621.419 0 0 0 0.5 
539 2 2 4.72382 1.42057 6.09213 -63 0 0 -381.696 12.8789 9.30782 1151.29 -222.433 -619.638 0 0 0 0.5 
204 1 1 0.329319 1.71202 7.53222 -80 0 0 -336.039 20.8118 0.452485 -191.51 284.027 -236.18 0 0 0 0.5 
420 1 1 3.3323 4.51189 6.80906 5 0 0 -28.8469 -16.8244 6.37516 138.8 -1111.73 -70.8312 0 0 0 0.5 
608 2 2 1.31836 2.7058 6.47127 -13 0 0 -164.071 -7.08764 31.7797 -2570.88 -1182.84 1365.64 0 0 0 0.5 
572 2 2 2.29018 2.57835 7.29393 -33 0 0 -219.987 1.03414 1.88736 -1043.52 268.015 -195.41 0 0 0 0.5 
569 2 2 0.973257 0.753741 7.27263 115 1 -1 -422.625 0.75119 10.15 -1657.45 59.8603 -588.348 0 0 0 0.5 
568 2 2 2.05294 2.50055 6.13375 -29 0 0 -202.001 -8.35439 -3.05446 1206.07 -675.717 -305.138 0 0 0 0.5 
355 1 1 1.35473 0.221678 6.69673 45 1 0 -469.958 -28.5167 5.91349 -1492.64 2007.25 2725.4 0 0 0 0.5 
350 1 1 0.045782 0.10056 6.66046 33 1 0 -511.129 8.69167 5.406 1647.77 1198.16 76.2999 0 0 0 0.5 
498 1 1 3.5953 1.13497 6.7686 118 1 0 -365.373 -9.37944 21.1221 -69.7194 -537.579 -1325.89 0 0 0 0.5 
865 2 2 0.878149 1.86141 6.40191 -32 0 -1 -302.718 21.4383 -11.1344 -78.8391 3938.68 -387.141 0 0 0 0.5 
236 1 1 2.17726 1.53349 7.62342 -52 0 0 -348.791 3.72672 -33.941 3275.23 -1566.87 139.681 0 0 0 0.5 
399 1 1 1.7675 0.485034 7.64153 -57 0 -1 -434.791 7.40967 -0.225695 1291.35 906.338 -48.6101 0 0 0 0.5 
671 2 2 1.68039 3.87221 6.85202 3 0 0 -119.585 8.75485 16.8455 1904.22 -2368.56 3338.87 0 0 0 0.5 
613 2 2 2.02038 4.32157 7.59954 -20 0 0 -67.75 -4.16011 -9.66892 550.596 215.585 625.978 0 0 0 0.5 
821 2 2 4.05241 0.0101314 6.51719 75 1 0 -501.665 -6.87208 4.64758 -1750.1 2015.96 -47.1 0 0 0 0.5 
548 2 2 0.139727 1.02809 6.77596 -49 0 0 -420.076 20.8524 10.2338 -189.48 -778.997 177.322 0 0 0 0.5 
213 1 1 1.33263 1.75297 7.20757 75 1 0 -316.756 11.9239 -0.124478 -2242.29 250.383 -1497.67 0 0 0 0.5 
284 1 1 1.24794 2.91564 7.69091 -70 0 0 -245.336 13.0604 -29.5214 5440.21 -1752.19 -793.871 0 0 0 0.5 
412 1 1 1.09463 1.07524 6.4574 -107 0 0 -407.018 5.50257 13.4269 658.107 -1848.85 -1179.74 0 0 0 0.5 
205 1 1 4.83413 0.85038 7.05634 -83 0 -1 -389.51 -12.9945 6.04503 631.654 -728.872 1520.67 0 0 0 0.5 
326 1 1 4.65678 2.5666 7.57358 0 0 0 -220.719 -3.99478 -21.5638 -1597.48 3324 392.27 0 0 0 0.5 
257 1 1 4.56476 2.65265 6.38665 -15 0 0 -195.678 4.47124 0.419538 -1637.71 1211.36 1258.02 0 0 0 0.5 
734 2 2 2.80848 1.72768 6.05852 -25 0 0 -301.965 -13.505 -12.0868 -622.015 1951.86 1098.76 0 0 0 0.5 
869 2 2 0.637915 3.0245 6.00218 -23 0 0 -151.167 -25.1101 -12.2868 -240.822 320.257 -665.738 0 0 0 0.5 
816 2 2 1.98911 4.94332 6.73018 -4 0 0 14.6793 14.6797 6.38343 -603.589 841.332 1194.87 0 0 0 0.5 
996 2 2 0.892455 3.69253 7.14797 5 0 -1 -112.763 -13.822 16.8398 -314.504 -738.091 85.5481 0 0 0 0.5 
94 1 1 0.447868 4.66486 6.82036 -17 0 0 2.72903 8.3684 10.8145 285.731 -2297.82 695.236 0 0 0 0.5 
948 2 2 3.68001 1.75035 6.08607 92 1 0 -286.478 7.44605 2.41337 347.606 -698.07 1179.63 0 0 0 0.5 
439 1 1 3.05174 2.44988 7.69722 -13 0 0 -223.299 12.6379 19.1129 -1319.22 1060.91 848.378 0 0 0 0.5 
944 2 2 2.84998 0.744214 7.6149 -47 0 0 -418.891 -4.06146 25.8605 -9.53485 83.1704 -147.727 0 0 0 0.5 
311 1 1 0.419196 3.84744 6.29438 -3 0 0 -99.6405 0.191405 5.88107 4335.07 -3081.26 784.486 0 0 0 0.5 
863 2 2 1.17963 4.47718 6.29285 -22 0 0 -15.4449 -17.4315 26.8938 -3903.61 365.663 -2320.7 0 0 0 0.5 
206 1 1 0.343513 3.24351 7.93623 -40 0 0 -144.778 -22.3765 4.1606 -4342.87 3527.66 1288.35 0 0 0 0.5 
220 1 1 0.141172 3.99875 7.32647 109 1 0 -120.382 -7.99748 15.2067 -482.694 1900.19 -1289.01 0 0 0 0.5 
226 1 1 4.10697 1.44539 7.76492 -45 0 0 -295.128 -18.668 17.74 -331.206 -1849.76 -148.949 0 0 0 0.5 
65 1 1 2.89967 2.44854 6.63882 -3 0 0 -198.799 3.43402 -4.75501 -40.2094 -597.369 -438.826 0 0 0 0.5 
21 1 1 2.79766 1.20059 6.80428 -68 0 0 -357.548 0.529906 5.90727 -3616.08 -2367.22 131.071 0 0 0 0.5 
67 1 1 3.84749 0.682214 7.94821 99 1 0 -443.678 5.93166 16.2016 -3121.14 1843.24 -1162.41 0 0 0 0.5 
395 1 1 3.50421 0.000998055 7.31183 21 1 0 -508.57 -4.10634 9.48721 628.415 1169.85 1035.36 0 0 0 0.5 
348 1 1 4.25042 3.40305 6.13327 -3 0 0 -148.274 28.0723 -0.269712 -477.844 1140.74 -385.186 0 0 0 0.5 
806 2 2 4.31174 2.0355 6.89891 -53 0 0 -255.413 5.89413 -5.07219 266.506 802.255 -1141.31 0 0 0 0.5 
283 1 1 4.30972 1.32032 6.83973 -73 0 0 -362.9 -8.52391 2.847 -879.86 438.675 340.486 0 0 0 0.5 
781 2 2 4.2447 0.104615 7.97788 54 1 0 -484.065 4.42213 -15.827 -601.267 -397.639 214.047 0 0 0 0.5 
120 1 1 4.95699 0.324216 6.46605 -65 0 -1 -489.271 -5.70299 -8.06075 -1126.27 -1880.92 -1549.02 0 0 0 0.5 
69 1 1 4.82977 2.31229 8.27038 -33 0 0 -249.844 -3.5573 12.0195 -1023.26 582.037 255.745 0 0 0 0.5 
956 2 2 4.66384 1.55839 8.43992 -39 0 0 -301.054 -14.9261 13.3831 -317.755 -241.973 -484.029 0 0 0 0.5 
96 1 1 1.2503 0.425875 8.57175 -29 0 0 -412.704 -20.551 -15.7419 390.986 1210.37 -45.6037 0 0 0 0.5 
703 2 2 2.21187 0.921352 8.42141 -72 0 0 -388.159 -1.71071 -16.9064 1103.36 -743.768 -813.572 0 0 0 0.5 
519 2 2 0.80942 1.96693 8.39552 -26 0 -1 -241.51 -9.27328 -26.5159 -7455.18 3975.03 326.694 0 0 0 0.5 
856 2 2 0.75329 0.0286629 9.35747 -72 0 0 -473.327 0.951813 -5.4568 1838.23 152.762 -682.064 0 0 0 0.5 
775 2 2 1.24386 0.850412 9.66474 -63 0 -1 -389.496 -3.63744 -2.17713 -1662.21 3109.41 -2149.22 0 0 0 0.5 
224 1 1 4.69305 1.02553 8.9517 -61 0 0 -334.106 -30.6531 31.2522 2137.17 1893.18 317.496 0 0 0 0.5 
406 1 1 1.20216 3.24185 9.56543 -36 0 0 -168.351 12.1996 3.7237 -42.0372 152.914 -576.946 0 0 0 0.5 
241 1 1 2.39223 3.89876 9.96805 121 1 0 -113.514 -9.34334 0.458738 302.615 -911.087 -1164.54 0 0 0 0.5 
551 2 2 4.53035 3.52522 9.0674 0 0 0 -89.81 -9.13362 17.7811 -2925.91 3282.6 1459.74 0 0 0 0.5 
876 2 2 1.24037 3.67296 8.29774 -19 0 0 -155.826 12.0562 -19.2419 5308.48 -5450.25 -337.338 0 0 0 0.5 
265 1 1 -0.0201881 2.75166 9.75083 -30 0 0 -183.157 -1.89082 2.37505 -1414.41 -1909.95 -1615.28 0 0 0 0.5 
800 2 2 1.69652 1.70681 9.44598 106 1 -1 -317.879 -6.60062 7.99881 -82.1879 -1954 -2744.68 0 0 0 0.5 
245 1 1 1.64214 2.02156 8.07813 -25 0 0 -304.461 30.8478 -21.5837 3778.18 1747.83 53.3412 0 0 0 0.5 
430 1 1 2.42234 4.26086 9.1571 -18 0 0 -80.0079 6.18234 -21.0226 7.48991 241.294 122.787 0 0 0 0.5 
767 2 2 2.06391 2.86484 8.1861 -36 0 0 -232.891 36.918 1.83804 -1562.38 -1605.12 -794.089 0 0 0 0.5 
282 1 1 0.736306 1.10842 8.03414 85 1 -1 -371.849 -11.5599 15.7009 -746.271 -367.89 1445.08 0 0 0 0.5 
790 2 2 3.85678 0.511859 9.26167 -58 0 0 -416.256 -8.33646 4.43411 763.095 -653.922 -933.153 0 0 0 0.5 
237 1 1 1.54237 1.33003 8.53768 -27 0 0 -376.488 3.87661 11.0892 2433.83 -2895.42 984.855 0 0 0 0.5 
233 1 1 4.05343 1.457 9.12312 -32 0 0 -310.257 -16.143 38.7999 -1825.59 1302.94 190.211 0 0 0 0.5 
431 1 1 1.56139 2.42996 8.90884 -39 0 -1 -276.833 26.1888 -23.3975 551.842 -347.872 768.76 0 0 0 0.5 
819 2 2 0.243508 2.22159 9.02369 -26 0 0 -221.921 -18.4614 0.193468 -434.008 -69.7271 201.891 0 0 0 0.5 
592 2 2 1.17514 2.45974 9.61682 -9 0 -1 -259.256 -15.0596 14.546 278.679 1159.51 -1871.74 0 0 0 0.5 
51 1 1 4.42955 3.23637 8.12791 7 0 0 -182.579 16.6307 14.1845 20.286 -243.956 -260.77 0 0 0 0.5 
875 2 2 3.12214 2.65542 8.67662 14 0 0 -254.246 1.66499 -8.86599 168.741 -720.073 -1724.54 0 0 0 0.5 
413 1 1 0.749693 3.06564 8.8087 -35 0 -1 -156.459 -26.0485 1.54023 3078.4 830.753 -1091.45 0 0 0 0.5 
261 1 1 3.7427 4.36797 9.55272 -6 0 0 -50.9168 -6.22908 5.66608 -151.993 126.935 75.137 0 0 0 0.5 
40 1 1 1.4657 4.25708 9.51148 -8 0 0 -59.6328 -1.8037 0.618765 215.356 -893.374 -157.895 0 0 0 0.5 
719 2 2 4.7831 0.343558 8.80482 74 1 0 -457.86 -2.93497 -20.2466 591.587 -3611.6 -221.067 0 0 0 0.5 
559 2 2 3.02059 1.88284 9.41506 -71 0 0 -318.475 18.0767 -14.7068 -29.0491 211.839 -23.2759 0 0 0 0.5 
415 1 1 1.66904 4.99165 8.12201 -1 0 -1 -14.5072 17.987 10.6441 2257.07 216.573 -349.494 0 0 0 0.5 
935 2 2 4.14524 2.63401 9.88895 -18 0 0 -230.606 5.6753 0.0704431 -812.616 1268.57 -620.274 0 0 0 0.5 
771 2 2 2.87778 0.456609 8.75958 -49 0 -1 -402.889 -16.6335 6.62421 619.36 -603.458 168.462 0 0 0 0.5 
229 1 1 3.14204 0.997193 9.51237 -33 0 0 -393.089 -5.89095 -1.20372 -2113.26 1507.6 -177.012 0 0 0 0.5 
478 1 1 0.897192 4.96804 8.05206 14 0 0 -17.7805 -5.73954 19.1542 1338.73 -1626.57 881.545 0 0 0 0.5 
281 1 1 0.464819 4.26488 9.49969 24 0 -1 -58.763 -16.9913 11.7112 443.957 -839.274 1933.66 0 0 0 0.5 
739 2 2 2.61416 4.70919 8.33152 4 0 0 -28.613 3.81802 -31.8645 -214.329 -107.184 639.677 0 0 0 0.5 
990 2 2 0.594851 4.1455 8.15787 1 0 -1 -69.078 7.11005 -9.35584 -2730.49 367.072 -2682.53 0 0 0 0.5 
662 2 2 3.82331 2.08336 8.53596 -21 0 0 -253.818 -2.35379 -1.49553 -954.389 500.789 630.12 0 0 0 0.5 
242 1 1 0.835367 4.05109 8.89686 -98 -1 0 -83.4817 0.688477 13.068 274.735 -1738.27 -226.256 0 0 0 0.5 
446 1 1 2.86632 3.06616 9.31441 -19 0 0 -202.209 10.5225 -0.847246 -473.586 994.346 805.544 0 0 0 0.5 
384 1 1 3.05395 4.94318 9.8932 -33 0 0 -54.4373 15.7517 -5.63393 74.2577 -161.06 -60.3319 0 0 0 0.5 
133 1 1 1.51017 9.75952 1.83387 57 0 1 462.459 2.6528 -29.0409 -2555.5 1453.68 320.749 0 0 0 0.5 
208 1 1 0.182978 6.41119 1.67612 7 0 0 107.158 18.4849 -25.2939 2094.71 -1889.18 1431.19 0 0 0 0.5 
246 1 1 1.8869 9.48912 0.342614 97 0 1 503.182 -11.3883 13.2351 -966.954 -1021.29 1131.76 0 0 0 0.5 
462 1 1 4.28482 8.94331 0.41813 77 0 0 375.455 9.69152 0.820948 0 0 0 0 0 0 0.5 
633 2 2 0.500121 9.2694 1.32285 -63 -1 1 398.727 10.6727 12.6961 -326.911 91.3631 143.963 0 0 0 0.5 
398 1 1 2.9101 7.47975 1.64567 25 0 0 246.347 6.66065 -4.97272 1350.58 -257.072 68.6302 0 0 0 0.5 
576 2 2 2.64198 5.51844 0.900571 46 0 0 10.4948 17.2876 -21.6244 1918.76 -1197.4 -385.573 0 0 0 0.5 
853 2 2 0.402445 9.75702 0.30346 45 0 0 527.278 -15.7106 13.944 234.752 -94.9688 258.207 0 0 0 0.5 
37 1 1 3.3847 5.93185 1.67884 -130 -1 0 110.299 -18.961 -5.19295 589.578 -1521.18 661.897 0 0 0 0.5 
292 1 1 3.3475 7.26031 0.445701 -130 -1 0 231.355 -18.2203 -14.4192 -1344.44 -1918.22 -630.972 0 0 0 0.5 
196 1 1 1.30253 9.04515 0.969485 103 0 0 399.12 5.63935 -12.087 1243.65 783.711 -1309.61 0 0 0 0.5 
328 1 1 2.78027 7.45154 0.729562 7 0 0 224.276 -22.1642 -0.115376 -2503.66 916.575 450.67 0 0 0 0.5 
686 2 2 2.98346 6.35859 0.439685 20 0 0 75.7298 23.032 -34.8104 1741.74 1636.89 1509.63 0 0 0 0.5 
696 2 2 3.46131 5.63239 0.514209 9 0 0 32.1516 8.35293 -4.11149 1227.51 -1426.67 25.4399 0 0 0 0.5 
710 2 2 4.74107 8.04174 1.06534 55 0 0 351.51 -23.5679 6.70652 -1830.41 325.83 524.207 0 0 0 0.5 
118 1 1 3.39701 8.14966 0.085125 79 0 1 359.875 -15.9096 13.7805 -2325.53 3513.14 1230.96 0 0 0 0.5 
385 1 1 3.29129 9.42113 0.544224 -96 -1 0 473.318 4.85936 -0.110259 19.7701 65.6891 506.874 0 0 0 0.5 
155 1 1 1.77183 6.74798 0.840315 10 0 1 136.913 30.7278 14.0813 -730.816 2144.79 -770.971 0 0 0 0.5 
13 1 1 0.315849 8.14784 1.30792 -17 0 0 258.849 17.9181 -4.55511 0 0 0 0 0 0 0.5 
457 1 1 1.06803 6.29709 1.41663 4 0 0 110.052 10.3469 -16.9623 1086.97 -538.718 -15.0264 0 0 0 0.5 
810 2 2 2.23286 6.11166 1.161 37 0 0 84.421 26.1772 -2.33732 -347.349 296.365 2578.7 0 0 0 0.5 
906 2 2 1.10834 7.46581 0.0697664 25 0 0 233.062 -3.87006 -6.44295 -986.05 251.129 95.203 0 0 0 0.5 
685 2 2 1.29681 5.93436 0.448778 19 0 1 55.4699 40.1267 -16.9519 113.199 464.365 -292.445 0 0 0 0.5 
643 2 2 4.44817 5.27123 0.76017 -27 0 1 17.8307 1.74003 2.93027 0 0 0 0 0 0 0.5 
582 2 2 1.95003 5.39892 1.56806 12 0 0 -8.63679 16.5067 -20.4696 1658.62 1829.72 861.717 0 0 0 0.5 
917 2 2 0.316828 5.16314 1.609 14 0 0 6.15047 -2.89375 -5.24789 890.994 1167.14 840.204 0 0 0 0.5 
798 2 2 1.91491 8.52922 1.31378 -74 -1 0 393.939 -18.8111 14.148 -760.734 3783.01 -1023.75 0 0 0 0.5 
706 2 2 -0.04748 6.18214 0.561699 39 0 1 126.545 11.2729 22.971 1544.44 -1170.84 -916.353 0 0 0 0.5 
811 2 2 2.19025 6.64486 0.0762261 1 0 1 109.367 25.3639 -18.4401 400.307 -2516.41 1296.09 0 0 0 0.5 
252 1 1 2.84557 8.23919 0.891985 80 0 1 354.615 3.86776 16.11 1173 -1509.44 119.356 0 0 0 0.5 
512 2 2 2.18096 7.82181 1.93731 20 0 0 253.544 1.93389 -5.36518 1614.91 -2646.61 2183.43 0 0 0 0.5 
390 1 1 2.2062 8.43387 0.450068 27 0 0 362.407 -0.616136 -1.25415 -418.566 614.45 -270.373 0 0 0 0.5 
279 1 1 4.19864 6.26576 1.2295 165 1 0 109.239 -3.64896 -8.03664 11.746 -921.566 392.785 0 0 0 0.5 
723 2 2 1.2313 8.28129 0.32013 41 0 0 370.025 6.61725 -7.45021 -466.142 -209.785 -102.336 0 0 0 0.5 
976 2 2 4.04562 7.12401 0.917017 37 0 0 220.868 11.7729 -9.79413 565.894 680.766 955.245 0 0 0 0.5 
136 1 1 1.21307 5.00439 1.98635 -15 0 0 7.50846 -5.0954 0.734759 1412.21 -1665.83 -651.683 0 0 0 0.5 
614 2 2 3.80863 6.97494 1.87427 37 0 1 185.371 17.0662 -7.13533 1731.87 -1271.51 -2109.94 0 0 0 0.5 
631 2 2 1.48561 5.32558 0.766794 10 0 0 5.41015 2.17632 18.9308 -3219.14 -262.438 577.716 0 0 0 0.5 
210 1 1 2.78372 9.05151 1.35347 64 0 0 410.621 13.7913 -6.79396 3234.65 -994.091 -1212.13 0 0 0 0.5 
607 2 2 3.62779 8.34579 1.32197 28 0 1 368.067 6.98869 9.08432 435.327 105.506 353.372 0 0 0 0.5 
593 2 2 0.949621 6.9405 0.783957 17 0 1 128.583 18.216 -0.66496 -1432.86 952.734 -645.573 0 0 0 0.5 
845 2 2 0.526415 5.08557 0.70278 -17 0 1 9.48768 5.74808 -22.2534 -1659.17 -36.9253 -1676.86 0 0 0 0.5 
447 1 1 0.117711 7.45794 0.0678687 35 0 1 229.942 5.93006 16.7362 -383.05 -392.737 589.022 0 0 0 0.5 
269 1 1 3.90907 9.91577 1.14618 -67 -1 1 497.485 8.20169 -19.6746 -89.1364 -211.395 135.714 0 0 0 0.5 
758 2 2 1.94793 5.1275 0.3218 -21 0 0 4.5692 24.8335 5.81751 2808.53 1327.83 451.333 0 0 0 0.5 
262 1 1 2.17074 9.38376 1.75096 -69 -1 0 454.648 8.74834 -14.831 -1211.23 -854.552 608.029 0 0 0 0.5 
176 1 1 3.16141 6.72011 1.30935 22 0 1 199.751 -17.7278 -20.7721 -851.117 636.696 -1968.88 0 0 0 0.5 
529 2 2 4.75335 5.11612 1.71105 -4 0 0 -10.4524 3.37292 3.70537 -1664.45 2221.53 -849.637 0 0 0 0.5 
163 1 1 2.50744 9.78417 3.58404 70 0 0 532.826 13.6258 -17.0128 -5634.29 4913.89 747.815 0 0 0 0.5 
958 2 2 0.0244637 9.73249 2.50433 77 0 1 458.922 7.14232 15.7881 -5.08489 -741.603 340.289 0 0 0 0.5 
601 2 2 2.7915 7.68816 3.12088 24 0 0 268.344 11.9637 -16.8469 -198.093 727.832 -280.814 0 0 0 0.5 
981 2 2 3.46599 7.50767 3.59196 30 0 0 254.178 4.67033 -0.419117 -55.8095 1605.92 99.7328 0 0 0 0.5 
879 2 2 1.93372 9.44658 2.69123 81 0 1 457.875 -16.4151 -6.54815 -1216.16 -1174.75 1107.99 0 0 0 0.5 
386 1 1 1.40458 7.78723 2.27662 26 0 0 274.246 -20.9356 -10.8117 -2743.89 -419.495 277.766 0 0 0 0.5 
164 1 1 4.52975 6.87211 2.46829 25 0 0 184.522 7.06917 -2.36927 227.053 -1883.44 -210.606 0 0 0 0.5 
541 2 2 4.02593 9.53002 2.0219 42 0 0 478.828 -7.62595 -10.5891 1514.94 -1937.12 39.8926 0 0 0 0.5 