# vtk DataFile Version 4.2
Generated by LIGGGHTS
ASCII
DATASET POLYDATA
POINTS 1000 float
2.3087 0.191203 1.53027 0.010885 1.9873 1.39044 3.73074 2.20048 0.0579894 
4.27436 3.46317 1.90271 3.50095 2.05964 1.52804 2.21264 0.809701 1.78897 
2.62809 4.82608 1.11876 1.70427 1.75067 0.563834 0.937797 0.999111 0.664557 
1.12327 2.35617 0.881301 2.09628 0.1908 0.669511 0.842017 0.259582 1.18272 
3.84384 3.0729 0.324742 2.31165 2.50837 0.6004 1.32398 3.30405 0.324924 
2.57485 3.97191 0.678946 2.4589 3.20505 1.24256 1.69576 3.77017 1.18309 
2.43218 3.81975 1.79414 4.41176 0.599117 0.456206 4.42251 2.86813 1.11499 
4.76148 4.20662 0.301615 0.28277 2.02046 0.516091 1.50167 2.95279 1.50963 
2.43923 2.37065 1.53336 0.558762 1.42715 1.18341 2.10577 3.01156 0.232339 
4.4191 1.66474 0.074678 2.64462 1.58829 1.56718 4.21167 0.311673 1.25195 
0.576754 2.82955 1.58754 4.39602 1.68075 1.0495 3.57128 4.60625 1.45508 
0.417129 2.86747 0.616683 4.63596 1.31151 1.64942 3.47686 1.1342 1.65818 
4.54021 4.20592 1.54983 3.34762 3.65492 1.70573 3.79025 3.42189 1.06473 
0.378085 4.0658 0.515391 3.18405 1.89116 0.740304 2.70758 1.12403 0.841204 
3.1191 0.409837 0.975547 2.76232 4.74618 0.101868 0.866587 3.96608 1.58526 
3.43355 4.12782 0.877253 2.9525 2.53423 0.61324 4.39841 4.8786 1.65529 
2.98928 3.39417 0.505109 0.549404 4.7616 1.39395 2.19964 1.49264 3.27416 
1.40055 1.12762 3.80192 2.67722 3.08952 3.59363 2.06429 1.31008 2.39131 
1.1308 2.71446 3.41013 3.27458 1.62092 2.78484 1.27501 1.79155 3.22183 
0.740652 1.91324 2.03641 2.04648 2.28331 3.61901 4.17288 0.909528 3.28363 
1.83408 2.00966 2.42267 0.343636 1.30805 3.25029 3.74266 4.24039 2.31656 
1.18017 1.01908 2.67986 1.55903 3.18057 2.54022 3.01056 1.66723 3.70322 
3.2141 3.08028 2.40034 0.560267 2.11253 2.88082 3.56565 0.802081 2.58497 
2.12994 0.695052 3.43889 2.62747 0.703735 2.58474 1.7508 0.356859 2.58635 
1.90605 3.88573 3.23957 2.99843 4.31472 2.39984 2.00703 4.15577 2.31578 
0.305449 2.89297 2.93537 2.04146 4.85634 3.30739 0.964464 3.73111 3.50727 
0.316194 4.24685 3.69628 2.94631 4.88782 3.24567 0.293711 0.962411 2.02659 
2.20734 2.89334 2.14284 3.5796 0.232027 2.01925 3.52501 3.12434 3.28423 
3.81238 4.80064 3.10461 2.65354 4.98469 2.12692 3.50786 2.51628 2.13885 
4.56978 4.76721 3.36506 4.61677 3.31682 3.75246 0.172902 3.33938 2.13586 
4.29621 3.22618 2.82281 1.29475 4.38998 2.82936 2.70155 2.18386 2.76292 
3.0159 3.91315 3.19394 4.44791 2.67573 2.01597 4.51665 0.603582 2.18728 
4.49478 4.42536 2.55796 4.46538 4.02974 3.61579 4.56882 1.83417 3.48205 
4.85959 0.466369 3.35808 4.90918 1.74878 2.52397 3.71156 1.30914 3.99924 
2.54824 0.187174 5.94622 1.43175 3.42985 4.02136 2.06205 1.10771 4.99703 
0.454393 0.922934 4.11715 1.44209 1.64831 4.89458 2.26682 1.88426 4.48061 
2.18199 3.23978 5.59025 2.25955 1.2774 5.86975 0.237684 1.87255 4.28462 
2.547 2.54913 5.04895 0.690333 2.76884 5.13336 2.42591 0.409814 5.16872 
1.67116 0.517942 4.29991 1.56148 2.38874 4.29502 2.00147 3.14511 4.17196 
1.13908 2.35492 5.2488 2.48506 4.08139 5.69384 2.87476 4.26725 4.02701 
4.0539 2.83854 4.34933 0.642613 4.07347 5.25985 0.486852 3.34431 4.48025 
3.29944 2.27741 5.60383 3.50325 0.454801 5.40091 1.75867 4.07541 4.54134 
4.9605 0.216538 5.50876 3.32411 4.25188 4.8072 0.172436 4.66327 5.01019 
0.231658 3.24419 5.5225 4.507 2.85073 5.10459 4.27327 1.51724 4.975 
4.54526 4.86423 4.91216 2.66799 3.37044 4.65251 3.41657 3.63451 4.08298 
4.55014 3.83107 5.84932 1.78752 4.51858 5.35785 3.3231 4.14704 5.67878 
3.10385 1.72321 4.78575 3.18364 2.53626 4.15258 3.12167 1.14621 5.90036 
3.12619 0.71827 4.58677 4.2173 0.609072 4.09553 4.32156 2.17218 5.72696 
4.05556 0.0144583 5.46227 4.54582 0.255325 4.72393 4.37537 0.994728 5.99064 
4.88175 3.8369 4.58478 0.018856 2.01005 6.16469 4.68115 1.4982 7.7714 
0.317437 1.33448 7.93126 2.26152 2.33382 6.00368 3.38073 0.538853 6.33323 
1.24351 0.202724 7.17011 4.67885 0.637661 7.05107 4.64505 0.413145 6.16775 
2.13389 4.5789 6.31652 2.0047 2.60326 6.92535 2.18181 2.05105 7.67991 
3.54039 3.96883 7.94882 0.623699 2.99816 7.82223 0.842396 1.77939 6.5315 
0.74578 3.78235 6.95972 4.03017 4.93463 7.23493 4.48914 2.51803 6.59842 
1.58871 4.17056 7.83482 1.33338 4.94167 6.06207 0.465504 2.9194 7.08362 
0.015799 2.81208 6.34385 2.90342 3.26142 7.56593 4.11725 0.35887 7.90933 
0.424903 4.57566 6.05817 4.36009 3.7224 7.85298 4.81112 2.56667 7.96481 
2.71585 4.20661 7.65592 3.59356 1.56218 6.62725 1.78763 2.81525 7.96767 
0.941025 3.77273 6.08725 2.12859 4.66941 7.20989 2.79392 0.732597 7.04691 
3.53266 3.67711 6.40607 2.95969 1.61563 7.3208 3.69631 2.51238 7.39764 
2.9749 4.30752 6.72496 0.194405 4.24317 6.87386 4.66787 4.71024 6.42495 
0.678445 4.3016 7.72555 3.63508 0.534738 7.17315 4.38509 1.65292 6.43921 
4.22284 3.17208 6.59858 4.17171 4.05539 6.97678 4.24166 1.9459 7.28896 
4.92564 3.44804 7.00833 2.37336 0.186313 8.20506 0.684646 0.492945 8.25476 
0.434019 2.55438 9.63046 -0.028395 4.24259 9.65322 0.552854 0.653779 9.17409 
2.48967 3.31995 9.37232 0.831938 1.22711 9.85557 1.35303 2.26414 9.7635 
3.81876 0.699179 9.83841 4.62651 0.955964 8.46032 1.91599 4.40621 8.70124 
2.93386 4.98822 9.18469 0.918578 1.96781 8.67925 4.59363 1.06451 9.55176 
2.15774 2.01304 9.51946 4.5831 0.136965 9.6404 2.08324 1.91024 8.62107 
3.96759 3.17079 9.19855 1.53472 3.67854 9.28305 0.517275 1.76392 9.90329 
1.07768 2.86939 9.00095 2.87577 0.837469 9.93282 2.18286 0.542826 9.01472 
1.82251 3.59992 8.30832 3.70411 4.82489 9.27004 0.205671 2.78374 8.60689 
3.2634 0.421158 9.07811 0.55312 3.41103 9.84845 0.997075 4.27529 9.56306 
4.57538 3.00613 9.68578 4.37244 4.40863 9.59375 3.48518 4.83994 8.13145 
3.75619 1.08016 8.09671 2.89701 1.00667 8.05009 2.93095 2.79403 8.37541 
3.36867 4.1812 9.9204 3.05272 1.90873 8.65948 2.06942 1.1638 9.97298 
0.1629 4.72413 8.27453 0.597597 4.08245 8.72127 3.83291 4.26195 8.66374 
3.2866 3.3085 9.72604 3.30683 3.52298 8.79581 4.08942 1.20776 8.9066 
4.04309 2.87913 8.31946 4.88734 3.21997 8.64081 4.91929 4.68083 8.77534 
2.63227 8.89245 0.90078 1.57279 9.39303 1.4188 0.857521 8.51058 1.05551 
3.76179 7.21219 0.435404 3.02821 8.96443 1.76671 3.59084 5.30537 0.0146886 
4.085 9.72315 1.83614 4.07484 9.36697 1.05869 3.81675 8.42922 0.0603693 
4.1535 5.02779 0.254102 0.213961 8.8126 1.41512 2.55916 6.32626 0.468864 
1.46548 5.42484 0.445361 0.88865 9.17644 0.179647 2.83799 7.84177 1.98388 
4.44073 7.54251 1.81072 0.126204 8.44076 0.365627 3.56105 7.74294 1.77722 
0.655017 9.59995 1.78057 1.02602 9.92654 0.464244 3.22662 6.57761 1.25525 
3.03932 8.39727 1.17689 4.15111 6.76266 1.03537 -0.0373113 9.21311 0.312253 
1.04984 7.43985 1.81022 2.35277 9.4208 1.33612 1.64988 8.36528 1.84211 
0.0891302 6.3152 0.103093 0.100523 7.83678 1.63193 1.80805 7.56387 0.747604 
0.713632 7.05481 0.135311 0.0139206 5.76596 1.02124 4.46557 8.30917 0.489927 
0.189518 6.77969 1.75968 1.48085 6.66147 0.891509 1.14499 7.69139 0.841012 
0.482597 5.22439 0.825409 0.663907 6.08786 1.56486 1.26153 5.78362 1.28355 
0.489988 7.82275 0.341751 0.67055 5.82905 0.0600715 2.6021 7.11312 0.190266 
1.77246 6.85313 1.71832 3.04557 6.05871 1.87298 2.25557 8.05051 1.42084 
2.18021 5.56995 1.53793 2.91499 9.56499 1.81786 2.74108 5.76781 0.907449 
3.27119 9.7698 0.539336 3.35914 7.93452 0.751229 3.44221 8.96665 0.536481 
3.42405 5.34227 1.71764 3.36825 7.26513 1.10012 3.3655 5.70325 0.844066 
4.1236 5.71555 1.13501 4.70259 8.07392 1.13186 4.71713 7.54286 0.042169 
4.77981 5.0093 0.809848 4.85564 9.27028 0.717793 1.93187 9.90317 3.80256 
3.29919 7.61919 2.76583 3.1125 9.99161 3.38217 0.795742 8.81125 2.12139 
4.40383 5.12478 3.91797 4.69546 6.36707 2.05958 1.28842 9.43623 2.66074 
3.27815 7.85233 3.97228 2.17181 9.85702 2.88562 4.22706 5.33663 2.14287 
3.16887 6.58692 2.84771 0.00243833 9.0407 3.43892 3.75848 8.60204 2.01702 
1.04611 9.0402 3.47009 3.18207 8.88919 2.4454 3.64313 5.44148 2.64394 
3.17663 5.82997 2.96997 3.04291 6.97388 2.15014 0.369685 8.16961 2.71345 
1.31622 8.2413 2.73441 0.229603 7.2987 2.98729 3.05451 5.82257 3.86657 
4.2319 6.67027 2.97399 0.200521 7.17268 3.96993 2.14908 6.3181 2.14651 
3.5989 7.24542 3.4122 2.45099 9.51082 3.74023 1.18742 7.43861 2.91461 
1.33395 7.8791 3.78506 2.00684 7.28598 3.81883 2.00234 8.98581 2.46082 
2.7189 9.55841 2.83322 1.44106 5.08676 2.13477 3.25346 8.36486 3.07533 
-0.0132661 5.36385 2.16763 0.184989 5.42255 3.5813 2.25894 8.03725 3.50252 
3.03087 9.00362 3.45052 2.17081 7.42171 2.80288 3.94936 5.68836 3.56783 
1.11469 5.88041 2.29102 1.01353 6.13993 3.25999 1.62306 5.67131 3.04849 
0.616999 6.77702 3.40949 3.82556 9.79809 3.75629 4.25869 7.25001 3.9905 
2.30792 5.59461 2.6402 2.19403 8.76215 3.79214 2.3887 8.29684 2.61688 
0.953101 5.13878 3.59045 1.13664 6.75191 2.52208 4.72188 6.59924 3.85365 
4.85518 8.42238 2.14259 4.87477 7.37442 2.49933 3.26576 5.09405 4.35455 
1.47011 9.40842 5.59262 3.88878 6.34088 4.55432 4.68483 7.01714 5.41994 
1.5366 9.62712 4.64797 0.213116 8.68676 4.57596 4.64761 6.0539 5.33555 
0.896877 8.7821 4.75398 2.77621 8.37419 5.26338 3.01735 9.68374 4.36695 
2.99894 8.82811 4.39604 1.55299 6.52378 4.01638 0.624774 8.49579 5.63847 
3.65233 5.07497 5.23957 2.8482 9.41041 5.25964 3.70078 8.35824 5.2934 
3.938 8.63319 4.30738 2.67419 7.99791 4.33001 1.04411 5.44558 5.39868 
1.78135 5.51331 4.36679 1.43532 8.6285 5.24085 0.871639 6.39518 5.49669 
0.903175 7.1777 5.95773 0.773551 6.90965 4.63716 3.57205 5.92589 5.7833 
4.43434 9.50165 4.45193 -0.0220275 6.87668 5.02405 4.15012 9.27491 5.79693 
1.82909 7.46702 5.6871 0.616631 7.82519 4.5962 2.47402 5.06745 4.80139 
2.3119 9.40402 4.65767 0.733304 5.78864 4.57729 1.9058 7.44133 4.73469 
1.27876 7.77937 5.10843 3.60862 9.22751 5.05966 2.12595 8.59275 4.73027 
0.114967 5.50082 5.29528 0.207465 6.24945 4.05631 1.99676 5.61362 5.44218 
0.167201 7.56785 5.58593 4.55052 5.72026 4.49867 2.20023 8.97626 5.97981 
4.50737 8.60442 5.03967 1.79693 9.38997 7.78855 0.345912 7.96852 6.44063 
2.97119 8.12769 6.13632 3.65821 8.3716 6.7262 1.09675 8.81431 7.36062 
[...]
POINT_DATA 1000
FIELD FieldData 7
id 1 1000 int
777 832 233 354 596 461 625 760 16 
480 425 203 232 898 609 574 619 415 
677 43 308 531 559 583 485 127 935 
318 138 680 637 159 983 598 416 32 
91 933 538 795 519 772 868 872 627 
783 789 86 656 587 304 901 391 873 
235 597 15 579 895 918 316 773 342 
919 932 434 807 943 803 121 117 10 
517 6 429 759 456 530 974 999 907 
255 554 785 427 763 755 678 369 743 
697 457 298 254 147 774 555 465 12 
814 784 409 291 675 240 488 646 962 
327 437 523 951 7 751 722 250 644 
21 364 451 198 854 243 948 549 961 
540 389 408 411 654 187 340 80 679 
829 863 271 708 890 236 200 169 69 
379 823 497 358 428 329 17 594 750 
569 818 968 875 956 767 374 413 830 
460 51 924 835 94 216 430 860 502 
420 840 916 448 705 865 888 299 741 
449 237 110 47 626 261 49 205 586 
445 861 495 141 126 573 662 223 224 
351 506 762 765 23 368 581 908 269 
335 998 516 406 822 566 661 52 775 
359 567 805 99 592 403 727 312 442 
4 282 966 40 740 61 475 896 928 
258 11 776 241 139 639 798 376 70 
859 423 532 606 252 642 621 172 244 
128 655 64 131 350 453 196 385 176 
88 82 199 362 212 20 849 419 570 
115 622 850 699 665 390 739 605 292 
301 322 441 885 994 22 175 629 315 
463 663 723 103 63 599 144 969 575 
310 337 486 202 585 853 404 386 421 
945 289 104 471 710 179 505 541 208 
156 817 469 145 221 913 940 472 90 
48 761 164 55 268 887 108 590 417 
883 938 553 692 458 641 620 884 309 
810 75 534 794 133 712 914 54 334 
186 915 98 332 897 550 163 324 736 
477 664 170 401 742 481 996 387 181 
1 949 671 841 615 499 601 931 834 
24 153 31 681 831 746 418 683 527 
381 222 967 934 192 440 855 341 953 
137 797 436 848 132 588 669 547 177 
313 638 353 375 422 851 993 262 321 
274 246 987 459 977 120 168 666 182 
782 73 278 965 972 757 8 701 997 
336 28 912 444 93 724 348 296 778 
45 150 183 651 816 295 610 65 652 
878 355 508 963 958 399 694 640 166 
41 979 3 34 219 165 989 809 343 
545 285 438 537 571 60 947 866 30 
363 360 305 470 97 215 447 709 58 
190 788 721 718 843 116 83 604 125 
695 113 703 990 74 707 325 394 758 
462 107 239 151 674 210 749 920 228 
653 102 513 562 864 490 161 62 787 
293 800 647 623 275 995 842 1000 633 
473 66 267 319 756 27 533 380 879 
793 871 264 731 650 886 130 618 802 
119 820 779 882 903 106 96 365 307 
659 496 371 725 493 799 280 101 975 
373 780 600 157 18 804 730 729 747 
905 112 346 889 836 455 536 100 603 
696 370 266 361 503 667 881 689 828 
95 19 510 682 72 714 507 231 487 
902 149 167 129 476 543 201 178 39 
911 959 616 249 837 204 514 345 613 
326 572 827 900 568 57 283 973 256 
954 259 498 410 930 225 396 511 548 
245 154 478 858 869 333 123 939 564 
25 717 937 257 366 522 764 658 509 
347 234 944 352 454 813 771 67 288 
862 226 314 844 206 220 227 737 492 
383 688 744 521 171 135 672 251 253 
806 263 584 557 852 970 79 446 148 
611 716 33 439 38 955 207 188 668 
229 608 734 524 146 217 648 551 752 
846 303 56 719 766 9 468 42 276 
388 856 909 992 565 745 270 87 265 
317 899 526 738 839 877 636 311 643 
431 339 195 134 786 921 284 819 845 
770 402 384 2 580 53 754 563 876 
89 857 467 670 929 372 790 826 46 
260 272 78 518 330 491 279 26 494 
542 904 525 976 435 328 713 407 552 
981 906 582 5 273 85 690 702 815 
302 812 685 984 576 357 986 593 791 
515 13 602 426 781 631 194 632 960 
733 936 286 162 833 808 193 466 184 
382 980 483 84 160 81 978 520 700 
698 792 676 338 450 35 893 218 37 
684 614 917 398 109 405 617 880 136 
512 349 728 595 143 297 68 392 114 
720 433 174 443 824 111 29 122 464 
277 209 691 287 185 870 925 290 539 
213 971 941 991 59 769 867 942 474 
988 320 922 432 711 173 801 946 529 
556 748 158 715 577 628 331 952 686 
504 546 300 191 847 482 982 501 735 
412 660 892 634 124 238 630 76 50 
189 910 927 140 657 197 44 105 294 
484 726 155 211 214 558 561 479 635 
424 732 957 894 247 14 985 395 344 
693 152 926 180 356 489 821 645 377 
704 77 612 230 281 118 607 397 544 
528 414 950 500 242 687 589 306 36 
535 71 825 92 753 378 323 367 838 
811 673 706 649 560 624 591 248 964 
891 578 452 393 142 400 768 923 874 
796 
type 1 1000 int
2 2 1 1 2 1 2 2 1 
1 1 1 1 2 2 2 2 1 
2 1 1 2 2 2 1 1 2 
1 1 2 2 1 2 2 1 1 
1 2 2 2 2 2 2 2 2 
2 2 1 2 2 1 2 1 2 
1 2 1 2 2 2 1 2 1 
2 2 1 2 2 2 1 1 1 
2 1 1 2 1 2 2 2 2 
1 2 2 1 2 2 2 1 2 
2 1 1 1 1 2 2 1 1 
2 2 1 1 2 1 1 2 2 
1 1 2 2 1 2 2 1 2 
1 1 1 1 2 1 2 2 2 
2 1 1 1 2 1 1 1 2 
2 2 1 2 2 1 1 1 1 
1 2 1 1 1 1 1 2 2 
2 2 2 2 2 2 1 1 2 
1 1 2 2 1 1 1 2 2 
1 2 2 1 2 2 2 1 2 
1 1 1 1 2 1 1 1 2 
1 2 1 1 1 2 2 1 1 
1 2 2 2 1 1 2 2 1 
1 2 2 1 2 2 2 1 2 
1 2 2 1 2 1 2 1 1 
1 1 2 1 2 1 1 2 2 
1 1 2 1 1 2 2 1 1 
2 1 2 2 1 2 2 1 1 
1 2 1 1 1 1 1 1 1 
1 1 1 1 1 1 2 1 2 
1 2 2 2 2 1 2 2 1 
1 1 1 2 2 1 1 2 1 
1 2 2 1 1 2 1 2 2 
1 1 1 1 2 2 1 1 1 
2 1 1 1 2 1 2 2 1 
1 2 1 1 1 2 2 1 1 
1 2 1 1 1 2 1 2 1 
2 2 2 2 1 2 2 2 1 
2 1 2 2 1 2 2 1 1 
1 2 1 1 2 2 1 1 2 
1 2 1 1 2 1 2 1 1 
1 2 2 2 2 1 2 2 2 
1 1 1 2 2 2 1 2 2 
1 1 2 2 1 1 2 1 2 
1 2 1 2 1 2 2 2 1 
1 2 1 1 1 2 2 1 1 
1 1 2 1 2 1 1 2 1 
2 1 1 2 2 2 1 2 2 
1 1 2 1 1 2 1 1 2 
1 1 1 2 2 1 2 1 2 
2 1 2 2 2 1 2 2 1 
1 2 1 1 1 1 2 2 1 
2 1 1 2 2 1 2 2 1 
1 1 1 1 1 1 1 2 1 
1 2 2 2 2 1 1 2 1 
2 1 2 2 1 2 1 1 2 
1 1 1 1 2 1 2 2 1 
2 1 2 2 2 1 1 1 2 
1 2 2 2 1 2 2 2 2 
1 1 1 1 2 1 2 1 2 
2 2 1 2 2 2 1 2 2 
1 2 2 2 2 1 1 1 1 
2 1 1 2 1 2 1 1 2 
1 2 2 1 1 2 2 2 2 
2 1 1 2 2 1 2 1 2 
2 1 1 1 2 2 2 2 2 
1 1 2 2 1 2 2 1 1 
2 1 1 1 1 2 1 1 1 
2 2 2 1 2 1 2 1 2 
1 2 2 2 2 1 1 2 1 
2 1 1 1 2 1 1 2 2 
1 1 1 2 2 1 1 2 2 
1 2 2 1 1 2 2 2 2 
1 1 2 1 1 2 2 1 1 
2 1 1 2 1 1 1 2 1 
1 2 2 2 1 1 2 1 1 
2 1 2 2 2 2 1 1 1 
2 2 1 1 1 2 1 1 2 
1 2 2 2 1 1 2 2 2 
2 1 1 2 2 1 1 1 1 
1 2 2 2 2 2 1 1 1 
1 2 2 2 2 2 2 1 2 
1 1 1 1 2 2 1 2 2 
2 1 1 1 2 1 2 2 2 
1 2 1 2 2 1 2 2 1 
1 1 1 2 1 1 1 1 1 
2 2 2 2 1 1 2 1 2 
2 2 2 1 1 1 2 2 2 
1 2 2 2 2 1 2 2 2 
2 1 2 1 2 2 1 2 2 
2 2 1 1 2 2 1 1 1 
1 2 1 1 1 1 2 2 2 
2 2 2 1 1 1 2 1 1 
2 2 2 1 1 1 2 2 1 
2 1 2 2 1 1 1 1 1 
2 1 1 1 2 1 1 1 1 
1 1 2 1 1 2 2 1 2 
1 2 2 2 1 2 2 2 1 
2 1 2 1 2 1 2 2 2 
2 2 1 2 2 2 1 2 2 
2 2 1 1 2 1 2 2 2 
1 2 2 2 1 1 2 1 1 
1 2 2 1 2 1 1 1 1 
1 2 1 1 1 2 2 1 2 
1 2 2 2 1 1 2 1 1 
2 1 2 1 1 1 2 2 1 
2 1 2 1 1 1 2 1 2 
2 1 2 1 1 2 2 1 1 
2 1 2 1 2 1 1 1 2 
2 2 2 2 2 2 2 1 2 
2 2 1 1 1 1 2 2 2 
2 
i 3 1000 int
-51 0 0 -18 0 0 -21 0 1 
-12 0 1 -29 0 1 76 1 0 
6 0 0 -22 0 1 -48 0 0 
-22 0 1 -40 0 0 -47 0 0 
-17 0 1 -21 0 0 -8 0 0 
-4 0 1 -10 0 1 2 0 0 
-10 0 1 -31 0 1 -8 0 1 
-22 0 0 -60 0 1 -23 0 1 
-38 0 1 -28 0 1 -12 0 1 
-19 0 1 -12 0 1 -34 0 0 
-19 0 1 66 1 0 13 0 0 
-12 0 1 -24 0 0 83 1 0 
-1 0 0 -4 0 0 85 1 0 
-43 0 0 -16 0 0 -20 0 1 
-26 0 1 -5 0 0 -4 0 0 
-13 0 1 -44 0 0 -15 0 1 
-31 0 1 -17 0 1 -26 0 0 
-31 0 0 -4 0 0 -23 0 0 
-22 0 0 -24 0 1 -32 0 1 
-15 0 0 -50 0 0 -19 0 0 
-45 0 0 -12 0 0 -10 0 1 
-8 0 0 -8 0 0 -32 0 0 
-15 0 0 -15 0 0 49 1 0 
62 1 0 -29 0 0 -34 0 1 
-19 0 0 -7 0 0 -15 0 0 
-16 0 0 -2 0 0 -10 0 1 
129 1 1 -9 0 0 -14 0 0 
-16 0 1 -24 0 0 93 1 0 
0 0 0 5 0 1 -32 0 0 
-5 0 0 -16 0 0 -20 0 0 
-21 0 0 2 0 0 -48 0 0 
5 0 0 -52 0 0 -27 0 1 
-8 0 0 4 0 0 -42 0 0 
-42 0 1 -39 0 1 111 1 0 
-24 0 0 -5 0 0 -46 0 0 
-51 0 1 -17 0 0 -9 0 0 
-3 0 0 -52 0 0 -28 0 1 
-10 0 0 -11 0 0 66 1 0 
-47 0 0 -11 0 0 107 1 0 
-57 0 0 -9 0 0 1 0 0 
-8 0 0 -11 0 0 -18 0 0 
67 1 0 -73 0 0 4 0 0 
-74 0 0 -18 0 0 -6 0 0 
-21 0 0 -47 0 1 -33 0 0 
-6 0 0 -7 0 0 -11 0 0 
1 0 0 -21 0 0 -50 0 0 
-54 0 0 -4 0 0 -38 0 0 
-69 0 0 49 1 0 -23 0 0 
-29 0 0 80 1 -1 68 1 0 
-8 0 0 -20 0 0 -31 0 0 
-43 0 0 -29 0 0 -36 0 0 
95 1 -1 54 1 0 69 1 0 
20 0 0 -30 0 0 -27 0 0 
-6 0 0 -29 0 -1 49 1 -1 
0 0 0 8 0 0 -20 0 0 
-7 0 0 -17 0 0 -39 0 0 
-13 0 0 -1 0 0 -44 0 0 
8 0 0 -8 0 0 -26 0 -1 
-6 0 0 -5 0 0 -25 0 -1 
98 1 0 -14 0 0 -66 0 0 
-2 0 0 -14 0 0 -11 0 0 
-27 0 0 4 0 -1 -3 0 0 
9 0 0 -68 0 -1 58 1 0 
0 0 0 0 0 0 -25 0 0 
7 0 0 48 1 -1 -22 0 0 
-12 0 0 -13 0 -1 -47 0 0 
-9 0 0 -25 0 -1 -51 0 -1 
63 1 -1 -30 0 0 -18 0 -1 
2 0 0 -30 0 0 -52 0 0 
-30 0 0 -74 0 0 -61 0 0 
-30 0 0 -7 0 0 73 1 0 
-13 0 -1 94 1 0 -48 0 -1 
-9 0 -1 -3 0 0 -42 0 -1 
-21 0 -1 -3 0 -1 3 0 -1 
-37 0 0 0 0 0 4 0 -1 
-66 0 -1 62 1 -1 -3 0 0 
-6 0 0 -32 0 0 -65 0 0 
13 0 0 -1 0 -1 -6 0 -1 
-29 0 0 -19 0 -1 -35 0 0 
92 1 0 -13 0 0 31 0 0 
-54 -1 0 -34 -1 0 24 0 1 
-50 -1 1 -54 -1 0 25 0 0 
-36 -1 0 64 0 1 -67 -1 1 
2 0 0 -61 -1 0 -113 -1 0 
5 0 1 -83 -1 1 33 0 0 
24 0 0 18 0 1 16 0 0 
87 0 0 -79 -1 0 16 0 1 
18 0 1 12 0 0 -92 -1 0 
-10 0 0 80 0 0 -82 -1 0 
-9 0 1 19 0 0 -54 -1 1 
18 0 0 6 0 0 37 0 1 
16 0 0 8 0 1 16 0 0 
5 0 1 8 0 0 -100 -1 0 
47 0 0 8 0 0 16 0 1 
6 0 0 21 0 0 33 0 0 
13 0 0 -44 -1 0 5 0 1 
60 0 1 22 0 1 25 0 0 
-1 0 0 28 0 0 3 0 0 
-9 0 0 33 0 0 58 0 0 
-11 0 1 57 0 0 43 0 1 
39 0 0 -25 -1 1 29 0 0 
9 0 0 19 0 0 49 0 0 
18 0 0 -71 -1 -1 -3 0 1 
23 0 0 42 0 0 42 0 0 
-35 -1 0 28 0 0 4 0 0 
24 0 0 1 0 0 45 0 0 
52 0 0 29 0 0 3 0 0 
19 0 0 15 0 0 5 0 0 
30 0 0 -47 -1 0 18 0 0 
28 0 0 13 0 0 31 0 0 
-35 -1 1 6 0 0 21 0 0 
9 0 0 9 0 0 -91 -1 1 
45 0 0 12 0 0 -8 0 0 
1 0 0 26 0 0 20 0 0 
32 0 0 24 0 1 18 0 0 
45 0 0 41 0 1 35 0 0 
-5 0 0 3 0 1 11 0 0 
24 0 0 13 0 0 6 0 0 
-46 -1 0 12 0 0 26 0 0 
54 0 0 25 0 0 -75 -1 1 
25 0 0 13 0 0 41 0 0 
34 0 0 17 0 -1 39 0 -1 
7 0 -1 -50 -1 -1 19 0 0 
-74 -1 -1 47 0 1 5 0 0 
30 0 0 60 0 0 9 0 0 
16 0 0 7 0 0 12 0 0 
64 0 -1 17 0 0 44 0 0 
2 0 0 28 0 0 3 0 0 
-30 -1 0 1 0 0 2 0 0 
10 0 0 96 0 0 51 0 -1 
13 0 0 17 0 0 13 0 0 
-76 -1 0 16 0 0 19 0 0 
-77 -1 0 78 0 -1 18 0 0 
-65 -1 1 44 0 0 8 0 0 
-96 -1 0 59 0 0 33 0 0 
-40 -1 0 4 0 -1 41 0 0 
30 0 -1 -102 -1 -1 -48 -1 0 
14 0 0 -53 -1 0 14 0 -1 
-51 -1 -1 80 0 0 32 0 0 
2 0 0 30 0 0 -47 -1 -1 
3 0 0 25 0 0 39 0 -1 
48 0 -1 27 0 0 71 0 -1 
-3 0 -1 21 0 -1 49 0 0 
3 0 0 16 0 0 11 0 0 
38 0 0 9 0 0 18 0 -1 
14 0 0 21 0 -1 -76 -1 0 
-3 0 0 20 0 -1 -76 -1 1 
46 0 0 33 0 -1 17 0 -1 
23 0 -1 -4 0 0 33 0 0 
15 0 -1 -1 0 0 7 0 0 
43 0 0 28 0 0 -79 -1 0 
32 0 0 61 0 0 -40 -1 -1 
-82 -1 0 -48 -1 0 6 0 -1 
-55 -1 -1 37 0 0 40 0 0 
74 0 0 8 0 -1 36 0 -1 
36 0 0 59 0 -1 -10 0 0 
56 0 -1 54 0 -1 19 0 -1 
42 0 0 7 0 0 3 0 0 
16 0 0 5 0 -1 -5 0 0 
3 0 -1 -47 -1 0 30 0 -1 
31 0 -1 -2 0 0 19 0 0 
26 0 0 40 0 0 27 0 -1 
-17 0 0 22 0 -1 61 0 0 
-48 -1 0 9 0 0 -4 0 0 
45 0 0 18 0 0 -65 -1 0 
24 0 0 10 0 -1 -57 -1 0 
1 0 -1 24 0 0 -117 -1 -1 
29 0 -1 26 0 -1 -23 0 -1 
64 0 -1 -57 -1 0 -73 -1 0 
-24 0 0 -7 0 0 48 1 0 
-81 0 1 -48 0 1 -48 0 1 
81 1 0 -2 0 0 -27 0 0 
53 1 1 -17 0 1 -48 0 0 
-4 0 1 -20 0 0 -29 0 1 
-47 0 0 82 1 0 -26 0 0 
-20 0 1 -16 0 0 -34 0 1 
-31 0 1 -35 0 0 -48 0 1 
1 0 0 -13 0 1 -60 0 1 
-2 0 0 -14 0 1 -32 0 1 
91 1 0 -20 0 1 63 1 1 
52 1 0 -10 0 0 -4 0 0 
123 1 0 -9 0 0 87 1 0 
-12 0 0 -10 0 1 -8 0 1 
-7 0 0 -28 0 0 -9 0 0 
-11 0 0 -13 0 0 -17 0 0 
-19 0 1 -63 0 0 63 1 0 
-14 0 0 65 1 1 -17 0 0 
-8 0 0 65 1 0 64 1 0 
-34 0 0 -9 0 0 55 1 1 
-26 0 0 -85 0 0 -8 0 1 
-9 0 0 -10 0 0 -68 0 0 
-61 0 0 60 1 1 -68 0 1 
-12 0 0 -3 0 0 60 1 0 
0 0 0 63 1 0 4 0 0 
-73 0 0 -6 0 0 47 1 0 
9 0 0 -3 0 0 -57 0 0 
-11 0 0 -20 0 0 -44 0 0 
-2 0 0 -22 0 0 -20 0 1 
-6 0 0 -30 0 0 -21 0 0 
-6 0 0 44 1 0 112 1 0 
-34 0 0 -29 0 1 -42 0 0 
48 1 0 -5 0 0 52 1 0 
-47 0 0 2 0 0 -44 0 0 
-34 0 0 8 0 0 -41 0 0 
-74 0 -1 49 1 0 -5 0 0 
-39 0 1 -63 0 0 -67 0 0 
-22 0 0 40 1 0 -14 0 0 
4 0 0 -25 0 0 -15 0 0 
-19 0 0 -21 0 0 51 1 0 
-59 0 0 -22 0 0 -17 0 0 
48 1 0 -40 0 -1 96 1 0 
-3 0 0 -10 0 0 -15 0 0 
-11 0 0 -13 0 -1 -37 0 0 
-18 0 0 2 0 0 14 0 0 
-3 0 0 -20 0 0 7 0 0 
-32 0 0 -4 0 0 -3 0 0 
-46 0 0 -31 0 0 -10 0 0 
-9 0 0 -7 0 0 -7 0 0 
-37 0 1 -7 0 0 -31 0 0 
-1 0 0 -32 0 0 -34 0 0 
-17 0 0 56 1 0 79 1 0 
-37 0 -1 78 1 0 6 0 -1 
-33 0 0 -35 0 0 -26 0 0 
28 1 0 -31 0 0 79 1 0 
-30 0 0 -8 0 0 -73 0 0 
-13 0 0 7 0 0 38 1 0 
3 0 0 -2 0 -1 -14 0 -1 
-17 0 -1 -12 0 0 -65 0 0 
-45 0 0 -11 0 0 -24 0 0 
42 1 0 -50 0 0 75 1 -1 
-23 0 0 -14 0 0 -12 0 0 
-7 0 0 -37 0 0 78 1 0 
-9 0 0 -38 0 0 6 0 0 
56 1 1 11 0 0 -15 0 0 
-22 0 0 -9 0 0 -18 0 0 
-13 0 0 -5 0 0 -12 0 0 
60 1 0 2 0 0 8 0 -1 
-8 0 0 34 1 0 -17 0 0 
54 1 0 -22 0 0 79 1 -1 
12 0 0 -38 0 0 -46 0 0 
-45 0 0 -55 0 0 -2 0 0 
-62 0 0 -15 0 0 2 0 0 
-33 0 0 5 0 0 -22 0 0 
-11 0 0 -39 0 -1 -36 0 0 
82 1 0 -26 0 0 78 1 0 
-36 0 0 1 0 0 -27 0 0 
-31 0 -1 -15 0 0 -41 0 0 
-20 0 0 -44 0 1 -31 0 0 
-63 0 0 -17 0 0 -16 0 0 
-28 0 -1 -64 0 0 -30 0 0 
3 0 0 63 1 0 4 0 0 
-28 0 0 -7 0 0 -14 0 0 
-27 0 0 2 0 -1 91 1 0 
-2 0 0 -8 0 0 -31 0 0 
-43 0 0 69 1 -1 59 1 0 
-54 0 0 -57 0 -1 8 0 1 
-48 -1 0 14 0 0 19 0 0 
127 1 0 55 0 0 5 0 0 
-87 -1 1 16 0 0 -53 -1 0 
29 0 0 5 0 0 0 0 0 
-66 -1 1 17 0 0 30 0 0 
23 0 0 17 0 0 10 0 0 
6 0 0 -51 -1 1 42 0 1 
11 0 0 61 0 1 36 0 0 
48 0 1 22 0 1 14 0 1 
50 0 1 45 0 0 -65 -1 1 
30 0 1 11 0 1 16 0 0 
-67 -1 0 -24 0 0 45 0 0 
27 0 0 41 0 1 9 0 0 
-87 -1 0 15 0 0 56 0 1 
72 0 0 4 0 0 44 0 0 
31 0 0 15 0 0 41 0 0 
53 0 0 27 0 0 25 0 0 
-35 -1 0 45 0 1 31 0 0 
53 0 1 33 0 0 14 0 1 
13 0 0 30 0 0 24 0 0 
16 0 0 28 0 0 48 0 -1 
13 0 0 9 0 0 -50 -1 1 
3 0 0 19 0 0 -100 -1 0 
34 0 0 28 0 1 12 0 0 
19 0 0 3 0 0 -3 0 0 
29 0 1 20 0 0 -16 0 0 
10 0 0 16 0 0 15 0 0 
34 0 1 15 0 0 55 0 0 
33 0 0 -14 0 0 -92 -1 0 
3 0 0 44 0 -1 29 0 -1 
18 0 0 2 0 0 15 0 0 
23 0 0 24 0 0 5 0 0 
-68 -1 1 -70 -1 0 27 0 0 
43 0 0 6 0 0 4 0 0 
2 0 0 55 0 0 -47 -1 0 
54 0 0 29 0 0 -8 0 0 
36 0 0 24 0 0 20 0 0 
-23 0 0 9 0 0 20 0 0 
29 0 0 4 0 0 14 0 0 
10 0 0 24 0 0 47 0 0 
-84 -1 -1 13 0 0 -5 0 0 
37 0 0 43 0 -1 4 0 0 
65 0 0 55 0 -1 8 0 0 
4 0 0 19 0 0 16 0 0 
8 0 0 -2 0 0 42 0 -1 
44 0 0 1 0 0 19 0 0 
-3 0 -1 12 0 0 20 0 0 
-91 -1 0 28 0 0 25 0 -1 
37 0 -1 56 0 0 -69 -1 0 
24 0 0 30 0 0 4 0 0 
37 0 0 -14 0 0 4 0 0 
55 0 0 11 0 0 23 0 0 
15 0 -1 22 0 0 27 0 0 
24 0 0 52 0 0 5 0 0 
36 0 0 3 0 0 11 0 0 
30 0 0 29 0 0 -61 -1 0 
3 0 0 -85 -1 1 31 0 -1 
3 0 0 -53 -1 0 7 0 0 
21 0 0 9 0 0 6 0 0 
20 0 0 -3 0 0 13 0 0 
13 0 0 13 0 0 40 0 -1 
59 0 0 26 0 0 -77 -1 1 
61 0 -1 50 0 0 5 0 0 
51 0 0 20 0 -1 64 0 0 
13 0 0 22 0 -1 -4 0 0 
8 0 -1 37 0 -1 9 0 -1 
0 0 0 -66 -1 0 33 0 0 
19 0 0 53 0 -1 -50 -1 -1 
55 0 0 5 0 0 42 0 -1 
4 0 0 41 0 0 -38 -1 0 
-35 -1 -1 33 0 -1 -1 0 0 
-2 0 0 36 0 -1 33 0 0 
-8 0 0 19 0 0 18 0 -1 
-63 -1 0 -87 -1 0 23 0 -1 
8 0 -1 26 0 -1 9 0 -1 
-7 0 -1 -33 -1 -1 -29 -1 -1 
-48 -1 -2 13 0 -1 27 0 -1 
4 0 -1 
v 3 1000 double
-404.59916348 -24.342016048 -2.0157205937 -259.05435578 3.6371062133 11.454806242 -272.78998832 3.5734691772 -18.706711886 
-170.04203047 15.355503162 6.2313842366 -289.69603852 7.5067759508 -7.4025694822 -371.03519594 4.0677847926 -13.811092143 
19.899817569 -25.267520402 14.053596699 -290.43594975 -6.1064916491 1.0596084296 -336.54981008 -2.9492626913 -7.7470188174 
-235.83046238 0.22558350515 -4.6602170987 -423.77367784 -6.0805711533 -7.0909997369 -408.0685487 4.2129496512 32.854228453 
-183.00724384 2.3166251393 8.0108605226 -254.47619705 -26.661379415 2.1181562728 -161.78071491 8.5026316442 19.95913492 
-55.057625398 -10.063401808 0.96531372815 -161.71465791 -9.2999208579 8.1744506293 -81.756615543 9.431951379 -18.167962015 
-111.91117741 4.246217213 1.1237616563 -383.40724792 5.6574841204 5.6882617456 -196.5774379 -18.259002654 19.627108477 
-77.543169589 10.47381215 -17.681632438 -248.84766472 -10.273187895 8.8582313801 -162.01515836 -6.4950883412 7.4436097144 
-248.27261428 -0.57498518301 -7.446120173 -285.16478066 -13.522405801 4.0019259955 -166.74985504 12.200930979 -21.588824117 
-281.02279283 2.7231091156 8.1676892047 -295.64437968 -4.9726399929 4.0352919044 -430.33882864 5.1296432141 9.2035929602 
-162.98543133 -22.745911114 -14.131866031 -343.53523015 20.220790186 0.60911335782 -52.269515717 -1.9283411858 6.6762289153 
-177.17477802 16.311127024 -14.475570762 -357.8595953 7.1337827529 10.98470917 -337.94208455 -11.546690264 -10.152032063 
-101.45687439 3.5578979711 -16.781533764 -135.24046658 3.802808302 2.016403377 -147.98758749 0.36187050983 2.3293179184 
-95.064719092 6.8145195053 25.783981958 -280.7573528 -22.968847631 -16.272537522 -383.87000854 -2.4299896125 -18.643917053 
-403.72039126 -8.6974312318 12.300607309 -10.075998183 1.1105491864 11.052964318 -83.263963371 -14.943703757 -3.9626199213 
-45.004591719 6.1196988501 -9.2430338104 -233.18740173 19.611977087 -15.470001509 -37.693205979 21.742329854 -11.485005971 
-150.0430667 -7.4414241842 0.076591001098 -42.469098377 9.8544676652 -1.3649739555 -336.28788938 11.610395741 -11.220667468 
-325.13266103 4.2351985318 -14.095104751 -163.91461322 -11.024462762 -9.4847702559 -327.71539881 -2.5691455042 -3.7998343143 
-242.34465386 18.045333084 17.377996453 -321.61323688 3.6000769363 12.633486939 -274.12136985 -7.7405583887 -2.2704919558 
-229.42349538 -11.267654268 -1.5351635376 -282.6508206 25.388987032 -15.157210099 -389.07108356 8.4884075395 -13.447608134 
-262.25719982 19.745489852 15.368679689 -291.86199284 -24.58040663 5.3402039551 -45.909446306 -12.829508152 -5.4702198349 
-330.25606977 -17.516212087 2.8678207345 -174.27331269 7.2552389674 -5.6482725128 -346.59479396 27.18525792 -0.766094892 
-207.40140888 19.317264236 25.90145749 -238.01589916 -15.188209151 14.12237409 -365.63708323 5.0529417692 16.206924601 
-416.5635452 -3.830348114 -15.857953139 -371.90241134 -5.5998636537 -11.282156822 -408.5438677 -16.995206174 -29.139770008 
-76.852655597 -5.5264267265 16.70659606 -37.01247847 -20.367831207 -7.9824465548 -29.731186176 0.53633692742 -10.230113936 
-191.82180893 12.127795439 27.487313176 -8.1528955461 -5.4958328836 2.588927143 -109.04258007 -8.9991939378 -15.615200987 
-105.18976326 16.39465166 1.9961137002 -7.7093324275 8.351986028 -8.1244769477 -372.80177302 8.6039478383 10.388934506 
-172.43969564 10.203391687 30.606459673 -444.33691029 4.4744218709 -4.4685826941 -152.58719356 -21.647624636 14.345465807 
-12.673902213 -15.081531838 20.423736081 32.003383826 -4.9186814404 -9.5453384177 -240.53188194 -10.354838232 14.702703528 
-3.2779374339 8.321902785 -7.2285649565 -132.69118661 -24.435867777 3.7028885888 -130.93246834 -6.3569144348 2.3060183107 
-159.41865435 -1.6695205267 4.6824675045 -18.497491909 -7.2459551831 7.9039280619 -276.91846634 12.126560518 14.547902274 
-73.073303131 -12.771739604 -6.2932748117 -240.30735855 -9.0168631053 9.0485968062 -438.28882879 -3.0224486549 23.575221385 
-55.89004687 2.96833135 -5.9199151762 -93.776511468 1.027211632 9.8096468636 -265.27023869 -9.7155247902 13.687987095 
-413.03348584 -9.8374126636 2.9106726734 -292.42088019 1.7348780262 -27.377059318 -352.36305823 15.698505662 -8.8199653973 
-419.17796955 4.0256754826 18.612938352 -139.32806424 -13.186607564 3.8404350933 -365.81153001 1.7090891924 12.706750371 
-308.40724262 -29.038344474 11.566145288 -309.72685892 -17.00504426 5.7850656653 -295.51538182 3.5902824499 -12.040588636 
-206.78523904 -0.16679221195 9.6356525601 -319.52897292 -14.591567662 -7.9965610336 -268.00230203 -13.37675232 -6.7264937388 
-240.95856966 -6.5184287705 -11.262229938 -215.27934393 3.5307907081 -11.396487024 -392.21239915 -28.283000773 -1.30275317 
-430.40551434 -3.482992699 28.055286455 -280.57496631 -1.5212896631 21.134796303 -142.88412482 -14.164454156 14.416147135 
-237.9971347 -7.3229738351 20.266211683 -68.638405246 -10.379231584 -0.027016206219 -63.676950751 4.1076569884 3.0815800283 
-224.28595276 -4.4350171501 -10.387197166 -57.827366389 -10.732649305 -11.599499499 -161.00855658 20.255717277 -31.811192935 
-261.42104247 -0.11475316881 24.752832093 -446.14692364 14.458302913 -16.183877375 -44.123053493 -7.3682253632 -4.5044771871 
-495.10220266 14.941728741 -23.554445698 -54.616903831 -0.17597433737 26.266035953 -37.552737198 4.0977961046 -2.7475594737 
-162.86576104 3.7509922372 -2.5780150242 -249.54851069 22.10437217 28.480106345 -356.25913016 7.5710473518 -17.817940296 
59.870801421 -21.422479706 8.6870311325 -146.60833861 15.352465509 9.6453246837 -143.73466251 0.28756231792 -3.7462111782 
-68.18747857 -9.1714293421 2.4542274629 -60.210255593 5.4692835774 -2.118924921 -70.294230203 13.268949308 24.207724892 
-332.94316576 6.5329100422 10.524628183 -215.81849403 -19.255805852 -17.196607501 -335.36030752 14.508895668 1.2035332782 
-408.76913153 6.8507522986 -39.071370274 -420.98562397 5.2916167458 -11.51235378 -281.46813075 8.7684007846 -5.0350332785 