# vtk DataFile Version 4.2
Generated by LIGGGHTS
ASCII
DATASET POLYDATA
POINTS 1000 float
2.32986 3.33567 1.96073 0.299016 0.247023 0.134291 4.04775 4.23623 1.18676 
1.43077 1.61402 0.00210431 0.0378144 1.65076 0.843113 0.74862 1.74106 0.450594 
4.50043 3.06733 0.576858 2.20523 2.96007 0.0718131 2.71052 2.16144 0.457204 
1.18668 2.8122 1.45008 0.186288 1.08083 1.35032 3.82425 0.676885 1.65017 
2.14847 4.25359 0.912682 3.80571 0.0203769 0.337729 4.3161 2.95195 1.51937 
2.51846 1.69918 1.73796 1.74747 2.60874 0.78126 2.47126 0.705672 1.42143 
1.53039 1.90893 1.6801 2.0221 0.488851 0.417947 0.328486 2.02928 1.68843 
0.455178 2.50227 0.667976 3.47835 1.05741 0.85274 0.668146 4.71729 1.33589 
1.1431 3.59435 0.985517 0.88925 0.911506 0.843184 0.706181 3.03486 0.0238903 
4.51365 2.2032 0.281412 1.55245 4.54596 1.48459 0.343068 3.37069 0.761587 
4.82678 3.80401 1.52254 0.0627392 4.81403 0.278074 3.06905 2.98868 1.49129 
3.14455 3.39066 0.626888 4.70198 1.64962 1.93367 3.69726 2.70242 0.881422 
0.609908 3.8651 1.68833 4.43637 1.28381 0.329564 0.475313 4.19749 0.699596 
2.80709 1.45606 0.885268 3.15197 4.33358 0.520011 3.59322 1.756 1.77674 
4.43182 0.788293 0.996729 4.63131 2.27607 1.37692 4.61174 3.99712 0.429282 
4.91886 1.07129 1.70811 4.88889 4.91665 0.622066 4.96524 0.314642 1.13899 
2.40418 0.842433 3.85693 0.865319 1.88002 3.65557 0.520125 0.0251056 3.928 
2.5208 0.129578 3.0146 4.52284 3.4816 3.11755 4.60523 1.06955 3.88857 
2.29688 2.3062 2.83482 2.13026 2.95737 3.50107 4.84298 4.26524 2.66184 
0.998388 2.8447 2.35943 1.1514 1.56204 2.84828 1.59236 1.62515 3.56087 
2.9301 0.318733 2.09864 3.8548 1.1392 2.4102 2.51983 1.69415 3.58108 
0.0244117 1.19071 2.13829 0.0512553 1.86798 2.87348 2.3263 4.1487 2.89644 
0.998721 2.70651 3.32569 0.90866 0.732516 2.72597 2.47746 4.52423 3.73783 
3.85768 2.60142 3.33751 1.55581 4.0579 2.28727 1.69022 0.553549 3.15809 
0.939909 2.09116 2.40876 1.10886 3.81432 3.69555 2.22905 0.799037 2.38282 
1.03025 4.96291 3.41157 0.497179 3.1687 2.03395 -0.00433597 2.51504 3.5082 
0.610744 3.42033 2.97583 1.72675 4.64661 3.79513 3.45355 1.90116 3.88719 
3.85447 2.45213 2.3238 3.37298 3.73235 2.04407 3.64529 3.41017 2.98262 
0.177361 3.43126 3.69562 3.23348 1.44505 3.03525 3.60601 4.99263 3.3273 
3.12809 4.81175 2.13179 2.20011 4.90191 2.55445 4.57986 2.27561 2.74959 
2.89209 2.55463 3.67479 3.89501 4.56464 2.53294 0.254869 4.23271 3.60802 
2.78158 3.30729 2.80652 4.6175 0.425079 3.35943 0.479598 4.48888 2.51042 
4.10114 3.33591 2.24242 3.4 3.36291 3.89648 3.21265 0.580128 3.37631 
4.58431 1.28065 2.964 4.92577 3.2712 2.48333 1.58752 1.7617 4.69083 
0.645082 1.17929 5.35911 3.71152 3.16324 5.48976 2.54288 3.15274 4.34651 
1.72908 2.34997 4.19317 0.994853 2.30131 4.717 0.22785 2.08416 4.23662 
3.02138 2.58756 4.76107 2.95931 3.86232 4.8951 1.46526 0.908682 4.09436 
2.09583 1.65679 5.31938 1.60409 2.16059 5.48869 1.56756 3.15641 4.17037 
1.23704 2.81399 5.51633 1.90132 3.55267 4.90392 2.56026 4.3365 5.94837 
1.9639 0.846699 4.86631 0.843044 1.30777 4.46267 3.15236 3.40759 5.95646 
3.53651 4.27301 5.95268 0.229097 0.32907 4.93065 0.442668 2.73059 5.26905 
3.03223 2.41838 5.59272 2.33707 2.98723 5.3317 2.0489 3.61278 5.79127 
0.419234 1.79077 5.54633 1.23881 0.701518 5.48697 0.652412 2.99618 4.2611 
2.02791 4.41637 4.76859 3.61497 0.750342 4.17733 3.39113 1.60978 5.61751 
0.606291 3.45971 5.95708 0.704431 3.65374 4.8328 3.96173 0.718258 5.99741 
3.20259 0.970491 5.01588 3.77299 4.22038 4.12193 1.03141 4.79382 4.43213 
3.85157 1.7762 4.74537 4.00621 0.157872 4.65896 1.57634 4.92543 5.23258 
0.508594 4.16093 5.48633 3.86776 3.62184 4.77894 3.22078 0.166581 5.37759 
4.22671 4.59235 4.88456 4.88336 0.35655 4.76017 3.15141 4.70608 4.14956 
2.9184 4.69147 4.97612 4.40276 1.84307 5.68464 4.50194 4.24725 5.65644 
4.52091 3.41138 4.13326 4.61326 3.44221 5.11424 4.63294 1.81224 4.22779 
1.45666 0.0573701 4.00825 4.68522 1.10654 5.2066 4.64588 2.41837 5.00396 
4.84726 0.496717 5.97454 4.78156 4.32926 4.45863 4.97285 2.66253 4.1949 
4.95247 2.99163 5.70521 1.87438 3.88093 7.98344 1.79069 0.251983 7.58828 
1.09799 0.661674 6.45887 0.223832 1.75917 7.282 0.805262 1.52827 7.78225 
2.1574 4.21233 7.05281 4.01849 2.09312 7.27141 2.2357 2.26204 7.6351 
2.53497 3.69005 6.89736 4.52498 3.57284 7.16058 1.33495 3.3791 7.10619 
4.03918 2.80323 7.46351 4.78419 4.94591 6.98694 3.1309 1.17907 7.03376 
1.10176 2.90552 6.38438 0.962911 1.26772 6.94111 0.957976 0.498403 7.44076 
1.95136 1.52741 7.11614 3.21549 0.285627 7.87907 2.0672 1.7965 6.27004 
1.17377 2.05662 7.08222 1.39952 2.21945 6.26182 1.80035 3.02625 7.58383 
2.01821 2.7237 6.84135 4.0547 4.14524 7.66779 2.68858 3.1997 7.69963 
4.49875 1.27417 7.41959 3.46619 1.88157 6.42355 4.26563 4.9771 6.24996 
1.78937 4.77778 6.7741 3.28978 0.506401 6.92401 3.49178 4.82399 7.90484 
3.95325 0.0433995 7.8394 1.45813 4.89194 6.07902 3.68597 2.92401 6.46118 
4.63661 2.9792 6.58018 0.881057 4.80885 7.42157 2.71036 1.32296 7.84388 
4.40047 4.085 6.5005 3.02809 2.78153 7.14601 3.04831 4.01084 7.64179 
3.04759 2.12066 6.9147 3.35227 3.68184 6.79001 3.84691 4.51933 7.0279 
4.89645 4.11538 8.83384 1.69812 0.650496 8.35945 2.15899 1.77526 8.55056 
2.00185 0.0702476 8.65286 0.932835 1.03248 9.30365 0.59033 0.301576 8.54795 
1.8671 0.284507 9.50176 2.60736 4.5895 8.29772 2.22072 2.84544 9.24193 
2.14473 4.14698 9.71127 1.36475 1.21081 8.10703 1.27647 2.58409 8.99835 
4.38957 1.69951 8.6051 3.63933 2.07675 9.92517 1.2506 0.493014 9.6849 
2.36289 3.73295 8.90082 0.60599 1.44633 8.49675 4.40677 4.79138 8.70397 
0.510746 1.57103 9.60118 1.60761 2.24128 8.31109 0.0996534 0.735248 9.06527 
1.52177 3.98024 8.8857 2.00084 3.0401 8.35938 2.10836 1.99402 9.45194 
1.26003 1.85721 9.09684 0.0291226 1.7828 8.89476 1.15044 3.28363 9.36811 
3.9378 3.08838 9.01025 3.00876 2.23833 8.07725 2.69316 2.83006 8.5579 
1.91091 4.98012 9.60778 2.85784 0.269885 8.87509 3.2769 3.63551 8.7882 
4.55579 0.0273004 9.82496 0.222136 3.01129 9.13806 3.35715 4.62978 8.98492 
3.66769 0.0795648 8.95335 1.29148 4.55947 8.28022 3.66075 1.10975 8.15956 
2.96943 3.71947 9.70019 1.03332 3.11376 8.25036 4.11712 3.89405 9.45751 
0.587091 4.06158 9.04809 0.228745 3.73021 9.8606 1.23948 4.93325 9.18822 
0.28684 3.65248 8.15713 4.25138 4.57618 9.88503 3.34831 1.00756 9.7492 
3.42324 2.90619 9.84929 3.40826 1.62524 8.76555 3.78014 3.27174 8.06729 
4.10709 0.570397 9.69496 4.0184 4.02513 8.55255 4.20401 0.75888 8.57085 
4.23341 2.34862 9.0977 4.69093 3.12958 9.66581 4.7021 3.34268 8.09363 
4.84819 0.518003 8.26577 4.86491 0.802443 9.21016 4.9538 2.24872 9.46646 
3.01693 8.09272 1.42912 4.42745 5.96809 1.17223 4.14757 8.22241 1.31162 
4.63857 6.02513 0.202269 0.604387 9.14988 0.723854 3.18569 6.45921 1.73018 
2.23068 9.81741 1.13873 4.43836 9.55351 0.579644 4.014 6.44512 0.122993 
3.25399 6.67112 0.566892 -0.0436666 7.54086 1.53633 2.54341 5.7899 0.784836 
0.212808 9.12107 1.92388 2.76855 5.11453 0.17544 3.52328 9.18997 0.107953 
1.12199 9.92101 1.73921 2.49886 8.1311 0.675968 3.75378 8.20079 0.497966 
2.95326 7.09713 1.40043 3.18669 5.27527 1.24588 2.40229 7.32289 0.890086 
0.594132 8.46729 1.51781 2.35932 9.35703 1.94967 2.59387 5.58036 1.94696 
1.65112 8.57359 1.72273 2.94545 8.87622 1.05375 0.219459 5.67981 0.190414 
2.6161 9.76994 0.330411 1.26136 5.4245 0.997085 1.71345 8.60117 0.839533 
4.80865 5.08249 1.50975 0.909638 5.22017 0.0865356 0.103899 5.65931 1.60409 
1.96992 9.04192 0.0128365 1.16891 7.81105 0.560069 1.54681 6.19223 0.441381 
0.861177 7.75841 1.36501 0.308643 7.39939 0.533161 3.62243 7.69853 1.90085 
1.71821 5.2718 0.431342 0.476354 6.89588 1.13255 1.99802 6.65214 1.37655 
0.700839 5.6601 1.24359 2.02438 5.9625 1.96291 1.45228 5.19292 1.9228 
0.933985 6.41875 0.765274 1.29127 7.13866 0.255918 0.870388 6.50569 1.77156 
2.45466 6.7542 0.180509 3.95632 5.19756 0.303328 3.87048 9.74975 1.30746 
4.49032 9.81588 1.9292 4.65574 7.39969 0.507557 4.87998 9.18519 1.17874 
0.615159 8.3483 3.28902 0.113601 8.61049 2.73166 3.41721 8.97697 2.95713 
2.59344 5.47409 3.30763 4.60526 7.8755 3.91334 -0.0611152 7.89445 3.88092 
2.70505 6.96633 3.58975 4.02717 6.47411 2.90978 2.77101 8.61206 3.49055 
0.946566 5.37806 2.57137 0.960074 7.02688 3.96169 3.84599 9.71862 2.57527 
3.72884 7.56602 2.8316 4.59669 8.89469 3.87025 0.164964 6.07181 2.40129 
3.496 5.92843 2.29596 1.11533 7.40864 2.12136 4.52427 8.32518 2.2309 
0.208912 5.50269 3.29763 2.77184 6.32322 2.7359 4.48043 7.03668 3.61484 
1.39575 9.25926 3.64911 1.81128 6.75443 3.95233 3.87649 9.25791 3.97816 
2.79997 8.81893 2.3338 1.95669 9.21807 2.85308 1.51622 7.91917 3.61408 
0.762447 7.61401 2.81106 0.318043 6.5793 3.34742 2.20055 7.04387 3.0234 
1.40917 7.17021 3.00139 3.70887 9.76085 3.46152 4.13687 8.50499 3.08228 
2.62709 9.50085 3.57957 0.937642 6.26504 2.8599 2.61492 6.92782 2.23029 
2.95834 6.08952 3.96563 0.728436 6.01007 3.91954 1.01948 8.42837 2.36035 
1.65232 6.02251 3.52883 2.58771 7.79857 2.05983 4.56037 7.66468 2.93646 
4.64951 7.06999 2.04513 0.171949 5.18684 2.33654 3.58858 8.53553 2.17928 
1.83729 5.64394 2.90858 4.59432 9.09044 5.84707 2.74381 5.21128 5.52869 
3.85919 9.86229 5.72971 2.41603 5.88499 5.06919 1.5673 9.12993 5.2303 
0.0526445 8.33383 5.17198 3.06909 9.75035 4.5277 3.58134 8.48827 5.76909 
0.678428 8.67708 4.45145 4.27679 9.52991 5.14941 1.74754 7.45633 5.36668 
4.65007 5.9169 5.52808 2.2988 8.94342 4.3142 3.24213 9.05657 5.24436 
3.28137 7.71254 5.27505 2.024 9.95601 4.85619 3.20925 6.87719 4.32887 
1.0758 9.88301 5.8345 2.50538 7.82348 4.82233 2.95623 6.67355 5.62131 
3.80228 8.64853 4.8778 0.882009 9.73496 4.88199 4.23706 6.85028 5.96217 
3.88948 5.11888 5.5213 4.19114 7.7224 5.91495 2.01734 6.4848 5.53259 
2.4796 6.82432 4.79144 3.20385 7.62931 4.22534 0.444229 5.93261 4.69958 
1.34748 5.88335 5.08975 1.18817 8.51219 4.02486 0.530877 6.49637 5.38773 
1.43078 6.79563 4.79855 0.577873 7.74299 4.37049 0.71868 7.42928 5.51154 
2.49262 9.26432 5.22562 1.43418 5.7494 4.28819 1.48482 5.70993 5.94982 
[...]
POINT_DATA 1000
FIELD FieldData 7
id 1 1000 int
618 799 940 329 9 789 903 910 555 
316 304 538 727 765 139 597 461 487 
804 414 822 467 266 579 312 352 924 
265 974 674 764 11 106 670 966 138 
779 201 264 216 928 909 275 318 551 
280 582 1000 958 659 163 505 411 137 
748 759 961 531 346 738 486 258 434 
842 656 882 7 477 319 437 795 907 
692 627 307 391 770 159 625 427 780 
62 858 890 217 943 893 574 370 600 
364 682 449 807 450 623 730 445 469 
603 860 187 878 568 396 948 725 932 
19 18 278 761 806 298 653 347 547 
918 485 644 896 506 646 169 369 321 
543 240 895 86 259 39 746 679 412 
25 112 231 734 541 993 624 311 602 
936 222 151 660 944 666 243 522 327 
421 583 189 35 299 784 865 156 569 
200 996 67 482 410 608 843 829 973 
65 511 687 2 539 23 418 719 637 
383 675 861 741 671 830 476 968 785 
420 781 816 636 794 951 98 972 750 
863 250 251 488 769 171 587 992 648 
721 519 345 291 862 584 929 495 586 
956 661 142 351 454 672 776 61 523 
261 49 772 127 237 581 898 213 662 
937 877 876 293 241 612 400 866 260 
840 478 403 95 826 384 439 190 771 
430 846 783 565 51 775 314 413 270 
856 272 516 117 593 470 833 13 103 
480 747 685 570 520 917 162 955 462 
133 60 850 160 208 706 195 108 354 
174 906 696 167 130 723 104 857 149 
490 194 668 512 322 601 317 563 164 
455 81 136 621 614 664 575 91 562 
680 85 155 22 398 969 331 221 334 
681 473 68 100 48 900 711 443 452 
631 788 945 684 401 54 143 698 394 
273 376 814 812 763 946 622 995 1 
419 349 981 699 693 604 357 496 556 
252 930 297 218 676 102 724 178 183 
338 313 491 751 29 949 913 483 111 
76 665 720 170 965 132 844 911 891 
499 436 847 5 362 550 997 713 617 
638 489 306 959 897 880 408 320 728 
561 238 44 432 122 705 733 950 120 
669 219 704 182 732 355 402 377 302 
388 718 628 809 998 363 989 736 801 
651 546 786 107 378 610 46 837 45 
88 694 296 253 248 290 66 158 444 
553 93 140 567 484 870 152 977 540 
459 165 387 113 695 560 269 629 161 
964 709 494 131 212 571 632 87 116 
99 26 515 172 813 435 894 595 71 
707 836 589 292 353 294 448 330 544 
125 735 305 34 591 176 70 475 196 
276 58 859 655 74 892 753 468 63 
73 64 528 393 315 337 31 875 899 
110 32 335 232 308 16 121 233 839 
868 536 881 79 342 756 27 77 359 
428 510 760 787 374 777 409 921 677 
4 416 497 566 406 766 135 871 524 
749 533 845 864 828 365 526 886 999 
101 975 980 905 742 626 72 456 737 
429 619 507 762 262 392 530 647 755 
716 832 919 731 20 743 714 15 853 
175 503 596 773 249 12 549 938 56 
509 193 517 908 620 901 460 609 373 
433 119 939 513 105 933 380 228 605 
650 75 324 729 493 284 245 220 967 
375 635 667 451 902 658 678 389 47 
361 803 514 987 288 792 404 752 234 
472 827 869 585 358 147 17 340 198 
691 333 271 371 366 640 689 673 778 
57 498 123 935 381 953 157 379 557 
954 465 805 521 613 80 257 236 326 
339 33 652 205 42 206 768 916 835 
263 641 53 572 277 348 717 501 823 
89 611 739 21 708 225 399 654 722 
923 372 224 303 594 548 96 204 134 
598 431 141 767 960 283 688 970 492 
242 282 883 43 226 754 740 819 446 
616 14 599 227 697 872 800 69 592 
281 40 146 343 38 287 559 52 525 
649 210 323 979 368 643 279 793 791 
59 55 820 796 118 500 109 385 990 
405 702 463 578 453 927 246 144 639 
811 328 126 179 518 457 554 854 934 
983 885 978 976 6 37 529 267 874 
873 798 407 203 712 386 186 726 255 
471 925 481 834 838 971 815 802 256 
991 289 962 150 341 633 867 884 458 
774 810 422 889 986 78 153 244 197 
849 710 235 268 184 941 700 423 915 
84 90 645 336 607 931 825 28 879 
841 254 417 782 425 209 634 504 527 
300 129 332 192 10 148 295 744 344 
215 145 181 367 922 286 542 615 851 
757 185 942 564 474 831 188 154 309 
808 545 325 952 247 821 683 914 274 
466 558 464 30 818 855 715 173 207 
94 177 534 912 214 532 535 395 537 
285 356 442 360 701 957 230 926 797 
663 115 191 441 350 703 657 824 50 
848 124 180 588 985 92 397 630 988 
479 642 82 382 8 888 239 223 947 
211 24 580 573 920 982 887 552 310 
852 690 166 994 128 83 114 508 606 
202 758 426 577 301 790 3 41 904 
984 415 440 199 447 963 590 817 745 
576 424 438 686 168 390 229 97 502 
36 
type 1 1000 int
2 2 2 1 1 2 2 2 2 
1 1 2 2 2 1 2 1 1 
2 1 2 1 1 2 1 1 2 
1 2 2 2 1 1 2 2 1 
2 1 1 1 2 2 1 1 2 
1 2 2 2 2 1 2 1 1 
2 2 2 2 1 2 1 1 1 
2 2 2 1 1 1 1 2 2 
2 2 1 1 2 1 2 1 2 
1 2 2 1 2 2 2 1 2 
1 2 1 2 1 2 2 1 1 
2 2 1 2 2 1 2 2 2 
1 1 1 2 2 1 2 1 2 
2 1 2 2 2 2 1 1 1 
2 1 2 1 1 1 2 2 1 
1 1 1 2 2 2 2 1 2 
2 1 1 2 2 2 1 2 1 
1 2 1 1 1 2 2 1 2 
1 2 1 1 1 2 2 2 2 
1 2 2 1 2 1 1 2 2 
1 2 2 2 2 2 1 2 2 
1 2 2 2 2 2 1 2 2 
2 1 1 1 2 1 2 2 2 
2 2 1 1 2 2 2 1 2 
2 2 1 1 1 2 2 1 2 
1 1 2 1 1 2 2 1 2 
2 2 2 1 1 2 1 2 1 
2 1 1 1 2 1 1 1 2 
1 2 2 2 1 2 1 1 1 
2 1 2 1 2 1 2 1 1 
1 2 2 2 2 2 1 2 1 
1 1 2 1 1 2 1 1 1 
1 2 2 1 1 2 1 2 1 
1 1 2 2 1 2 1 2 1 
1 1 1 2 2 2 2 1 2 
2 1 1 1 1 2 1 1 1 
2 1 1 1 1 2 2 1 1 
2 2 2 2 1 1 1 2 1 
1 1 2 2 2 2 2 2 1 
1 1 2 2 2 2 1 1 2 
1 2 1 1 2 1 2 1 1 
1 1 1 2 1 2 2 1 1 
1 2 2 1 2 1 2 2 2 
1 1 2 1 1 2 2 2 2 
2 1 1 2 2 2 1 1 2 
2 1 1 1 1 2 2 2 1 
2 1 2 1 2 1 1 1 1 
1 2 2 2 2 1 2 2 2 
2 2 2 1 1 2 1 2 1 
1 2 1 1 1 1 1 1 1 
2 1 1 2 1 2 1 2 2 
1 1 1 1 2 2 1 2 1 
2 2 1 1 1 2 2 1 1 
1 1 2 1 2 1 2 2 1 
2 2 2 1 1 1 1 1 2 
1 2 1 1 2 1 1 1 1 
1 1 2 2 1 2 2 1 1 
1 1 2 1 1 1 1 2 2 
1 1 1 1 1 1 1 1 2 
2 2 2 1 1 2 1 1 1 
1 2 2 2 1 2 1 2 2 
1 1 1 2 1 2 1 2 2 
2 2 2 2 2 1 2 2 2 
1 2 2 2 2 2 1 1 2 
1 2 2 2 1 1 2 2 2 
2 2 2 2 1 2 2 1 2 
1 2 2 2 1 1 2 2 1 
2 1 2 2 2 2 1 2 1 
1 1 2 2 1 2 1 1 2 
2 1 1 2 1 1 1 1 2 
1 2 2 1 2 2 2 1 1 
1 2 2 2 1 2 1 2 1 
1 2 2 2 1 1 1 1 1 
2 1 1 1 1 2 2 2 2 
1 1 1 2 1 2 1 1 2 
2 1 2 2 2 1 1 1 1 
1 1 2 1 1 1 2 2 2 
1 2 1 2 1 1 2 2 2 
1 2 2 1 2 1 1 2 2 
2 1 1 1 2 2 1 1 1 
2 1 1 2 2 1 2 2 1 
1 1 2 1 1 2 2 2 1 
2 1 2 1 2 2 2 1 2 
1 1 1 1 1 1 2 1 2 
2 1 1 2 1 2 1 2 2 
1 1 2 2 1 1 1 1 2 
1 2 1 2 1 2 1 1 2 
2 1 1 1 2 1 2 2 2 
2 2 2 2 1 1 2 1 2 
2 2 1 1 2 1 1 2 1 
1 2 1 2 2 2 2 2 1 
2 1 2 1 1 2 2 2 1 
2 2 1 2 2 1 1 1 1 
2 2 1 1 1 2 2 1 2 
1 1 2 1 2 2 2 1 2 
2 1 1 2 1 1 2 2 2 
1 1 1 1 1 1 1 2 1 
1 1 1 1 2 1 2 2 2 
2 1 2 2 1 2 1 1 1 
2 2 1 2 1 2 2 2 1 
1 2 1 1 2 2 2 1 1 
1 1 2 2 1 2 2 1 2 
1 1 1 1 2 2 1 2 2 
2 1 1 1 1 2 2 2 1 
2 1 1 2 2 1 1 2 2 
1 2 1 1 1 2 1 1 2 
1 1 2 2 2 2 2 2 1 
2 2 1 2 1 1 1 2 2 
1 2 1 2 1 2 1 1 2 
2 1 1 1 1 2 2 2 2 
2 1 1 2 1 1 1 1 2 
1 
i 3 1000 int
-17 0 1 88 1 0 22 0 0 
-47 0 1 112 1 0 -58 0 0 
-19 0 0 -17 0 1 -15 0 0 
-55 0 0 -46 0 0 124 1 0 
-43 0 1 93 1 0 -23 0 1 
-38 0 1 110 1 0 -58 0 0 
-84 0 0 58 1 0 -15 0 1 
133 1 1 -75 0 0 -21 0 0 
-6 0 1 -31 0 1 -31 0 1 
-34 0 1 176 1 1 -10 0 0 
-43 0 1 -20 0 0 -25 0 0 
-9 0 1 -16 0 1 -24 0 1 
-13 0 0 -50 0 1 -8 0 0 
-54 0 1 -7 0 0 -11 0 1 
-35 0 0 -32 0 1 -2 0 1 
-49 0 0 12 0 0 -56 0 0 
85 1 1 -27 0 0 78 1 0 
-60 0 0 -31 0 0 -100 0 0 
75 1 -1 -26 0 0 1 0 0 
-31 0 0 91 1 0 117 1 1 
71 1 1 -40 0 1 -44 0 0 
-51 0 1 -42 0 1 -18 0 0 
-24 0 0 48 1 0 -7 0 0 
-63 0 0 -48 0 0 -31 0 0 
73 1 0 -12 0 0 98 1 0 
-11 0 0 -36 0 0 100 1 0 
2 0 0 -1 0 0 -104 0 0 
-28 0 0 -7 0 0 -16 0 0 
-15 0 0 -31 0 0 7 0 0 
-8 0 1 -3 0 0 -16 0 1 
-18 0 0 -9 0 0 -7 0 0 
-23 0 0 31 1 0 -31 0 1 
-75 0 0 -10 0 0 67 1 0 
76 1 0 -10 0 1 -48 0 0 
71 1 0 -32 0 0 -21 0 0 
103 1 0 -19 0 0 -18 0 0 
-40 0 0 -15 0 0 99 1 -1 
-70 0 0 -57 0 0 -58 0 0 
116 1 0 -5 0 0 69 0 0 
-39 0 0 -54 0 1 149 1 0 
-2 0 -1 -45 0 0 -31 0 0 
81 1 0 -26 0 0 11 0 -1 
-62 0 0 -67 0 0 -59 0 0 
-17 0 1 -60 0 -1 -59 0 0 
1 0 0 -15 0 0 -113 0 0 
-67 0 0 -7 0 0 -32 0 1 
-30 0 0 49 1 0 17 0 0 
25 0 -1 -5 0 0 70 1 0 
5 0 0 118 1 0 -33 0 0 
31 0 0 -53 0 0 27 0 0 
-26 0 0 -11 0 0 -12 0 0 
75 1 0 -37 0 1 69 1 0 
-75 0 1 -14 0 0 -56 0 1 
-36 0 -1 27 0 0 123 1 -1 
-88 0 0 2 0 -1 109 1 0 
24 0 0 -15 0 0 -17 0 0 
8 0 0 -8 0 0 -29 0 0 
-6 0 0 -17 0 -1 58 1 0 
-2 0 0 -68 0 0 -53 0 0 
-51 0 0 83 1 0 -35 0 1 
-25 0 0 -13 0 0 -2 0 0 
-82 0 0 1 0 0 84 1 -1 
-12 0 0 103 1 0 135 1 0 
5 0 0 62 1 0 -4 0 0 
-56 0 0 50 0 0 -21 0 0 
-1 0 0 27 0 -1 -56 0 0 
-23 0 0 -23 0 0 -18 0 0 
-69 0 1 21 0 0 0 0 -1 
-19 0 0 -86 0 0 94 1 0 
86 1 0 -31 0 -1 69 1 0 
-47 0 0 -34 0 0 -36 0 0 
-14 0 0 -41 0 0 93 1 0 
-44 0 0 -25 0 -1 -55 0 -1 
-16 0 0 86 1 0 -18 0 -1 
-51 0 0 -79 0 0 -46 0 1 
-7 0 0 5 0 0 -41 0 0 
-45 0 0 -32 0 0 -1 0 0 
-30 0 -1 85 1 0 -25 0 0 
-14 0 -1 106 1 0 -21 0 0 
-68 0 -1 134 1 0 5 0 0 
-58 0 -1 8 0 -1 -71 0 0 
-12 0 0 13 0 0 0 0 -1 
-8 0 -1 111 1 -1 -33 0 0 
-15 0 0 -20 0 0 -55 0 -1 
-20 0 0 -22 0 0 -19 0 0 
-27 0 0 5 0 0 -69 0 -1 
-41 0 0 -38 0 -1 -50 0 0 
-79 0 0 -76 0 -1 -74 0 0 
-58 -1 0 19 0 1 40 0 0 
20 0 0 -12 0 0 5 0 0 
-40 -1 1 -94 -1 1 21 0 1 
-91 -1 1 44 0 0 14 0 0 
47 0 0 9 0 1 83 0 0 
65 0 1 11 0 1 51 0 1 
45 0 0 8 0 0 41 0 1 
-69 -1 1 -62 -1 1 -14 0 1 
39 0 -1 29 0 0 10 0 0 
82 0 0 -12 0 0 46 0 0 
-2 0 1 0 0 0 -5 0 0 
-67 -1 0 -122 -1 0 -16 0 1 
24 0 0 17 0 0 28 0 0 
-14 0 1 1 0 1 28 0 0 
5 0 0 21 0 1 -15 0 0 
6 0 0 40 0 1 27 0 0 
67 0 0 -5 0 0 81 0 1 
-59 -1 0 54 0 1 14 0 1 
51 0 0 30 0 0 49 0 0 
5 0 0 44 0 0 22 0 0 
12 0 0 3 0 0 52 0 0 
-9 0 0 40 0 0 -36 -1 0 
37 0 0 34 0 0 15 0 0 
10 0 0 32 0 0 35 0 0 
43 0 0 45 0 0 15 0 1 
32 0 0 24 0 0 48 0 -1 
-80 -1 1 -64 -1 0 -72 -1 1 
38 0 1 9 0 1 23 0 0 
13 0 0 -57 -1 1 -106 -1 -1 
36 0 0 23 0 0 34 0 0 
23 0 -1 31 0 0 37 0 1 
-112 -1 1 88 0 1 53 0 0 
84 0 1 -12 0 0 78 0 0 
21 0 0 67 0 -1 0 0 -1 
-105 -1 0 10 0 0 36 0 -1 
28 0 0 -65 -1 0 36 0 -1 
89 0 0 43 0 0 63 0 1 
8 0 0 53 0 0 36 0 0 
51 0 0 25 0 1 9 0 0 
66 0 0 4 0 -1 60 0 0 
52 0 0 -98 -1 -1 19 0 -1 
15 0 0 30 0 0 11 0 0 
19 0 -1 4 0 0 34 0 0 
17 0 0 -97 -1 1 36 0 1 
14 0 -1 55 0 -1 70 0 -1 
71 0 0 19 0 0 26 0 0 
-6 0 0 17 0 0 20 0 0 
41 0 0 -100 -1 0 20 0 -1 
16 0 0 42 0 0 -30 -1 0 
89 0 -1 15 0 -1 -72 -1 -1 
-129 -1 0 14 0 -1 70 0 -1 
51 0 -1 -112 -1 1 52 0 0 
-88 -1 0 -106 -1 1 67 0 0 
-72 -1 0 -81 -1 0 18 0 0 
83 0 -1 -99 -1 0 9 0 -1 
50 0 0 -119 -1 1 -113 -1 -1 
29 0 -1 2 0 0 -66 -1 1 
-88 -1 0 -68 -1 0 25 0 -1 
83 0 0 -91 -1 0 54 0 0 
36 0 0 -116 -1 0 28 0 -1 
-93 -1 0 -118 -1 0 77 0 0 
-12 0 0 6 0 0 19 0 0 
-126 -1 1 42 0 -1 69 0 0 
5 0 0 26 0 0 8 0 0 
2 0 0 49 0 0 -99 -1 0 
10 0 0 47 0 -1 -81 -1 -1 
24 0 -1 33 0 0 31 0 0 
-74 -1 0 -74 -1 -1 -5 0 0 
30 0 -1 48 0 0 7 0 -1 
37 0 -1 105 0 -1 9 0 0 
20 0 -1 4 0 0 0 0 0 
-44 -1 -1 78 0 -1 -98 -1 -1 
-89 -1 -1 105 0 0 16 0 -1 
7 0 0 56 0 0 20 0 0 
-166 -1 -1 84 0 -1 26 0 0 
-142 -1 -1 54 0 0 46 0 0 
-7 0 0 27 0 -1 4 0 0 
-94 -1 0 27 0 0 46 0 -1 
97 0 0 -99 -1 0 25 0 0 
41 0 0 13 0 0 109 0 -1 
-70 -1 0 32 0 -1 -86 -1 0 
-113 -1 0 30 0 0 34 0 -1 
54 0 0 11 0 0 42 0 -1 
42 0 0 44 0 -1 25 0 -1 
6 0 -1 10 0 0 79 0 -1 
64 0 0 10 0 1 -61 0 0 
-21 0 1 114 1 0 -44 0 1 
-35 0 1 -21 0 1 -67 0 0 
96 1 0 -37 0 1 -31 0 1 
-49 0 1 -89 0 0 -6 0 0 
-40 0 1 -17 0 1 -23 0 1 
-47 0 1 79 1 1 -18 0 0 
-35 0 1 -30 0 0 -37 0 1 
-34 0 1 -11 0 1 -71 0 0 
151 1 1 -44 0 1 -15 0 1 
-83 0 0 -46 0 0 102 1 1 
112 1 1 -40 0 1 -36 0 1 
-13 0 0 -11 0 0 -17 0 1 
-103 0 1 129 1 0 -18 0 1 
-23 0 1 -26 0 1 -84 0 0 
-52 0 1 125 1 0 -10 0 0 
-23 0 0 84 1 1 70 1 1 
-18 0 0 17 0 -1 -3 0 -1 
77 1 0 -5 0 0 -16 0 0 
-21 0 0 -22 0 1 -49 0 0 
-64 0 0 -77 0 0 -18 0 0 
-20 0 1 -40 0 0 -44 0 0 
-42 0 0 -29 0 0 -25 0 0 
166 1 0 -113 0 0 -29 0 0 
159 1 0 -49 0 1 52 1 0 
14 0 0 -22 0 0 -40 0 1 
-27 0 0 -50 0 1 -56 0 0 
-85 0 0 9 0 0 -22 0 0 
-42 0 0 80 1 0 -24 0 0 
-44 0 1 3 0 0 -48 0 0 
-6 0 0 -16 0 0 -45 0 0 
64 1 -1 -11 0 0 -14 0 0 
-42 0 0 44 1 0 -13 0 0 
-26 0 1 -64 0 1 13 0 0 
-14 0 0 57 1 1 44 1 0 
87 1 1 102 1 0 -74 0 0 
-30 0 0 122 1 0 73 1 -1 
55 1 -1 -111 -1 0 -51 0 0 
0 0 0 87 1 0 -17 0 0 
-6 0 0 -26 0 0 -39 0 0 
-15 0 0 76 1 0 -37 0 0 
56 1 0 1 0 -1 55 1 0 
11 0 0 5 0 -1 -49 0 0 
20 0 0 -30 0 0 -26 0 0 
-48 0 1 -15 0 0 -65 0 0 
-59 0 0 -8 0 0 -18 0 0 
50 1 0 4 0 0 -50 0 0 
-30 0 0 -12 0 0 -73 0 0 
-35 0 0 60 1 -1 -95 0 1 
77 1 0 126 1 0 -40 0 0 
-21 0 0 18 0 0 43 1 0 
-23 0 0 -51 0 0 68 1 0 
79 1 0 1 0 0 -61 0 -1 
-5 0 0 -22 0 0 -13 0 0 
-18 0 0 -58 0 0 -4 0 0 
-26 0 0 112 1 0 10 0 0 
-89 0 -1 -49 0 0 -43 0 0 
-76 0 -2 -37 0 -1 -12 0 0 
-19 0 0 -6 0 0 3 0 0 
-37 0 0 -90 0 1 -5 0 0 
-36 0 0 34 1 0 108 1 -1 
-38 0 0 -13 0 0 3 0 0 
-74 0 0 -70 0 0 -28 0 0 
-64 0 -1 -57 0 1 -68 0 0 
41 1 -1 -53 0 0 -67 0 0 
64 1 0 -46 0 0 -55 0 0 
-36 0 0 -85 0 0 -33 0 0 
-22 0 0 -43 0 -1 -2 0 0 
-40 0 0 83 1 0 -78 0 0 
7 0 0 103 1 -1 -90 0 0 
-115 -1 0 94 1 -1 8 0 -1 
-50 0 0 -50 0 0 -46 0 0 
-43 0 0 -30 0 0 -22 0 0 
-14 0 0 11 0 0 15 1 -1 
-49 0 0 -27 0 -1 -6 0 -1 
116 1 -1 -37 0 0 -12 0 -1 
22 0 -1 -9 0 0 -9 0 0 
-12 0 0 -44 0 0 71 1 0 
-76 0 0 121 0 1 -89 -1 0 
3 0 1 70 0 0 -71 -1 0 
50 0 1 -20 0 0 -27 0 1 
181 1 0 79 0 0 27 0 0 
36 0 0 42 0 0 -47 -1 0 
8 0 0 84 0 1 5 0 1 
8 0 0 -104 -1 0 0 0 0 
2 0 0 82 0 1 85 0 1 
41 0 0 29 0 0 9 0 1 
104 0 1 -4 0 0 31 0 1 
3 0 1 10 0 0 77 0 0 
60 0 0 -79 -1 0 5 0 0 
-46 -1 0 -11 0 0 15 0 0 
13 0 0 12 0 0 18 0 0 
40 0 0 -6 0 0 -144 -1 0 
-5 0 0 -81 -1 1 42 0 0 
-46 -1 0 -84 -1 0 22 0 0 
-71 -1 0 47 0 0 30 0 0 
43 0 0 71 0 0 -30 -1 1 
37 0 0 15 0 0 52 0 -1 
23 0 0 3 0 1 43 0 0 
55 0 0 -6 0 1 -16 0 0 
50 0 0 -99 -1 -1 -31 -1 0 
46 0 -1 21 0 0 -72 -1 1 
-10 0 0 29 0 0 24 0 0 
-52 -1 1 38 0 0 -139 -1 -1 
3 0 0 39 0 1 14 0 1 
25 0 0 -154 -1 0 37 0 0 
-1 0 1 59 0 0 -25 0 0 
24 0 0 35 0 0 -7 0 0 
40 0 0 -85 -1 0 26 0 0 
74 0 1 15 0 0 40 0 0 
54 0 0 33 0 1 15 0 0 
59 0 -1 20 0 0 87 0 1 
32 0 0 2 0 0 38 0 0 
58 0 -1 -63 -1 0 -105 -1 0 
53 0 -1 21 0 0 16 0 0 
53 0 -1 -68 -1 0 -72 -1 0 
23 0 0 -63 -1 1 -14 0 0 
44 0 0 59 0 0 22 0 0 
29 0 0 72 0 0 33 0 0 
42 0 -1 20 0 0 53 0 0 
-116 -1 1 78 0 0 -78 -1 0 
55 0 0 12 0 0 12 0 0 
-1 0 0 31 0 0 37 0 0 
10 0 0 2 0 0 25 0 0 
59 0 0 73 0 -1 45 0 -1 
33 0 0 -86 -1 0 82 0 0 
6 0 0 -1 0 0 -81 -1 -1 
38 0 0 19 0 0 14 0 0 
3 0 0 79 0 0 -113 -1 0 
83 0 0 63 0 0 81 0 1 
-17 0 0 43 0 0 30 0 0 
18 0 -1 8 0 0 26 0 -1 
70 0 0 28 0 0 61 0 0 
71 0 -1 21 0 0 4 0 -1 
-78 -1 0 26 0 0 37 0 -1 
66 0 0 24 0 0 99 0 -1 
36 0 0 30 0 -1 65 0 0 
25 0 0 40 0 0 -79 -1 0 
27 0 0 11 0 0 10 0 0 
-97 -1 1 73 0 0 22 0 0 
25 0 0 35 0 0 6 0 0 
37 0 -1 40 0 0 35 0 0 
41 0 0 -101 -1 0 21 0 -1 
-63 -1 -1 15 0 0 147 1 0 
-112 -1 0 -11 0 -1 22 0 0 
51 0 0 86 0 -1 89 0 0 
-47 -1 0 -79 -1 0 -1 0 -1 
54 0 -1 45 0 -1 -10 0 0 
-73 -1 0 32 0 -1 10 0 -1 
32 0 -1 12 0 0 71 0 0 
-125 -1 -1 -119 -1 0 -61 -1 -1 
54 0 -1 -21 0 -1 40 0 -1 
75 0 -1 57 0 -1 -65 -1 0 
43 0 0 -84 -1 -1 29 0 -1 
68 0 0 -1 0 -1 16 0 0 
-124 -1 -1 38 0 0 45 0 0 
5 0 -1 10 0 -1 0 0 0 
46 0 -1 7 0 0 23 0 -1 
22 0 -1 3 0 0 32 0 -1 
-40 -1 0 2 0 0 -71 -1 0 
-80 -1 -1 
v 3 1000 double
-161.10897922 -6.7537691549 -8.2508010673 -428.54360819 -9.9041578233 3.8658610037 -104.54620108 5.2735687594 -3.498643866 
-317.39822968 11.115087962 -9.4217359356 -313.62553708 -10.832433595 4.7069395064 -310.8032162 9.6871930334 5.5649234306 
-154.43157822 0.46850614898 9.8243297266 -159.4944483 5.616109243 17.684009096 -260.44081414 13.582172001 -5.3721589046 
-200.80200029 -6.8859724099 9.1149990021 -375.09931494 -13.281093588 16.912860426 -377.22667516 -17.0069858 4.722631588 
-73.93056912 -1.8067729213 -13.314739103 -507.76728139 13.531677909 25.235810495 -170.26785616 8.8763426764 5.9160019957 
-303.84559973 4.6171523357 13.177942643 -198.02123028 -10.297414493 -5.4990024585 -378.22706474 12.042710925 1.2281273875 
-297.88208231 4.5407761182 -8.8525377716 -470.28919593 19.776985279 5.8929413824 -285.50278784 -5.1178760767 6.6406634134 
-239.17543982 -0.37436397066 19.206603226 -330.23743335 -10.326176837 -19.589184303 -35.789403309 12.197957772 19.903957368 
-137.30829723 22.924941913 -2.6901315705 -370.86561921 -6.5988036121 4.4741545126 -167.15159198 -12.881820675 -7.2320490832 
-243.34756491 4.2405356121 9.5590420342 -41.673148491 -13.866016904 -20.400523586 -175.03017859 -8.4681508761 6.6011596545 
-96.600035528 -5.459861957 2.0086205367 -18.341810467 -13.879679541 5.2421458282 -142.20067922 -30.526426714 15.613500367 
-109.24357687 -20.15815988 -1.0860426019 -306.18427525 8.5887714684 32.943049725 -148.60172954 -40.349950445 -10.472385216 
-115.99807181 31.793441348 11.590245664 -353.21142649 -14.559057952 5.8369195978 -102.31776203 10.461641977 -11.462927396 
-329.39510023 -7.8167921868 5.4458320481 -63.023378575 -4.5743951829 14.682993854 -299.04840703 7.3281292633 -11.943126652 
-390.50267438 -5.7230458447 4.4065104114 -212.49672929 -27.346861791 -0.35084939975 -104.66578733 2.1359411273 -3.0321674759 
-397.18167391 1.2123480353 12.331344727 -24.345251802 -5.5773051824 -2.4168846473 -417.629636 -17.969182051 6.0228061605 
-412.5401193 -14.743857275 22.482416056 -281.0971514 -10.429180034 3.1856245284 -483.23553593 -11.378875816 -14.658676153 
-423.29607917 -20.80328253 -0.090388615256 -163.02760625 12.574408361 6.5492895708 -402.91425989 -1.7832515936 3.5717066028 
-216.89930793 -22.27962552 -34.119531904 -201.97855623 7.4579376527 -25.20119894 -62.780877968 3.8431696564 -22.294089649 
-203.15188456 15.350667193 22.505824845 -304.21641195 -23.033753215 -12.163540407 -304.49428777 -0.40143533555 0.4200142176 
-404.22422263 -16.696039396 -9.7083849691 -342.9482568 -10.879917128 10.191088717 -328.73788967 0.71069847085 -2.7766616352 
-351.83988487 8.5592227452 18.147069523 -284.91434347 -0.94868695875 -5.4759340107 -133.66916097 3.7204043629 -7.0129432138 
-196.4053755 -4.5676685906 31.275749347 -409.23726834 -19.237382458 -31.353677204 -42.226527025 -6.3672836471 -19.426458743 
-226.1804447 -5.6478360059 9.1204117342 -117.55864063 -3.4604225374 25.845273482 -406.27769007 -0.29538129966 -7.7379352792 
-281.75755274 -6.6439687229 -10.153453686 -158.0054289 21.574339732 3.0957359137 -389.33514027 11.512890923 -3.1890073018 
-4.8824156464 1.5107425717 -1.7152741905 -204.51562322 2.8335876594 -4.8723801529 -231.50995372 -0.68752140699 -7.3862892134 
-161.91794662 22.088694761 7.551364733 -35.653415322 -10.960218484 -4.4499907469 -322.95126658 5.9378636439 9.5874338699 
-233.96675176 -5.782428364 -0.65001618071 -157.30572895 17.530893849 -7.0667714791 -153.02860985 12.912514431 -1.0015069696 
-163.40851535 -0.77763200542 5.0259098867 -348.82824585 12.8129719 12.219396529 -45.454696737 26.33874343 6.1692999954 
-19.215864156 -7.7263552742 33.932075394 -10.774893649 -7.6803322432 -26.385901538 -223.0410921 -3.6689549308 10.258531286 
-234.14280253 8.6765514823 -3.4599894212 -60.846504399 6.4538248801 9.818386509 -88.004188104 30.875216234 15.497636799 
-155.15261099 -13.674468879 -10.265345291 -449.44270144 -21.783415723 -14.392461674 -59.931323922 -11.921117034 -3.4198508479 
-153.86805599 14.366333399 -1.1796697053 -165.90579686 7.7184932836 1.6854579993 -407.14486924 -6.818009186 4.9968226489 
-348.79787558 19.954924864 13.431574453 -172.12623007 6.8367787933 16.420161915 -327.02447061 -23.508279039 -8.3887394724 
-413.74167967 -4.2529212483 -10.722880104 -157.21372979 -24.607381127 -25.761281305 -185.33510763 10.986896736 -17.031216105 
-238.24832066 3.5582132833 -26.689711271 -247.59656233 -9.510158618 0.278789013 -250.80066225 -23.369251835 4.7853974866 
-211.45257648 -18.095453058 -3.6673145331 -105.17206347 -12.030469025 1.6952920513 -375.92410544 -9.6271312222 -6.5767277009 
-330.77699482 -1.1049534076 16.415628693 -293.36495113 -3.9656729904 -2.2939919425 -188.74670832 11.931580073 -0.061357267469 
-230.86654448 27.963554633 -15.682047206 -135.03201419 -3.0828892614 1.8405108734 -20.998830476 8.506412601 -5.4056899817 
-431.67170909 8.2613057707 -11.235503112 -356.57909293 -14.542917255 16.132722951 -175.51183101 -3.8874955941 -12.196728331 
-8.9589982246 -11.199406367 -20.596463165 -477.29192605 1.9150811213 -0.36299293678 -242.28687351 1.3836672829 1.4287266525 
-297.00450828 9.2800440937 26.530221538 -194.10943076 -25.499884285 -2.2601289112 -157.87386226 8.9931486643 22.716831532 
-331.48327489 21.88761119 10.10210176 -420.31924319 1.5362744993 -8.3571813685 -166.01120071 -17.482689089 -16.848986306 
-23.844281644 -5.0659849884 -13.021442104 -410.8056189 8.752650047 -5.3094573402 -367.7761488 3.7160195891 -4.2174264391 
-157.29988024 -1.3376671574 18.459955514 -119.96484755 8.0245578587 -9.4721860012 -433.8254073 13.318559895 -3.4456873765 
-437.58885393 11.791753376 -17.69257289 -79.241080752 10.601624272 -8.1526015744 -22.514075022 -10.079861012 8.5928281849 