# vtk DataFile Version 4.2
Generated by LIGGGHTS
ASCII
DATASET POLYDATA
POINTS 1000 float
4.57349 3.89091 1.09794 0.320173 4.2601 1.59438 4.74266 1.19551 1.26604 
0.855236 1.16674 1.35406 3.03398 1.19129 0.386903 1.4407 1.87509 0.680807 
2.91827 1.40741 1.84025 1.39569 2.96818 0.569154 0.494381 2.13091 0.310075 
2.91379 2.56206 1.89655 0.739314 0.283269 1.65706 2.20926 2.7848 1.31117 
2.41075 3.03812 0.367006 3.69912 2.78869 1.69989 2.32634 1.75638 0.870397 
1.94361 0.455358 0.179747 2.40196 4.50371 0.580292 2.05331 3.63816 0.972033 
2.47275 3.5825 1.82834 2.13084 1.9781 1.75147 2.33224 0.661731 1.26161 
1.96665 4.15815 1.87307 3.90833 0.285162 1.64864 3.81239 0.0480877 0.733449 
3.25886 2.06195 0.926296 0.0801382 3.31988 1.41994 3.42322 4.59748 0.605058 
3.0972 2.99409 0.934802 1.02249 4.19491 0.136082 0.461173 3.96571 0.764906 
3.82679 2.39711 0.0579361 4.17518 2.09401 1.93327 0.550133 2.58838 1.72126 
1.21275 3.43844 1.41734 2.87164 4.47215 1.4304 4.83626 4.56727 1.73365 
2.89161 0.557095 0.783332 4.27007 1.66567 0.479188 3.02162 0.650292 1.7939 
3.7387 4.05661 1.35775 1.5522 4.27739 0.98007 1.82981 4.96294 1.74728 
4.37095 4.40713 0.286082 4.06814 3.02858 0.831373 4.76811 2.55755 0.0457179 
0.98603 3.19226 3.92621 2.29444 1.55912 3.90908 2.26816 4.41889 3.74806 
2.55766 2.87924 3.80929 0.823111 1.36956 3.3757 3.36124 3.90083 2.67781 
1.60364 3.14183 2.15337 4.55557 1.13073 3.8817 2.14179 2.41559 3.12256 
1.26785 0.577946 3.61065 3.22872 0.43264 2.70945 1.54984 1.32878 3.04478 
0.0378071 1.55303 2.96402 1.94772 0.200926 3.48602 2.55168 3.69975 3.2129 
2.56354 2.97834 2.46854 2.61282 4.36034 2.5 1.47783 0.779958 2.20611 
0.32032 1.25123 2.08964 2.27082 1.77298 2.56266 0.249994 2.24612 2.52961 
0.869662 0.456378 2.65882 1.35615 2.17264 2.25052 1.31403 2.72984 2.95808 
0.548488 1.9375 3.68143 1.6606 3.52255 3.27341 4.80143 4.62835 3.16336 
3.19183 4.78349 3.77722 1.97469 0.160847 2.04501 4.70035 2.66648 3.20483 
0.00245288 3.21948 3.79663 2.52327 0.785229 2.92265 3.91926 4.28704 3.44225 
0.550225 4.04921 2.42713 0.867526 4.81343 3.47448 0.455119 2.70752 3.27055 
4.23733 1.72634 2.86065 4.32247 2.97536 2.45536 0.340761 4.11336 3.94143 
4.59261 3.91161 2.51266 3.49389 2.908 3.96659 3.89834 0.379786 3.23141 
1.37639 3.91159 2.58419 4.05331 1.22283 2.0605 1.30693 4.80944 2.59638 
4.60942 0.190413 3.80106 3.78512 3.33434 3.17128 1.2643 4.11672 3.77297 
0.148402 4.84908 2.61146 3.86462 0.421148 3.90987 4.41152 3.27669 3.74591 
3.514 4.99649 2.84218 3.97515 4.54668 2.17599 4.15257 0.762576 2.29857 
4.54975 0.399026 2.73893 2.01034 0.986631 5.57543 1.55863 2.20081 5.14936 
2.95017 4.77626 5.54338 1.61032 1.28722 4.51808 2.45465 0.533682 5.91519 
0.921998 1.84606 4.44045 2.78697 3.50989 5.23031 1.90721 3.23846 5.91861 
1.01269 2.5389 5.14411 0.337864 0.923266 4.46916 1.38937 4.3538 5.37952 
4.01736 1.51236 5.60958 1.8667 3.71531 5.0611 1.79724 3.07083 4.47205 
0.546376 1.97907 5.82135 0.43287 2.38223 4.99254 4.21011 0.0406957 4.64392 
0.694751 0.731449 5.76463 0.270516 1.19634 5.24509 4.27062 3.84549 4.20543 
4.43599 1.70332 4.21888 2.04967 4.6364 4.71349 0.373157 4.62881 5.88091 
3.95038 4.11666 5.7599 4.92001 3.78087 4.93106 4.52633 4.75681 4.24759 
3.69591 4.72212 5.13145 4.46354 2.59322 4.13333 3.13771 0.0934134 5.29966 
2.89584 4.46866 4.63337 3.87413 2.89686 4.81944 3.37766 2.87635 5.62375 
4.7262 1.56132 5.11138 0.161866 2.88514 4.62016 3.69469 3.83081 4.86799 
0.523242 4.45443 5.03717 4.70544 0.883098 4.77478 3.01857 3.63082 4.26321 
0.568975 3.31556 5.52762 0.671351 3.659 4.67367 1.28906 4.8512 4.3727 
4.41581 2.27468 4.9225 0.105312 2.27267 4.10119 4.14631 2.44553 5.68452 
4.37009 0.701045 5.63369 4.33546 3.37463 5.79723 4.9877 0.162149 4.6943 
4.91363 4.52237 5.72867 0.518854 0.34185 7.13811 3.6064 2.76074 6.50517 
1.04975 2.53989 6.78459 1.09177 1.60956 7.29294 4.62025 3.75916 7.59646 
2.76466 2.01295 6.91117 2.29917 3.95733 7.05056 1.41113 0.419165 6.98256 
0.0237452 1.69374 6.9543 2.68038 2.69976 7.49192 1.31516 0.963695 7.85334 
2.39841 0.482623 6.81033 1.35015 1.84884 6.29524 1.10582 0.204295 6.07883 
1.87895 3.11312 7.59737 2.13782 4.23019 6.04067 4.63369 3.20018 6.67099 
2.63049 3 6.54127 2.08677 1.00413 7.44597 2.05752 1.22884 6.59639 
3.99412 2.0201 7.44849 3.10647 1.37701 6.70788 1.28276 3.37944 6.71912 
0.84761 3.15347 7.51291 1.38114 4.28614 7.31948 4.48446 2.20581 6.54 
4.14171 1.1027 7.1629 0.375969 3.93993 7.41801 4.01299 3.82471 6.74274 
3.96968 2.92343 7.37093 4.16587 4.96973 6.10673 3.60336 3.77989 7.59081 
3.48738 4.61222 7.16335 3.12924 4.01007 6.29237 2.31822 4.96242 6.79409 
0.615166 3.79322 6.34168 0.154188 4.7914 7.78462 0.282033 2.74815 6.23298 
-0.0369232 4.15329 6.68486 3.91881 1.15159 6.34871 4.50941 0.310773 7.54946 
4.38101 4.70037 7.46 4.73937 0.292167 6.39595 0.847888 0.00280266 7.83186 
4.81319 4.47551 6.67104 4.51782 3.00132 8.1616 1.41918 2.08146 9.76083 
4.04605 1.61888 8.39305 2.04912 2.05599 9.39765 2.62979 0.924542 8.02864 
4.78273 1.17062 9.54179 0.946067 1.64106 8.86577 3.83656 3.45326 8.43915 
2.92429 4.69115 9.73399 1.95165 3.87291 9.70932 1.16735 2.669 9.07193 
2.47582 0.278383 9.31627 2.67465 3.2452 8.51054 4.39497 0.0679679 8.7168 
2.46193 3.96777 8.03906 2.61115 4.1428 8.98007 1.90102 2.9747 9.62142 
1.68408 0.628364 8.95602 2.69091 1.45477 9.28509 4.22338 1.59375 9.21724 
1.34015 2.33893 8.15801 3.35648 3.8097 9.10277 1.62561 3.46297 8.42998 
2.23159 4.90924 8.98293 0.0334131 2.12562 8.1237 1.76738 4.69017 9.84075 
3.48633 3.97174 9.99331 1.06566 3.34081 9.72989 1.78634 4.62013 8.15385 
3.62222 2.4343 8.40034 4.38927 3.08328 9.12882 0.334939 2.58763 9.42668 
0.929502 4.89822 9.51257 4.0567 0.466853 9.98021 2.93522 0.0258355 8.71191 
0.598709 2.8934 8.43453 -0.00422926 3.42052 9.33002 0.852253 3.91527 8.15018 
4.2544 0.780945 8.67588 3.19844 2.90876 9.52495 0.92098 4.82745 8.4811 
0.836876 3.96643 9.07622 0.116948 4.44523 8.97841 4.28845 4.02411 9.16245 
4.17869 4.85566 9.40073 3.32138 4.62357 8.18889 4.05894 3.39951 9.97031 
4.9713 2.31333 8.23393 4.3382 6.33991 1.83517 2.4304 8.31006 0.40093 
3.95674 8.0092 1.84365 2.25648 8.45175 1.91432 2.45421 5.44334 0.940585 
3.99219 8.74886 1.29634 0.800184 9.04994 0.638134 3.76718 6.22361 0.676454 
3.1482 6.52861 0.0480073 4.60117 5.32247 0.197405 2.54109 9.0936 1.20191 
2.13816 9.87527 0.667541 0.513174 9.46994 1.44446 3.98007 5.47365 1.98832 
0.340914 6.86972 0.0245622 3.39611 8.92678 0.962193 2.33584 7.4001 1.78233 
3.23568 5.47121 0.247873 0.442043 8.451 1.56858 0.225995 6.55423 0.969152 
3.40743 5.3552 1.12328 1.08412 6.79959 0.52389 0.156117 5.10232 1.50214 
0.405786 5.64437 0.858854 2.00847 5.53212 0.104364 1.06988 5.02205 1.06824 
3.91626 7.26263 0.473743 3.168 6.64881 1.02756 1.95363 8.58299 0.589649 
4.58515 5.9978 0.808951 0.666014 6.16112 1.65039 0.820346 8.34594 0.0575022 
0.0408059 7.37903 0.686944 1.82141 5.77212 1.46467 1.35439 8.6557 1.71678 
1.29078 7.42808 1.1695 1.98236 6.69037 0.494879 1.01435 8.07074 1.13589 
1.24876 5.87176 0.59321 1.53592 7.32255 1.95846 4.45695 7.27847 1.64041 
1.89244 6.62084 1.32886 4.35557 5.11111 1.13729 1.34063 7.75914 0.3167 
3.08374 9.67228 0.395708 2.69023 7.38309 1.03771 2.88152 6.68948 1.85116 
3.10847 5.42802 1.9222 3.06127 9.91256 1.27578 2.94756 8.19547 1.49645 
3.5209 8.16299 0.491182 4.2725 9.71828 1.15388 4.4727 7.99823 0.025077 
4.57083 9.00652 0.231111 4.52541 6.62997 0.0644019 4.84426 8.49138 1.17932 
4.89737 5.44216 1.97323 4.8714 9.32042 0.802903 2.06804 9.70361 2.94419 
2.56641 7.70513 2.63788 3.07884 6.95818 2.71577 4.25789 8.14813 2.74635 
1.79885 5.16767 3.42198 4.23767 7.16951 2.5984 2.69659 9.98371 3.69644 
0.371935 8.46841 2.81144 0.813551 5.61321 2.9701 4.02077 9.48568 3.31087 
1.01603 9.33532 2.17298 4.43362 5.57355 2.81423 0.91315 6.43406 2.51831 
3.06014 9.79896 2.09349 2.46229 6.01578 3.31116 -0.0507842 7.67949 3.75663 
2.49378 5.83573 2.27857 3.27174 6.03942 2.86324 2.81258 9.54067 3.00216 
2.74985 8.99757 2.35623 0.91518 9.73957 3.85555 3.0518 6.71948 3.84928 
4.1655 8.95088 2.23507 1.86155 8.9899 2.43989 3.21224 7.7374 3.39735 
3.80343 5.70296 3.51968 1.08207 5.43984 2.02466 1.04169 7.62517 2.51838 
2.026 8.01687 3.42205 1.74809 7.34995 3.11934 1.71772 5.72204 2.67991 
1.95733 6.61807 2.28941 0.436603 6.79174 3.4141 0.0463238 6.57006 2.27803 
4.76641 9.48227 3.54279 1.07428 6.59674 3.85811 1.95482 6.63849 3.31133 
3.45565 9.04722 2.78205 1.39369 8.58785 3.36171 4.43178 9.81978 2.11051 
2.16471 8.77422 3.15749 1.10988 5.65111 3.90132 4.74729 6.93178 3.34554 
3.18535 9.07359 5.01225 3.2357 6.65859 4.82661 4.42771 5.72253 4.27997 
1.5596 9.58079 4.82499 1.98198 5.66805 5.04517 1.21811 9.28803 5.74747 
2.96639 5.74924 5.18684 1.9796 5.74582 4.12184 1.12794 8.99139 4.00106 
3.49945 5.31585 4.56628 3.38884 7.74854 4.39243 3.08028 8.33838 4.79409 
2.88313 5.77638 4.16302 3.91713 9.28577 4.27995 0.320108 6.67189 4.55657 
1.87659 8.03692 4.37225 0.633769 9.28718 4.64773 2.48384 7.49243 4.56509 
0.359105 8.358 4.59129 2.31291 8.86204 4.0552 2.88311 9.53146 4.25094 
0.367194 9.28487 5.32836 0.390212 7.61898 5.12499 4.54854 6.02678 5.2076 
0.615426 8.54071 5.37776 4.52112 5.12153 5.1383 1.2967 6.64578 5.86727 
1.77362 8.4811 5.37611 3.60392 7.4529 5.44757 3.1179 8.13525 5.59636 
1.15053 8.2382 4.45815 2.27767 5.11082 5.69593 4.4879 8.95713 5.98652 
0.149083 5.42147 5.93928 1.99567 6.65639 5.13581 4.08288 8.68295 4.4329 
2.74399 6.43783 5.69612 1.00138 5.38038 5.49369 1.0625 6.08598 4.79298 
3.78474 5.73157 5.74203 3.75921 6.26194 4.28962 3.75639 6.61423 5.64278 
3.91032 7.19832 4.07706 4.01146 8.34175 5.65418 4.64927 9.35725 4.8325 
4.63238 7.74748 5.5319 4.68456 6.84335 5.54233 4.62678 7.95727 4.56833 
4.80951 9.69004 5.53287 0.392346 5.00054 4.344 2.51892 8.97147 6.2753 
4.5259 5.47253 6.89683 4.57658 9.57938 7.15742 1.71861 5.64527 6.03307 
3.9954 7.59409 6.52741 2.43564 6.01059 6.93763 0.32485 8.5224 7.65823 
0.204549 9.25011 6.08804 3.38445 7.88535 6.36417 2.38496 7.92486 7.43447 
[...]
POINT_DATA 1000
FIELD FieldData 7
id 1 1000 int
529 275 797 970 357 231 629 873 770 
94 41 393 832 136 249 388 638 359 
257 434 485 807 21 26 382 6 882 
672 364 371 637 517 416 361 990 370 
569 272 879 135 659 616 626 378 279 
405 25 408 291 786 383 430 806 995 
852 837 316 717 713 250 389 5 107 
771 313 531 775 734 106 525 151 95 
925 895 973 682 778 522 854 112 921 
899 868 573 103 910 240 439 423 690 
488 641 395 528 246 555 675 872 654 
200 203 437 322 785 67 39 428 314 
594 508 679 518 449 117 201 513 402 
814 714 251 280 374 28 929 225 214 
939 23 795 876 229 243 429 190 445 
435 805 510 766 937 936 783 142 505 
548 900 298 935 789 500 524 222 66 
399 343 242 335 352 851 498 750 730 
606 658 320 43 47 570 656 855 822 
819 681 329 42 97 565 845 168 846 
80 584 838 348 504 743 62 839 694 
60 732 230 312 255 587 195 360 238 
643 259 661 588 760 226 633 835 241 
677 564 223 224 1 596 863 139 235 
861 869 71 650 864 618 828 511 974 
598 273 566 232 840 568 736 376 110 
623 608 670 574 870 380 526 386 957 
221 341 99 617 278 605 742 92 37 
32 248 394 105 77 712 109 841 590 
853 78 98 857 115 627 85 983 765 
44 624 634 582 833 878 651 219 808 
600 887 407 950 881 874 140 578 923 
91 729 160 167 980 281 292 491 182 
915 975 496 707 993 162 746 438 266 
301 699 493 553 932 175 667 458 695 
885 919 804 810 780 917 213 204 719 
938 631 556 552 401 391 698 792 288 
179 971 904 20 421 826 3 671 153 
968 705 521 346 962 958 268 415 748 
432 988 954 180 575 534 875 210 470 
45 469 253 998 336 961 218 720 472 
353 55 692 969 459 516 688 955 959 
645 701 978 215 942 686 208 193 549 
684 324 892 284 940 202 331 463 451 
482 326 676 724 170 986 580 444 475 
189 581 191 813 307 927 73 977 486 
464 29 744 350 46 295 829 834 197 
481 843 124 520 131 177 76 448 474 
334 173 611 65 51 72 951 601 308 
93 660 702 560 794 287 953 628 985 
825 296 593 22 655 83 603 989 349 
141 831 84 375 860 711 355 745 484 
830 635 614 997 599 535 305 347 963 
306 579 567 562 483 327 286 960 571 
753 381 537 57 787 896 13 431 377 
125 697 495 848 328 33 755 400 886 
425 754 642 772 514 228 96 784 777 
207 90 108 759 119 276 903 258 323 
9 256 18 362 413 373 130 368 871 
982 410 11 621 157 674 239 261 620 
277 15 867 798 19 943 680 636 898 
858 523 299 889 918 212 196 716 271 
16 509 543 144 171 731 262 409 512 
999 689 490 865 538 891 928 905 502 
507 773 668 52 450 941 456 647 519 
14 147 392 427 366 965 827 205 740 
148 944 908 137 289 369 123 424 820 
418 539 127 385 913 767 704 260 487 
12 533 992 708 8 283 646 644 546 
411 737 933 678 263 901 332 187 149 
161 683 503 172 396 894 304 924 817 
930 36 914 340 554 640 467 206 816 
920 270 727 38 721 365 662 480 536 
790 572 4 234 310 842 824 762 776 
317 236 653 372 862 847 17 152 2 
888 40 155 551 384 718 774 665 217 
318 315 216 237 802 198 811 544 768 
69 116 741 446 245 583 358 269 406 
756 722 274 849 585 758 293 506 264 
233 138 1000 10 856 7 89 118 591 
247 609 823 61 129 120 733 916 649 
267 342 344 134 354 265 227 703 30 
859 648 104 351 622 35 726 379 387 
530 27 515 877 56 563 764 597 956 
100 86 761 542 75 101 165 254 991 
801 302 87 906 133 321 782 397 183 
473 821 126 763 592 492 532 63 442 
479 82 610 912 663 319 791 132 769 
996 453 113 290 363 494 420 541 441 
159 333 907 403 122 102 285 972 809 
294 417 799 696 297 367 788 545 199 
497 909 426 422 390 866 880 244 949 
443 462 883 114 931 419 465 455 897 
404 158 796 166 309 884 693 169 174 
586 815 447 452 163 440 146 893 723 
747 984 337 687 752 890 691 952 209 
710 725 184 576 461 902 700 194 460 
454 433 436 922 981 666 50 836 602 
476 48 338 211 181 945 192 178 188 
934 154 186 164 976 58 527 728 926 
652 457 345 185 540 709 749 706 557 
70 59 615 53 143 466 946 412 88 
911 24 414 966 220 31 715 987 499 
471 589 948 685 34 468 303 478 757 
558 735 664 550 547 613 803 781 477 
657 49 850 818 604 812 156 630 111 
979 625 330 595 947 282 79 619 121 
145 150 738 967 607 356 793 577 300 
673 398 128 311 669 252 559 739 639 
176 501 632 994 779 339 68 561 64 
81 54 612 964 325 751 844 800 74 
489 
type 1 1000 int
2 1 2 2 1 1 2 2 2 
1 1 1 2 1 1 1 2 1 
1 1 1 2 1 1 1 1 2 
2 1 1 2 2 1 1 2 1 
2 1 2 1 2 2 2 1 1 
1 1 1 1 2 1 1 2 2 
2 2 1 2 2 1 1 1 1 
2 1 2 2 2 1 2 1 1 
2 2 2 2 2 2 2 1 2 
2 2 2 1 2 1 1 1 2 
1 2 1 2 1 2 2 2 2 
1 1 1 1 2 1 1 1 1 
2 2 2 2 1 1 1 2 1 
2 2 1 1 1 1 2 1 1 
2 1 2 2 1 1 1 1 1 
1 2 2 2 2 2 2 1 2 
2 2 1 2 2 1 2 1 1 
1 1 1 1 1 2 1 2 2 
2 2 1 1 1 2 2 2 2 
2 2 1 1 1 2 2 1 2 
1 2 2 1 2 2 1 2 2 
1 2 1 1 1 2 1 1 1 
2 1 2 2 2 1 2 2 1 
2 2 1 1 1 2 2 1 1 
2 2 1 2 2 2 2 2 2 
2 1 2 1 2 2 2 1 1 
2 2 2 2 2 1 2 1 2 
1 1 1 2 1 2 2 1 1 
1 1 1 1 1 2 1 2 2 
2 1 1 2 1 2 1 2 2 
1 2 2 2 2 2 2 1 2 
2 2 1 2 2 2 1 2 2 
1 2 1 1 2 1 1 1 1 
2 2 1 2 2 1 2 1 1 
1 2 1 2 2 1 2 1 2 
2 2 2 2 2 2 1 1 2 
2 2 2 2 1 1 2 2 1 
1 2 2 1 1 2 1 2 1 
2 2 2 1 2 2 1 1 2 
1 2 2 1 2 2 2 1 1 
1 1 1 2 1 2 1 2 1 
1 1 2 2 1 2 2 2 2 
2 2 2 1 2 2 1 1 2 
2 1 2 1 2 1 1 1 1 
1 1 2 2 1 2 2 1 1 
1 2 1 2 1 2 1 2 1 
1 1 2 1 1 1 2 2 1 
1 2 1 2 1 1 1 1 1 
1 1 2 1 1 1 2 2 1 
1 2 2 2 2 1 2 2 2 
2 1 2 1 2 1 2 2 1 
1 2 1 1 2 2 1 2 1 
2 2 2 2 2 2 1 1 2 
1 2 2 2 1 1 1 2 2 
2 1 2 1 2 2 1 1 1 
1 2 1 2 1 1 2 1 2 
1 2 2 2 2 1 1 2 2 
1 1 1 2 1 1 2 1 1 
1 1 1 1 1 1 1 1 2 
2 1 1 2 1 2 1 1 2 
1 1 2 2 1 2 2 2 2 
2 2 1 2 2 1 1 2 1 
1 2 2 1 1 2 1 1 2 
2 2 1 2 2 2 2 2 2 
2 2 2 1 1 2 1 2 2 
1 1 1 1 1 2 2 1 2 
1 2 2 1 1 1 1 1 2 
1 2 1 1 2 2 2 1 1 
1 2 2 2 1 1 2 2 2 
1 2 2 2 1 2 1 1 1 
1 2 2 1 1 2 1 2 2 
2 1 2 1 2 2 1 1 2 
2 1 2 1 2 1 2 1 2 
2 2 1 1 1 2 2 2 2 
1 1 2 1 2 2 1 1 1 
2 1 1 2 1 2 2 2 1 
1 1 1 1 2 1 2 2 2 
1 1 2 1 1 2 1 1 1 
2 2 1 2 2 2 1 2 1 
1 1 2 1 2 1 1 1 2 
1 2 2 1 1 1 2 2 2 
1 1 1 1 1 1 1 2 1 
2 2 1 1 2 1 2 1 1 
2 1 2 2 1 2 2 2 2 
1 1 2 2 1 1 1 1 2 
2 1 1 2 1 1 2 1 1 
1 2 1 2 2 1 2 1 1 
1 1 2 2 2 1 2 1 2 
2 1 1 1 1 1 1 2 1 
1 1 2 1 1 1 1 2 2 
1 1 2 2 1 1 2 2 1 
1 2 1 1 1 2 2 1 2 
1 1 2 1 2 1 1 1 2 
1 1 2 1 1 2 2 1 1 
2 2 1 1 1 1 1 2 2 
2 2 1 2 2 2 2 2 1 
2 2 1 2 1 2 2 1 1 
1 1 1 2 2 2 1 2 2 
1 1 1 1 1 2 1 1 1 
2 1 1 1 2 1 2 2 2 
2 1 1 1 2 2 2 2 2 
1 1 2 1 1 1 2 1 1 
2 1 1 2 1 1 2 2 1 
1 2 2 2 1 1 1 1 2 
2 2 2 2 2 2 2 2 1 
2 1 2 2 2 2 1 2 1 
2 2 1 2 2 1 1 2 1 
1 1 2 2 2 1 2 2 1 
2 1 1 1 2 1 2 2 2 
1 2 2 2 2 1 1 2 1 
1 1 2 2 1 2 2 2 1 
1 
i 3 1000 int
-2 0 0 -3 0 0 26 1 0 
25 1 0 -6 0 1 -4 0 1 
-6 0 0 -2 0 0 -4 0 0 
-2 0 0 -8 0 0 -2 0 0 
-1 0 0 -6 0 0 -7 0 1 
-5 0 1 0 0 0 -2 0 0 
-2 0 0 -5 0 0 -15 0 1 
0 0 0 -22 0 0 13 1 0 
-3 0 0 -2 0 0 0 0 0 
-5 0 0 0 0 0 0 0 0 
-2 0 1 -4 0 0 -2 0 0 
-1 0 0 0 0 0 -1 0 0 
24 1 0 -21 0 0 12 1 1 
-1 0 0 0 0 0 0 0 0 
-1 0 0 -3 0 1 41 1 0 
-2 0 0 -15 0 0 0 0 0 
-4 0 0 -9 0 1 -1 0 0 
-1 0 0 -19 0 0 -7 0 0 
-13 0 0 -12 0 0 -17 0 0 
-13 0 0 -15 0 1 -2 0 0 
-2 0 0 -1 0 0 -7 0 0 
-5 0 0 -6 0 0 -3 0 0 
-13 0 0 -2 0 0 -3 0 0 
-7 0 0 -1 0 0 -1 0 0 
-1 0 0 -19 0 0 -2 0 0 
-1 0 0 -27 0 1 -2 0 0 
-1 0 0 0 0 0 -2 0 0 
-5 0 0 -3 0 1 -1 0 0 
-1 0 0 -7 0 0 -11 0 0 
0 0 0 -15 0 0 0 0 0 
-23 0 1 -1 0 0 0 0 0 
0 0 0 29 1 0 -3 0 0 
0 0 0 0 0 0 -14 0 1 
-20 0 0 -6 0 0 -10 0 0 
1 0 0 26 1 0 17 1 0 
-13 0 0 -1 0 0 -1 0 0 
-4 0 0 -14 0 0 0 0 0 
-3 0 0 0 0 0 -6 0 0 
-7 0 0 -3 0 0 -12 0 0 
-7 0 0 27 1 0 -1 0 0 
-6 0 0 -1 0 0 -1 0 0 
0 0 0 -3 0 0 0 0 0 
0 0 0 -6 0 0 -7 0 0 
0 0 0 -3 0 0 -2 0 0 
-4 0 0 -3 0 0 -1 0 0 
0 0 0 -8 0 0 -1 0 0 
-1 0 0 -1 0 0 -1 0 0 
-5 0 0 -5 0 0 -2 0 0 
-4 0 0 -2 0 0 -11 0 0 
0 0 0 -16 0 0 -1 0 0 
-3 0 0 29 1 0 -1 0 0 
-8 0 -1 0 0 0 -14 0 0 
-6 0 0 -1 0 0 -3 0 0 
29 1 0 -9 0 0 -13 0 0 
-1 0 0 0 0 0 -1 0 0 
-1 0 0 -11 0 0 -8 0 0 
-7 0 0 -14 0 0 -2 0 0 
0 0 0 0 0 0 -2 0 0 
-6 0 0 0 0 0 -1 0 0 
-2 0 0 0 0 0 -1 0 0 
0 0 0 -1 0 0 0 0 0 
-2 0 0 0 0 0 -4 0 0 
0 0 0 -6 0 0 -22 0 0 
0 0 0 -26 0 1 10 1 0 
0 0 0 -2 0 0 -3 0 0 
-4 0 0 -8 0 0 -12 0 0 
-6 0 0 -9 0 -1 -1 0 -1 
0 0 0 -2 0 0 -4 0 0 
-8 0 0 -1 0 0 22 1 0 
0 0 0 0 0 0 -2 0 -1 
-10 0 0 -25 0 -1 -8 0 0 
-3 0 0 -1 0 0 -2 0 0 
1 0 0 -3 0 0 0 0 0 
-1 0 -1 0 0 0 0 0 0 
-2 0 0 -2 0 -1 43 1 0 
0 0 0 -10 0 0 14 1 0 
-4 0 0 0 0 0 0 0 0 
-13 0 0 -2 0 -1 0 0 0 
0 0 0 0 0 0 -1 0 0 
0 0 0 0 0 0 -3 0 0 
-5 0 0 2 0 0 7 0 0 
4 0 0 4 0 0 0 0 0 
8 0 1 21 0 0 1 0 0 
2 0 0 0 0 1 -27 -1 0 
31 0 0 -21 -1 1 1 0 0 
2 0 0 8 0 1 6 0 0 
1 0 0 9 0 0 2 0 0 
0 0 0 2 0 1 0 0 0 
1 0 0 1 0 0 1 0 0 
5 0 1 2 0 0 12 0 0 
2 0 0 1 0 0 5 0 0 
7 0 0 1 0 0 7 0 0 
2 0 0 2 0 0 5 0 0 
1 0 1 7 0 0 4 0 0 
3 0 0 1 0 0 5 0 0 
17 0 1 2 0 0 4 0 0 
0 0 0 17 0 1 5 0 0 
7 0 0 14 0 1 4 0 0 
-20 -1 0 1 0 0 3 0 0 
1 0 0 14 0 1 26 0 1 
-33 -1 0 3 0 0 9 0 0 
0 0 0 2 0 0 -14 -1 0 
6 0 0 1 0 0 20 0 0 
-27 -1 1 0 0 0 1 0 0 
-15 -1 0 0 0 0 3 0 0 
1 0 0 0 0 0 -30 -1 0 
10 0 0 -23 -1 0 2 0 0 
14 0 0 -26 -1 0 11 0 0 
2 0 0 1 0 0 8 0 0 
9 0 0 3 0 0 1 0 0 
1 0 0 4 0 0 4 0 0 
10 0 0 10 0 0 4 0 0 
-29 -1 0 6 0 0 9 0 0 
13 0 1 1 0 0 3 0 0 
19 0 0 2 0 0 0 0 0 
6 0 0 1 0 0 13 0 0 
0 0 0 1 0 0 11 0 0 
1 0 0 12 0 0 5 0 0 
0 0 0 23 0 0 1 0 0 
6 0 0 10 0 0 5 0 0 
11 0 0 5 0 0 -15 -1 0 
-18 -1 0 13 0 0 1 0 0 
7 0 0 0 0 0 2 0 0 
11 0 0 5 0 0 5 0 0 
6 0 0 1 0 0 -21 -1 0 
1 0 0 2 0 0 8 0 0 
3 0 0 1 0 0 5 0 0 
1 0 0 2 0 0 3 0 0 
1 0 0 5 0 0 -20 -1 0 
9 0 0 2 0 0 5 0 0 
-22 -1 0 1 0 0 14 0 0 
1 0 0 10 0 0 1 0 0 
6 0 0 1 0 0 11 0 -1 
-17 -1 0 5 0 0 5 0 0 
19 0 0 2 0 0 3 0 0 
2 0 0 1 0 0 14 0 0 
28 0 0 11 0 0 1 0 0 
0 0 0 4 0 0 5 0 0 
1 0 0 7 0 0 6 0 0 
2 0 0 14 0 0 7 0 0 
1 0 0 2 0 0 4 0 0 
8 0 -1 1 0 0 19 0 0 
2 0 0 6 0 0 7 0 0 
3 0 0 1 0 0 2 0 0 
2 0 0 14 0 0 0 0 0 
1 0 0 2 0 0 3 0 0 
1 0 0 1 0 0 1 0 0 
1 0 -1 4 0 0 24 0 0 
2 0 0 20 0 -1 16 0 0 
3 0 0 1 0 0 3 0 0 
8 0 -1 4 0 -1 1 0 0 
5 0 -1 -28 -1 0 5 0 0 
4 0 0 6 0 0 4 0 0 
2 0 0 5 0 0 11 0 0 
1 0 -1 2 0 0 6 0 0 
1 0 0 2 0 0 2 0 0 
8 0 -1 -10 -1 0 1 0 0 
0 0 0 1 0 -1 14 0 0 
6 0 -1 1 0 0 3 0 0 
8 0 -1 1 0 -1 1 0 0 
3 0 0 3 0 -1 1 0 0 
18 0 -1 14 0 0 2 0 0 
11 0 0 1 0 0 15 0 0 
13 0 0 -11 0 1 -1 0 0 
-10 0 0 -4 0 0 -20 0 1 
-11 0 1 -2 0 0 -2 0 1 
-12 0 1 0 0 0 19 1 0 
-6 0 0 -1 0 0 24 1 0 
-5 0 0 -2 0 1 -22 0 1 
-3 0 1 -4 0 0 -21 0 1 
-2 0 1 -9 0 1 -10 0 0 
14 1 1 -1 0 0 -3 0 1 
-5 0 0 -2 0 0 -9 0 1 
0 0 0 -6 0 1 -3 0 0 
21 1 0 -3 0 0 -2 0 0 
-2 0 0 -16 0 0 -2 0 0 
-4 0 0 -1 0 0 -1 0 0 
0 0 0 -1 0 0 -1 0 0 
0 0 0 -1 0 0 1 0 0 
-20 0 1 -1 0 1 -1 0 0 
-16 0 1 -6 0 1 -13 0 0 
-8 0 0 -8 0 0 -2 0 0 
-3 0 0 -9 0 1 -1 0 0 
0 0 0 -8 0 1 -5 0 0 
-1 0 0 -2 0 0 23 1 0 
23 1 0 -8 0 0 -15 0 0 
-8 0 0 -7 0 0 -8 0 0 
-2 0 0 -1 0 0 32 1 0 
-11 0 0 30 1 0 -2 0 0 
-3 0 0 -12 0 0 -9 0 0 
-2 0 0 16 1 0 -1 0 0 
-1 0 0 -2 0 0 -7 0 0 
-7 0 0 -3 0 0 -1 0 0 
26 1 0 -1 0 0 -2 0 0 
0 0 0 -4 0 0 -2 0 0 
-2 0 0 -16 0 0 -2 0 0 
0 0 0 -2 0 0 -3 0 0 
-2 0 0 -25 0 0 -3 0 0 
-2 0 0 -7 0 0 -3 0 0 
-20 0 0 -25 0 -1 -2 0 0 
-9 0 0 0 0 0 -4 0 0 
-1 0 0 -8 0 0 -2 0 0 
-26 0 0 -1 0 0 -6 0 0 
17 1 0 -26 0 0 -13 0 0 
-11 0 0 20 1 -1 -17 0 0 
-16 0 0 -4 0 0 -16 0 0 
-2 0 0 32 1 0 -2 0 0 
-5 0 0 -1 0 0 0 0 0 
-1 0 0 -2 0 0 -2 0 0 
-6 0 0 -7 0 0 0 0 0 
-1 0 0 0 0 0 -4 0 0 
-17 0 0 -1 0 0 0 0 0 
-3 0 0 -1 0 0 -1 0 0 
-3 0 0 -20 0 0 -1 0 0 
-3 0 0 -5 0 0 -9 0 0 
21 1 0 -4 0 0 -1 0 0 
-7 0 0 -3 0 0 -9 0 0 
-8 0 0 15 1 0 -17 0 0 
-1 0 0 -3 0 0 -17 0 -1 
-1 0 0 -2 0 0 -19 0 -1 
-2 0 0 -1 0 0 -3 0 0 
-1 0 0 -17 0 -1 -4 0 0 
-1 0 0 -5 0 0 17 1 0 
-1 0 0 -8 0 0 0 0 0 
-7 0 0 -1 0 0 -1 0 0 
23 1 0 -1 0 0 -1 0 0 
-1 0 0 -3 0 0 -4 0 0 
-3 0 0 0 0 0 -3 0 0 
-1 0 0 0 0 0 -10 0 0 
-2 0 0 0 0 0 -1 0 0 
-1 0 0 -1 0 0 -6 0 -1 
-6 0 0 -1 0 0 -29 0 0 
-1 0 0 -8 0 0 -3 0 0 
-1 0 0 -12 0 0 -4 0 0 
-2 0 0 -5 0 0 -6 0 -1 
-1 0 0 -1 0 0 -4 0 -1 
-20 0 -1 -4 0 -1 -1 0 -1 
-2 0 0 -2 0 0 -3 0 -1 
-3 0 0 -4 0 0 -1 0 0 
-1 0 0 14 1 0 -10 0 0 
-17 0 0 -1 0 -1 26 1 -1 
-17 0 0 -7 0 0 -8 0 -1 
24 1 -1 -4 0 -1 -3 0 0 
-19 0 0 -1 0 0 0 0 0 
-4 0 0 -1 0 0 -1 0 0 
-5 0 0 -8 0 0 0 0 0 
-2 0 0 9 1 0 -1 0 0 
0 0 0 -1 0 -1 -7 0 0 
15 1 0 -1 0 0 -11 0 -1 
-2 0 0 -8 0 0 -15 0 -1 
29 1 0 -2 0 0 -1 0 0 
-8 0 0 -2 0 0 -9 0 0 
-1 0 -1 -4 0 0 -8 0 -1 
-19 -1 1 1 0 1 0 0 0 
4 0 0 1 0 0 5 0 0 
-26 -1 0 5 0 1 1 0 1 
3 0 0 4 0 1 2 0 0 
7 0 0 1 0 0 0 0 0 
2 0 0 12 0 0 2 0 0 
0 0 1 1 0 0 -21 -1 1 
16 0 0 7 0 0 3 0 0 
6 0 1 1 0 0 0 0 0 
3 0 0 8 0 1 2 0 0 
2 0 0 12 0 1 7 0 0 
1 0 0 1 0 0 0 0 0 
21 0 0 1 0 0 0 0 0 
2 0 0 3 0 0 3 0 1 
7 0 0 0 0 0 0 0 0 
1 0 0 4 0 0 0 0 0 
13 0 0 2 0 0 7 0 0 
6 0 0 0 0 0 19 0 0 
2 0 0 11 0 0 4 0 0 
4 0 0 16 0 0 -29 -1 0 
13 0 0 0 0 0 5 0 0 
-27 -1 0 1 0 0 0 0 0 
8 0 0 -32 -1 0 15 0 1 
1 0 0 23 0 0 0 0 0 
-19 -1 0 0 0 0 0 0 0 
1 0 0 1 0 0 0 0 0 
1 0 0 0 0 0 5 0 0 
2 0 0 2 0 0 6 0 0 
4 0 0 13 0 0 4 0 0 
7 0 0 2 0 0 1 0 0 
2 0 0 10 0 0 2 0 0 
0 0 0 0 0 0 1 0 0 
-23 -1 1 6 0 1 14 0 0 
1 0 0 0 0 0 0 0 0 
2 0 0 3 0 0 -14 -1 0 
8 0 0 0 0 0 2 0 0 
18 0 0 10 0 0 2 0 0 
1 0 0 -25 -1 0 1 0 0 
9 0 0 18 0 -1 0 0 0 
0 0 0 8 0 0 2 0 0 
2 0 0 11 0 0 5 0 0 
1 0 0 5 0 0 3 0 0 
4 0 0 0 0 0 2 0 0 
1 0 0 1 0 0 3 0 0 
1 0 0 -1 0 0 3 0 0 
4 0 0 2 0 0 8 0 0 
0 0 0 1 0 0 1 0 0 
0 0 0 1 0 0 5 0 0 
0 0 0 -24 -1 0 10 0 0 
-24 -1 0 4 0 0 2 0 0 
2 0 0 1 0 0 18 0 0 
1 0 0 0 0 0 3 0 0 
1 0 0 -24 -1 0 0 0 0 
-26 -1 -1 23 0 -1 5 0 0 
2 0 0 20 0 0 7 0 0 
26 0 0 2 0 0 2 0 0 
3 0 0 3 0 0 6 0 0 
1 0 0 24 0 0 1 0 0 
2 0 0 1 0 0 21 0 0 
0 0 0 3 0 0 2 0 0 
4 0 0 15 0 0 0 0 0 
4 0 -1 13 0 0 1 0 0 
0 0 0 1 0 0 3 0 0 
8 0 0 0 0 0 4 0 0 
10 0 0 4 0 0 1 0 0 
4 0 0 -1 0 -1 2 0 -1 
5 0 0 1 0 0 8 0 -1 
0 0 0 -1 0 0 24 0 0 
7 0 -1 4 0 -1 20 0 0 
15 0 -1 -1 0 0 1 0 0 
10 0 -1 15 0 -1 13 0 -1 
2 0 -1 3 0 0 1 0 0 
1 0 0 -28 -1 0 29 0 0 
-22 -1 0 1 0 0 5 0 0 
1 0 0 0 0 0 2 0 -1 
4 0 -1 0 0 -1 0 0 0 
2 0 0 3 0 0 9 0 -1 
1 0 0 0 0 0 2 0 0 
2 0 -1 4 0 -1 12 0 0 
2 0 0 25 0 -1 7 0 0 
4 0 -1 
v 3 1000 double
-39.817915681 1.9860628708 -3.233080386 -23.191173012 -13.204492703 1.4144927629 -281.32685557 -18.30311257 -3.265609309 
-280.81240132 2.436015034 -18.932311554 -231.14505465 2.2780247099 -26.21306667 -189.76815551 -13.59077801 13.452847386 
-265.08947987 25.273821693 33.7323939 -65.035046799 -11.683589739 10.535683602 -145.37270246 -7.8583912146 18.904493823 
-155.65580124 -21.805330859 -8.0732284633 -386.96037129 -11.596499459 -2.6759683199 -120.55009337 -6.7165308061 -10.872463475 
-104.48534617 1.3705995938 -13.639639652 -149.60872152 26.579297615 -8.7988230793 -171.12834978 -24.049862886 -25.450721298 
-329.89465274 0.33825415777 30.923247801 -19.669472366 6.0909596309 -9.7534863969 -65.938891283 4.1823391757 -2.5042893951 
-58.270018946 -7.984072502 -7.7507654406 -160.0212107 -20.663671411 -12.184735165 -401.7830886 2.7543704967 14.900848056 
-47.705778115 -9.4559984528 -2.9924027484 -536.23955432 20.297033434 -13.113669973 -548.96545387 23.119407643 -26.986770587 
-168.74816941 -17.341753961 3.7103743666 -65.191284794 -13.692278722 -2.6263593042 -19.605535156 3.0812091879 4.444889394 
-109.82607735 16.237991466 3.2496196403 -25.188561795 10.077917235 0.81918138915 -29.239068141 -25.834094834 4.8908070947 
-135.56623454 -22.558178323 -2.3480994436 -172.78439118 2.0806118005 -0.4952374763 -88.651621065 3.6375760118 -2.4748926786 
-72.088291009 -7.2552544391 4.6444871274 -29.271537198 11.145405759 1.5703817734 -16.841795417 -4.8886938898 15.906111235 
-456.45434313 8.4894976175 -20.334430423 -261.35786211 12.701072458 36.628984876 -457.85719233 7.5929908716 9.4394199141 
-47.421373944 -9.0731332171 12.18070442 -28.640989572 -4.6894466645 4.6157783083 4.4922620259 -5.8767576255 1.0914050036 
-46.15138865 14.839043831 -2.5966436019 -104.05368199 -1.8734932546 -9.9616529349 -126.71615814 -11.472398796 -3.6618339162 
-133.72760494 2.6173406456 -16.223819945 -311.81860305 13.716491736 20.271510101 -34.554916223 -8.2576026175 18.98471113 
-107.71183285 -16.258072468 2.3504232763 -277.79091767 -27.379035439 -5.7035363224 -49.803018229 11.130635408 -11.709004793 
-64.253280983 -16.325273363 8.5658111749 -299.51183648 -24.170576106 -21.575351825 -135.98353436 -7.3457861646 13.793314678 
-412.44428578 3.2480688766 36.848821391 -479.3860191 20.82221595 5.5688209392 -278.18577073 -1.6449281637 -9.2381694453 
-275.60961018 -18.184658445 2.9512997403 -470.47278494 13.341150627 26.232447061 -53.108784491 -1.7215807518 -14.252595469 
-122.54803343 4.4740141781 33.301086151 -54.510546186 21.639997041 3.9222576016 -450.51621409 40.427610264 3.5148001186 
-246.20082463 -11.755273322 14.669385384 -179.25059583 -23.004606986 10.491097974 -167.84426425 5.2919994402 -2.4771538563 
-449.13023433 -10.654644993 33.633899473 -145.88077967 -9.9662397681 4.4083931828 -136.83772828 -4.7240674832 9.0036029077 
-227.73630977 0.67868093703 -7.5176424256 -68.458676287 -16.913736676 8.2101752975 -33.241712908 20.696375891 -4.1588195136 
-33.464869797 9.0673957226 5.1138440936 -459.35582127 -9.1048275976 8.7791124253 -122.8132348 0.95606946344 11.09149621 
-115.81756268 9.9206604135 -4.8954106683 -484.65775817 34.292441589 24.289445089 -31.582675177 -3.3299920482 -8.8448818312 
-42.339888203 -7.5840124973 9.6396016834 -23.151256458 -3.6869336376 -1.4496420763 -134.35732129 1.6680516319 -1.8679385643 
-172.84961889 -13.580368692 6.3151222103 -95.088084964 -3.1722637228 -26.644100306 -39.532085983 1.932055363 2.3361790978 
-38.013071208 -8.2338093151 15.054505115 -91.009149922 -19.138588435 -6.996578293 -475.64137463 14.333752251 -15.92834184 
-45.611379344 -5.201004321 -9.3476768438 -286.87673541 10.186533796 -24.95132535 -12.863695348 1.8387477659 4.1475752451 
-454.71200628 4.8399281003 -16.237242059 -79.492044541 -10.80174491 0.26617729829 -39.761177565 -0.34554944217 14.20850411 
-5.9544128814 2.5001101407 8.7947341189 -400.23865649 6.8477477238 22.877294426 -81.987648769 9.2880812962 2.7761807815 
3.5882027135 -0.30459495586 9.5592011844 -24.599558085 -4.6274285483 -1.8134429966 -424.97394806 -6.0345732914 10.711809989 
-447.86380442 2.2293665606 21.856105441 -338.3297232 31.163858543 -35.50319397 -198.638586 0.27157100692 28.910566524 
4.3439915054 -8.5802745409 18.480960606 -305.90779748 0.94616082826 -12.588744714 -371.03239879 -7.8920510986 -12.450917094 
-220.37802448 -5.4556643685 12.075185727 -57.222448843 7.1106817686 0.64625083886 -79.745462474 -6.4352137952 -3.8349433567 
-188.86928848 34.175095592 26.585335241 -288.97671368 -16.687039876 1.545272061 -41.557873021 20.206470213 10.104059966 
-196.11024998 -2.3910041035 -12.876297456 -63.10602051 3.1475576608 2.0395781496 -118.4838294 -2.1965516063 -14.380603769 
-200.05888575 -20.345790827 15.073712504 -188.56534199 -18.111106117 13.872180447 -433.24362603 1.0561069806 31.783176514 
-313.88572459 -3.2631216206 20.711666488 -235.3361613 -1.9247462748 20.584642714 -56.528218344 9.7162690302 23.364539455 
-211.53209706 -5.4834616554 10.516139995 -22.991524306 -0.21991356882 21.150548864 -31.787497801 3.6007259146 12.157054243 
-40.306181635 8.9826083785 2.8200451823 -62.214068183 10.762898799 20.817334065 -20.58130291 5.4298213934 -1.454203248 
-5.8882790683 12.630385179 1.9835363044 -141.85088746 -1.8780985572 1.3316919573 -399.08272353 -10.816788085 -8.2505299748 
-12.621970366 2.3864095566 10.657469626 -94.286052389 1.9423296691 -6.5376926488 -79.199480184 -12.983903974 -0.19004793928 
-184.78300027 5.6035275073 -10.971563841 -130.76727591 21.342794842 -12.227730183 -62.118708639 0.51110208532 15.425405509 
-32.229163169 4.6715154587 1.1247665784 -331.76089817 5.905063434 2.2313722271 -57.828334917 -16.010222095 -7.2944586001 
-81.164496611 3.9027209447 -7.9572458733 -54.387865494 -0.79778559246 1.1882596632 -24.172626959 2.3413627034 14.310754591 
-156.61538566 3.6956577778 -0.018965471375 -217.11501765 9.2214596373 7.4478624458 -114.43630978 -7.550078678 18.058750275 
-306.80081302 -32.456530386 6.0777961842 -47.81651149 -7.5098319429 -11.020314342 -435.43608134 -7.0563406277 -8.2681292197 
-21.718763046 -2.146297728 -3.2035880657 -449.38187071 15.30444011 15.481348488 -70.705938474 -16.461851756 2.5046664551 
-154.74373968 -3.7460739732 20.282375448 -213.08554434 -3.9882563097 -36.188755301 -38.987443034 -4.105211229 -13.991107743 
-156.81805966 3.0626895893 -7.9848840909 -33.548851685 3.4773737149 -22.375666533 -443.32873973 31.329483677 15.866107942 
-205.79970408 -18.093235173 6.4307136866 -84.037083217 2.0086849082 16.423789703 -325.36134152 -15.289501406 25.039321817 
-443.46091094 -5.5661679392 -2.6830576877 -181.38721496 -13.433746558 -1.8771701066 -439.72816674 4.2602141646 -15.224274068 