# vtk DataFile Version 4.2
Generated by LIGGGHTS
ASCII
DATASET POLYDATA
POINTS 1000 float
2.68116 2.06284 0.332223 1.30681 1.78343 1.67736 0.939254 0.542421 1.99773 
1.84025 3.0148 0.527571 2.35494 3.66095 1.96359 4.78321 2.00161 1.86887 
3.48003 2.66855 0.417359 3.37339 2.56399 1.77095 2.28998 1.66841 1.36737 
2.35452 3.8738 0.980801 4.5053 2.66361 0.0330744 3.17293 3.46836 1.44433 
4.08576 1.48965 1.33501 0.572886 1.47138 0.927323 1.69046 2.79343 1.53087 
1.32008 2.25029 0.850134 2.55467 2.64509 1.10455 4.00014 1.82319 0.299505 
0.0937396 0.629841 0.579854 2.46217 0.076472 0.101876 3.261 1.90673 1.02157 
1.28244 1.36167 0.549407 2.66868 3.04093 0.0795693 2.27376 4.7799 1.60454 
0.470497 4.79052 1.0075 1.95903 4.74167 0.0602559 1.39582 3.69806 1.69496 
0.77413 2.61997 0.185944 1.4584 4.50751 0.864015 0.964262 4.77186 0.0331852 
0.0544058 1.48816 0.156785 3.20775 3.74652 0.514012 0.195099 2.19097 0.839878 
4.03614 2.96683 1.13098 4.00376 3.99245 1.27513 3.195 4.50562 1.40697 
0.767892 2.9522 1.1068 1.17252 3.64983 0.561212 4.07362 3.46237 0.255283 
0.19916 1.61479 1.72455 0.407219 3.83954 1.14901 0.000954659 2.49843 1.72468 
1.32081 4.65402 1.81912 0.547657 3.26759 1.97296 4.50386 4.30855 0.462517 
0.377661 3.94128 0.134363 2.92798 4.62192 0.221865 4.64103 2.26305 0.913061 
4.33901 4.92309 1.34596 4.8508 2.96727 1.68673 4.95472 3.92148 1.48394 
2.47504 2.6829 2.09843 2.62722 4.26403 2.68927 2.32919 2.59377 3.0548 
2.00965 1.70461 3.2879 0.392559 0.437933 3.44622 3.90074 1.71658 3.23661 
1.57059 1.06396 3.91416 2.13378 2.69001 3.99538 3.37948 1.58278 2.31785 
4.69345 3.20966 3.8212 3.19081 2.27533 2.88523 1.56274 2.15103 2.64736 
1.12039 1.71112 3.47217 1.6396 3.08898 2.44664 3.09599 2.07511 3.82626 
1.30425 1.22597 2.48495 2.43652 3.51645 3.32497 2.39658 1.70553 2.36331 
2.11549 0.203322 2.16066 0.489466 2.05882 3.10113 1.55513 4.85746 3.83517 
0.698977 3.87758 2.69259 1.658 3.93343 2.89645 3.97208 4.40116 3.59903 
4.07945 2.36775 2.3954 0.00829932 2.7014 2.6996 4.02115 3.28782 2.02302 
3.25761 4.97195 2.37261 -0.00783801 4.04007 2.01414 -0.0253116 4.68207 2.72378 
4.3357 3.80534 2.94927 1.11742 2.95107 3.27435 4.6035 1.19564 2.46181 
1.90301 4.86451 2.90301 0.233886 2.72676 3.783 0.783306 2.3681 2.22249 
4.62157 2.4442 3.21087 0.229918 3.64538 3.50396 3.89027 0.573147 3.45634 
1.32435 3.76979 3.80523 0.948153 4.80222 2.68145 0.696172 4.49429 3.57184 
2.76594 4.86677 3.46694 3.35159 3.81209 3.14227 3.68543 3.38354 3.96669 
3.45819 4.03392 2.20113 4.01163 2.47199 3.96734 3.83343 2.98261 3.09286 
1.97332 0.818409 2.04662 4.36814 4.43443 2.20261 4.79192 1.46846 3.37821 
4.91729 0.539918 3.96853 4.89796 4.57649 3.15603 1.75835 1.40185 5.75921 
2.16258 1.60551 4.66414 3.98967 1.50017 4.20934 3.85102 1.99105 5.13774 
3.41168 0.14299 5.35895 4.08604 0.111918 4.88647 0.57873 1.16887 5.33132 
2.63002 0.936578 4.91575 2.92199 2.52293 5.53244 3.0008 3.36084 5.94348 
1.38734 1.4473 5.02278 0.948566 0.334753 4.11543 2.39855 3.56819 4.29116 
2.50039 4.1178 5.5893 2.30848 4.54388 4.35153 3.28494 2.87958 4.70625 
2.38325 3.21512 5.16819 3.065 1.9085 4.75036 2.03362 2.69863 5.92207 
1.27655 2.00352 5.85025 0.19804 0.0346782 4.43232 1.62725 1.93589 4.18145 
1.83113 2.42262 4.99834 2.64073 1.64861 5.62235 0.82978 1.4433 4.36059 
4.92227 2.1651 4.08345 0.975503 0.485357 5.17248 0.10024 1.95618 4.36928 
1.51168 3.2549 4.61801 0.862055 2.18573 5.07862 1.55403 3.95618 5.80205 
0.348579 2.87955 4.75103 4.54147 2.65435 4.81004 0.604547 3.79065 4.48756 
4.85071 3.35806 5.60113 3.62668 4.97994 4.32787 1.239 3.02847 5.53309 
3.19006 3.79967 4.9531 3.89561 2.82042 5.61552 0.55249 4.83763 4.482 
4.23022 1.67637 5.91621 4.6589 0.660918 5.38792 4.66233 1.66965 4.92412 
3.13698 4.16775 4.04397 1.53516 4.4188 4.93186 3.27484 4.68765 5.28816 
4.05272 4.73569 5.87426 0.645539 4.40658 5.34497 1.07514 2.52654 4.15915 
4.03104 4.11287 4.52694 0.465775 3.56176 5.76105 3.91906 3.78253 5.63495 
4.70068 4.45447 5.17387 4.82319 3.58965 4.70602 4.90479 4.28523 4.06836 
2.40196 1.78441 7.76867 1.28586 0.548871 6.03045 2.19401 0.941811 6.21559 
1.1027 0.203243 7.79103 4.5511 3.76538 7.44694 3.94883 0.805358 6.01969 
2.4972 3.37522 6.79014 0.89569 1.92457 7.69579 2.58244 2.12458 6.43452 
2.56936 4.28964 7.19496 3.23613 2.06226 7.1667 0.949895 0.345935 6.85627 
1.75942 1.45746 6.66496 3.47115 2.88851 6.65978 3.59649 1.15024 6.85853 
1.97983 0.921124 7.4138 3.51169 2.08003 6.15357 0.583014 0.98543 6.3314 
1.48166 2.82982 7.48403 3.50139 2.86776 7.69963 1.36041 1.29088 7.47667 
2.81996 3.56386 7.74953 2.34994 2.55428 7.26407 1.224 2.02347 6.77754 
4.39103 3.09535 6.41267 2.31136 4.88788 7.95206 1.74767 3.76046 7.32795 
1.33416 2.94503 6.52984 0.836122 4.458 7.2895 3.3517 4.93075 7.55513 
0.322042 2.72715 6.19524 4.32296 0.230718 6.44848 4.22899 2.56582 7.18766 
3.59495 3.88453 7.18558 1.78377 4.9044 7.0724 4.80813 1.91589 6.89671 
4.24365 4.64984 7.25391 0.133372 4.86858 7.88817 1.06336 3.83004 6.62554 
0.0164058 2.38961 7.86871 0.424816 1.79811 6.14313 3.28353 4.44715 6.42806 
4.0729 1.9142 7.91129 4.34681 4.03952 6.489 0.460503 4.50982 6.31502 
0.708248 3.25773 7.8928 0.238113 3.42025 6.96853 0.601899 2.59523 7.12028 
4.9685 0.63655 7.69107 1.88525 0.367427 8.85574 3.62432 4.98853 9.01733 
2.58407 1.19189 9.67693 2.55924 1.72198 8.83033 1.06372 1.74483 9.87541 
2.80989 2.52347 9.27747 2.37683 3.90829 9.82155 2.12672 3.95658 8.21752 
1.27636 2.62188 8.38392 0.277434 0.112578 9.36745 1.88604 2.28187 9.89707 
1.89682 2.26725 8.95257 2.12855 3.19046 9.21783 3.85665 1.2573 9.14616 
3.71971 3.43268 8.42327 1.73472 1.34292 9.32023 3.37771 2.2627 8.50202 
2.74319 4.62635 9.26019 2.51373 2.63966 8.24459 1.64113 1.53063 8.35322 
2.75332 1.06406 8.29173 4.28605 4.06731 8.96875 2.86972 3.73522 8.83261 
3.69809 2.20539 9.4337 0.464138 1.52566 8.4396 1.40958 3.95921 9.66863 
1.32553 3.5149 8.79396 4.24949 0.252051 8.90768 4.57963 0.936835 9.61255 
0.23977 0.787932 9.90107 0.907149 4.52778 9.03753 0.0504198 3.46484 9.14813 
4.28543 2.88546 8.99853 3.46801 4.33781 8.31224 1.17035 4.1598 8.12824 
-0.0231073 4.4014 9.37359 4.4961 2.96656 8.02822 0.356104 1.9037 9.34086 
0.240727 4.09065 8.45581 2.10504 0.0771079 8.65324 0.389183 2.64972 8.74579 
-0.0258879 2.71783 9.72994 1.85803 4.66559 8.81073 1.22101 2.77196 9.37568 
4.60003 1.33195 8.47292 3.52266 3.33816 9.4551 3.75509 4.33419 9.75945 
4.61774 1.92878 9.39629 4.658 4.4366 8.13962 4.84864 3.49306 9.50382 
4.17495 5.87217 0.146759 0.85133 9.19715 0.963757 1.59019 7.23474 1.35442 
3.86571 7.00615 1.27483 2.55553 9.32991 1.07155 3.38263 6.05012 0.669032 
4.25232 9.67073 0.294927 2.94284 7.59506 1.17248 2.99378 6.27388 1.54466 
2.90554 5.25773 0.940975 2.18832 8.00541 1.64424 1.00787 8.91103 0.0200184 
2.06118 6.48394 1.79235 0.725453 7.27122 1.82036 0.877668 8.19444 1.43269 
1.9936 8.82888 0.272491 3.41635 8.63286 0.359343 1.71026 8.29238 0.967702 
3.30533 6.995 0.504965 2.40545 8.40465 0.0495295 0.739558 5.85595 0.328288 
3.80917 5.01607 0.503027 0.914258 7.02266 0.625899 1.1961 9.98281 1.4608 
3.79996 7.83064 0.719718 2.27964 5.94646 0.994634 2.53348 6.27376 0.0841179 
1.38376 5.43745 1.13757 0.137823 5.76844 1.11642 0.560191 7.87197 0.653566 
4.68651 7.72995 0.311606 4.78648 6.98602 1.82499 -0.0016253 6.97645 0.972984 
4.25624 6.8279 0.324517 4.22064 9.20066 1.05096 3.20723 7.08904 1.98752 
0.792484 6.36358 1.58453 4.27979 6.1258 1.1036 0.476682 5.27614 1.94386 
1.72024 5.65932 0.173082 0.202387 8.50371 1.79014 3.59365 5.50808 1.61326 
1.49191 6.35593 0.761693 2.78293 7.61377 0.0337731 4.52356 7.74951 1.36822 
4.51027 8.61418 1.05423 1.87412 7.52576 0.456642 1.94675 9.35741 1.83963 
3.9177 8.52527 1.81258 4.93509 6.04588 1.99946 3.72625 5.23634 3.19435 
4.30457 6.99641 2.65717 3.42675 6.6285 3.85801 2.42798 6.9616 2.56749 
3.81694 7.38619 3.38597 3.31356 6.71635 2.88567 4.47378 6.71715 3.62898 
1.43504 9.1435 3.2956 4.50267 5.16561 3.83378 4.26699 5.39827 2.33531 
2.61309 6.03723 2.95843 2.83128 7.88362 2.32064 3.86928 6.36387 2.01884 
0.148226 9.12932 2.41331 1.98784 7.46964 3.20531 2.03673 8.25098 2.6255 
0.941415 9.78913 3.17249 0.816009 9.37265 2.38729 -0.00335508 9.63213 3.97314 
2.51875 6.77962 3.59032 1.89536 9.97622 2.36973 0.938811 7.30596 3.03244 
1.76271 9.93132 3.34268 3.40275 8.19328 3.49654 2.56137 8.97574 3.71064 
1.54252 6.64075 3.58427 1.60378 6.42909 2.6537 3.13752 5.70115 3.83169 
4.07402 6.10792 2.9639 1.4911 8.53214 2.03421 4.78873 8.67086 3.47819 
0.540237 7.72526 3.7601 2.553 5.58436 2.09461 -0.0529149 7.03782 2.90748 
0.309286 8.55046 3.44766 0.884703 8.63116 2.57922 0.380967 7.8451 2.48998 
1.79305 5.69113 3.35302 1.1659 9.28121 2.10209 2.55726 8.20965 3.38213 
0.641874 6.46926 2.56316 1.38223 5.65671 2.09526 1.57659 7.41881 2.31658 
1.03021 5.66768 3.97808 3.7876 7.77392 2.45134 0.891666 5.66814 3.00725 
0.232533 6.1196 3.52848 0.0458057 5.19614 3.73039 0.144575 6.90228 3.99134 
1.45799 7.78326 3.88602 1.2809 8.28768 3.16161 4.51782 8.70499 2.56842 
4.75994 7.65635 3.4371 4.83872 9.43641 2.59168 4.77947 9.42297 3.66834 
4.78711 7.86028 2.46202 1.70409 8.29779 4.68308 4.34881 7.6357 5.25466 
2.13103 9.32841 4.36402 2.41419 6.09761 5.24836 2.79967 5.32916 4.7231 
2.89191 9.31229 4.78868 3.36107 9.03303 5.55382 1.88632 7.20453 5.76571 
4.56306 8.96856 4.72534 3.85038 9.46319 4.68991 3.55836 8.46986 4.59375 
2.72553 9.07747 5.848 2.30719 8.01267 5.33175 2.25003 5.95645 4.16568 
1.86817 7.09797 4.8252 2.72521 6.71825 4.55473 3.57882 8.32971 5.63972 
4.28354 6.36425 5.39852 4.07381 5.9776 4.10292 -0.0336923 7.40267 5.84783 
1.84877 5.34671 4.86325 4.17967 9.29944 4.10631 0.67291 6.80111 5.80999 
0.905839 5.96864 5.4354 1.98657 5.29371 5.97585 4.32303 5.4225 4.87107 
3.78194 5.682 5.9351 1.46044 6.20807 4.68441 1.02998 8.32173 5.41321 
0.462609 6.20002 4.55028 3.53331 6.84765 5.08107 4.16236 8.12893 4.04647 
3.37921 7.67889 5.14865 4.77699 5.38561 5.73016 0.645607 7.41185 5.0748 
0.91629 8.48735 4.45477 1.04869 7.00449 4.31034 2.32113 7.82068 4.29898 
[...]
POINT_DATA 1000
FIELD FieldData 7
id 1 1000 int
120 525 762 18 94 514 1000 8 117 
5 378 14 761 516 106 107 529 256 
244 732 280 798 868 91 183 609 135 
511 620 622 536 103 506 629 264 616 
223 626 734 41 650 672 157 119 364 
625 90 759 624 257 371 522 682 225 
503 801 502 39 555 531 251 6 136 
509 130 512 12 151 4 272 543 458 
896 144 527 19 941 517 528 668 915 
519 680 775 690 429 142 773 936 422 
965 907 919 675 641 646 95 647 510 
36 383 767 855 521 716 38 114 47 
204 813 708 542 127 546 187 848 937 
811 180 513 573 507 190 727 804 23 
594 539 591 518 37 839 827 243 824 
374 28 925 766 671 740 154 524 450 
570 200 16 678 928 168 657 418 820 
149 505 148 914 155 396 722 194 559 
778 583 596 217 227 203 80 209 385 
717 584 852 365 703 224 240 236 724 
606 234 201 66 618 611 206 2 551 
229 694 86 544 73 944 662 997 198 
134 216 116 713 152 838 233 649 480 
669 789 574 492 245 523 231 96 237 
17 267 138 640 637 998 619 635 226 
79 743 750 377 597 139 495 242 530 
7 485 248 279 104 774 232 607 504 
861 235 636 110 252 15 760 608 526 
867 754 585 380 670 587 579 278 673 
590 794 599 32 878 627 99 22 286 
651 341 803 800 676 63 592 145 113 
100 150 433 219 102 105 610 578 825 
330 221 321 82 797 122 453 605 807 
621 306 98 126 742 874 981 632 290 
552 752 112 404 174 687 160 699 401 
285 876 11 146 634 883 1 557 808 
575 823 569 695 287 443 336 162 353 
182 166 698 631 213 26 841 746 473 
337 821 830 171 9 50 815 175 153 
725 884 417 945 932 976 461 957 64 
792 785 196 887 712 193 577 189 214 
34 118 934 684 212 710 836 170 922 
208 723 156 178 438 463 720 733 303 
446 534 701 683 728 751 192 165 159 
709 181 705 971 197 188 576 686 700 
215 184 346 49 580 566 818 169 545 
48 67 31 704 665 520 652 586 601 
615 738 666 124 581 731 59 345 62 
595 850 628 55 604 613 550 729 561 
53 52 60 603 630 51 602 57 685 
143 715 692 185 538 567 600 644 757 
501 560 30 3 558 75 88 218 726 
77 493 65 81 563 78 72 571 140 
71 85 68 131 612 588 302 133 781 
753 76 498 877 562 745 614 617 289 
589 92 593 84 83 74 311 54 89 
989 362 387 755 882 21 916 430 771 
370 779 654 412 413 858 262 359 393 
13 266 389 911 361 20 25 642 895 
758 376 515 697 109 872 768 368 638 
770 903 854 871 853 373 333 832 659 
661 886 274 147 416 899 313 900 399 
893 402 873 405 425 910 508 920 423 
298 999 410 275 889 316 411 27 780 
905 431 540 434 921 973 291 990 269 
901 415 293 667 395 891 898 400 865 
366 456 814 392 777 553 909 439 369 
427 263 866 419 445 490 340 428 314 
930 61 172 992 783 837 817 805 335 
437 283 943 795 908 315 918 689 487 
548 449 268 435 250 549 894 933 679 
299 939 931 730 320 935 323 658 816 
465 161 737 913 205 718 822 995 388 
643 304 199 862 357 565 819 271 69 
851 129 249 238 239 384 123 354 348 
633 656 332 247 655 924 35 956 802 
56 318 310 677 406 42 317 572 43 
358 554 681 372 40 790 707 500 329 
125 749 97 258 863 360 284 786 756 
277 736 849 276 255 273 776 840 784 
772 787 270 137 764 488 259 869 856 
747 842 265 10 121 108 342 568 253 
382 846 339 195 598 845 379 763 835 
828 859 261 974 870 533 983 394 288 
881 674 982 489 880 24 254 420 115 
765 292 222 782 297 806 904 888 491 
44 906 994 967 328 375 964 791 282 
793 442 826 991 363 494 407 281 497 
483 833 857 996 810 481 45 367 541 
296 93 319 462 799 897 409 101 796 
421 301 788 260 532 940 912 938 33 
305 167 391 307 403 390 164 902 397 
890 452 386 535 294 309 408 454 885 
917 325 769 455 993 424 972 923 950 
809 693 440 447 210 948 970 58 719 
228 955 186 962 158 211 432 714 954 
464 338 457 177 469 942 741 460 556 
29 952 969 547 892 664 926 470 426 
436 927 960 179 929 448 202 691 451 
474 696 163 721 537 349 582 978 961 
322 220 479 958 459 468 350 988 486 
343 246 688 352 951 477 499 475 645 
959 472 173 331 949 496 829 312 946 
241 968 308 471 334 711 831 478 744 
444 987 986 191 476 843 706 466 326 
875 467 812 748 324 230 739 623 132 
834 648 735 985 347 984 864 128 879 
482 963 975 980 979 351 111 398 300 
141 381 356 660 355 46 977 947 295 
441 860 87 653 966 953 639 207 844 
702 564 663 484 70 344 327 414 847 
176 
type 1 1000 int
1 2 2 1 1 2 2 1 1 
1 1 1 2 2 1 1 2 1 
1 2 1 2 2 1 1 2 1 
2 2 2 2 1 2 2 1 2 
1 2 2 1 2 2 1 1 1 
2 1 2 2 1 1 2 2 1 
2 2 2 1 2 2 1 1 1 
2 1 2 1 1 1 1 2 1 
2 1 2 1 2 2 2 2 2 
2 2 2 2 1 1 2 2 1 
2 2 2 2 2 2 1 2 2 
1 1 2 2 2 2 1 1 1 
1 2 2 2 1 2 1 2 2 
2 1 2 2 2 1 2 2 1 
2 2 2 2 1 2 2 1 2 
1 1 2 2 2 2 1 2 1 
2 1 1 2 2 1 2 1 2 
1 2 1 2 1 1 2 1 2 
2 2 2 1 1 1 1 1 1 
2 2 2 1 2 1 1 1 2 
2 1 1 1 2 2 1 1 2 
1 2 1 2 1 2 2 2 1 
1 1 1 2 1 2 1 2 1 
2 2 2 1 1 2 1 1 1 
1 1 1 2 2 2 2 2 1 
1 2 2 1 2 1 1 1 2 
1 1 1 1 1 2 1 2 2 
2 1 2 1 1 1 2 2 2 
2 2 2 1 2 2 2 1 2 
2 2 2 1 2 2 1 1 1 
2 1 2 2 2 1 2 1 1 
1 1 1 1 1 1 2 2 2 
1 1 1 1 2 1 1 2 2 
2 1 1 1 2 2 2 2 1 
2 2 1 1 1 2 1 2 1 
1 2 1 1 2 2 1 2 2 
2 2 2 2 1 1 1 1 1 
1 1 2 2 1 1 2 2 1 
1 2 2 1 1 1 2 1 1 
2 2 1 2 2 2 1 2 1 
2 2 1 2 2 1 2 1 1 
1 1 2 2 1 2 2 1 2 
1 2 1 1 1 1 2 2 1 
1 2 2 2 2 2 1 1 1 
2 1 2 2 1 1 2 2 2 
1 1 1 1 2 2 2 1 2 
1 1 1 2 2 2 2 2 2 
2 2 2 1 2 2 1 1 1 
2 2 2 1 2 2 2 2 2 
1 1 1 2 2 1 2 1 2 
1 2 2 1 2 2 2 2 2 
2 2 1 1 2 1 1 1 2 
1 1 1 1 2 1 1 2 1 
1 1 1 1 2 2 1 1 2 
2 1 1 2 2 2 2 2 1 
2 1 2 1 1 1 1 1 1 
2 1 1 2 2 1 2 1 2 
1 2 2 1 1 2 1 1 1 
1 1 1 2 1 1 1 2 2 
2 1 2 2 1 2 2 1 2 
2 2 2 2 2 1 1 2 2 
2 2 1 1 1 2 1 2 1 
2 1 2 1 1 2 2 2 1 
1 2 1 1 2 1 1 1 2 
2 1 2 1 2 2 1 2 1 
2 1 1 2 1 2 2 1 2 
1 1 2 1 2 2 2 1 1 
1 1 2 1 1 1 1 1 1 
2 1 1 2 2 2 2 2 1 
1 1 2 2 2 1 2 2 1 
2 1 1 1 1 2 2 2 2 
1 2 2 2 1 2 1 2 2 
1 1 2 2 1 2 2 2 1 
2 1 1 2 1 2 2 1 1 
2 1 1 1 1 1 1 1 1 
2 2 1 1 2 2 1 2 2 
1 1 1 2 1 1 1 2 1 
1 2 2 1 1 2 2 1 1 
1 2 1 1 2 1 1 2 2 
1 2 2 1 1 1 2 2 2 
2 2 1 1 2 1 1 2 2 
2 2 1 1 1 1 1 2 1 
1 2 1 1 2 2 1 2 2 
2 2 1 2 2 2 2 1 1 
2 2 2 1 2 1 1 1 1 
2 1 1 2 1 2 2 2 1 
1 2 2 2 1 1 2 2 1 
2 1 2 2 1 1 1 1 1 
1 2 2 2 2 1 1 1 2 
1 1 1 1 2 2 1 1 2 
1 1 2 1 2 2 2 2 1 
1 1 1 1 1 1 1 2 1 
2 1 1 2 1 1 1 1 2 
2 1 2 1 2 1 2 2 2 
2 2 1 1 1 2 2 1 2 
1 2 1 2 1 1 1 2 2 
1 1 1 1 1 2 2 1 2 
1 2 2 2 2 2 2 1 1 
1 2 2 1 2 1 1 2 1 
1 2 1 2 2 1 2 2 2 
1 1 1 2 1 1 1 2 1 
1 1 2 1 2 1 1 1 2 
2 1 1 1 2 1 2 1 2 
1 2 1 1 1 2 2 1 2 
1 2 2 1 1 2 2 1 1 
2 1 2 2 1 1 2 2 1 
2 2 2 2 1 2 2 1 2 
1 2 2 2 2 1 1 1 1 
1 1 1 2 1 1 2 2 1 
1 2 1 2 2 2 2 1 2 
2 2 2 1 1 1 1 1 2 
1 
i 3 1000 int
0 0 0 0 0 0 0 0 0 
0 0 0 0 0 0 0 0 0 
0 0 0 0 0 0 0 0 0 
0 0 0 0 0 1 0 0 0 
0 0 0 0 0 0 0 0 0 
0 0 0 0 0 0 0 0 0 
0 0 0 -1 0 1 0 0 0 
0 0 0 0 0 1 0 0 0 
0 0 0 0 0 0 0 0 0 
0 0 0 0 0 0 0 0 0 
0 0 0 0 0 0 0 0 0 
0 0 0 0 0 0 0 0 0 
0 0 0 0 0 0 0 0 0 
0 0 0 0 0 0 0 0 0 
0 0 0 0 0 0 0 0 0 
0 0 0 0 0 0 0 0 0 
0 0 0 0 0 0 0 0 0 
0 0 0 0 0 0 0 0 0 
0 0 0 0 0 0 0 0 0 
0 0 0 0 0 0 0 0 0 
0 0 0 0 0 0 0 0 0 
0 0 0 0 0 0 0 0 0 
0 0 0 0 0 0 0 0 0 
-1 0 0 0 0 0 0 0 0 
0 0 0 0 0 0 0 0 0 
0 0 0 0 0 0 0 0 0 
0 0 0 0 0 0 1 0 0 
0 0 0 0 0 0 0 0 0 
0 0 0 0 0 0 0 0 0 
0 0 0 0 0 0 0 0 0 
0 0 0 0 0 0 0 0 0 
0 0 0 0 0 0 0 0 0 
0 0 0 0 0 0 0 0 0 
-1 0 0 0 0 0 0 0 0 
0 0 0 0 0 0 0 0 0 
0 0 0 0 0 0 0 0 0 
-1 0 0 2 1 0 0 0 0 
0 0 0 0 0 0 0 0 0 
0 0 0 0 0 0 0 0 0 
0 0 0 0 0 0 0 0 0 
0 0 0 0 0 0 0 0 0 
0 0 0 0 0 0 0 0 0 
0 0 0 0 0 0 0 0 0 
0 0 0 0 0 0 0 0 0 
0 0 0 0 0 0 0 0 0 
0 0 0 0 0 0 0 0 0 
0 0 0 0 0 0 0 0 0 
0 0 0 0 0 0 0 0 0 
0 0 0 -1 0 0 0 0 0 
0 0 0 0 0 0 0 0 0 
0 0 0 0 0 0 0 0 0 
0 0 0 0 0 0 0 0 0 
0 0 0 0 0 0 0 0 0 
0 0 0 0 0 0 0 0 0 
0 0 0 0 0 0 -1 0 0 
0 0 0 0 0 0 0 0 0 
0 0 0 0 0 0 -1 0 0 
0 0 0 0 0 0 0 0 0 
0 0 0 0 0 0 0 0 0 
0 0 0 0 0 0 0 0 0 
0 0 0 0 0 0 0 0 0 
0 0 0 0 0 0 0 0 0 
0 0 0 0 0 0 0 0 0 
0 0 0 -1 0 0 0 0 0 
0 0 0 0 0 0 0 0 0 
0 0 0 0 0 0 0 0 0 
0 0 0 0 0 0 0 0 0 
0 0 0 0 0 0 0 0 0 
0 0 0 0 0 0 0 0 0 
0 0 0 -1 0 0 0 0 0 
0 0 0 0 0 0 0 0 0 
0 0 0 0 0 0 0 0 0 
0 0 0 0 0 0 0 0 0 
0 0 0 0 0 0 0 0 0 
0 0 0 0 0 0 0 0 0 
0 0 0 0 0 0 0 0 0 
0 0 0 0 0 0 0 0 0 
0 0 0 0 0 0 0 0 0 
0 0 0 -1 0 0 0 0 0 
3 1 -1 0 0 0 0 0 0 
0 0 0 0 0 0 0 0 0 
1 0 0 0 0 0 0 0 0 
0 0 0 2 1 0 0 0 0 
0 0 0 0 0 0 0 0 0 
0 0 0 0 0 0 0 0 0 
0 0 0 0 0 0 0 0 0 
0 0 0 1 0 0 0 0 0 
0 0 0 1 0 0 0 0 0 
1 0 0 0 0 0 0 0 0 
0 0 0 0 0 0 1 0 0 
0 0 0 0 0 0 0 0 0 
1 0 0 0 0 0 0 0 0 
0 0 0 0 0 0 0 0 0 
0 0 0 0 0 0 2 0 0 
0 0 0 0 0 0 0 0 0 
0 0 0 0 0 0 0 0 0 
0 0 0 0 0 0 1 0 0 
0 0 0 1 0 0 0 0 0 
0 0 0 0 0 0 0 0 0 
0 0 0 1 0 0 0 0 0 
0 0 0 0 0 0 0 0 0 
0 0 0 0 0 0 1 0 0 
0 0 0 0 0 0 0 0 0 
0 0 0 0 0 0 0 0 0 
0 0 0 0 0 0 0 0 0 
1 0 0 0 0 0 0 0 0 
0 0 0 0 0 0 0 0 0 
-3 -1 0 0 0 0 0 0 0 
2 0 0 2 0 0 1 0 0 
0 0 0 1 0 0 0 0 0 
1 0 0 0 0 0 1 0 0 
0 0 0 0 0 0 0 0 0 
0 0 0 0 0 0 0 0 0 
1 0 0 0 0 0 1 0 0 
1 0 0 1 0 0 1 0 0 
0 0 0 1 0 0 0 0 0 
0 0 0 0 0 0 0 0 0 
0 0 0 0 0 0 0 0 0 
0 0 0 0 0 0 0 0 0 
0 0 0 0 0 0 0 0 0 
0 0 0 1 0 0 0 0 0 
0 0 0 0 0 0 0 0 0 
1 0 0 0 0 0 0 0 0 
1 0 0 0 0 0 0 0 0 
0 0 0 1 0 0 0 0 0 
1 0 0 0 0 0 0 0 0 
0 0 0 0 0 0 0 0 0 
0 0 0 0 0 0 1 0 0 
0 0 0 1 0 0 0 0 0 
0 0 0 0 0 0 0 0 0 
0 0 0 0 0 0 1 0 0 
0 0 0 0 0 0 0 0 0 
0 0 0 0 0 0 0 0 0 
1 0 0 0 0 0 0 0 0 
1 0 0 0 0 0 0 0 0 
0 0 0 0 0 0 0 0 0 
0 0 0 0 0 0 0 0 0 
0 0 0 1 0 0 2 0 0 
0 0 0 0 0 0 0 0 0 
1 0 0 0 0 0 0 0 0 
0 0 0 0 0 0 0 0 0 
1 0 0 1 0 0 0 0 0 
2 0 0 0 0 0 1 0 0 
0 0 0 0 0 0 0 0 0 
0 0 0 0 0 0 0 0 0 
0 0 0 0 0 0 0 0 0 
0 0 0 1 0 0 0 0 0 
0 0 0 0 0 0 0 0 0 
0 0 0 0 0 0 0 0 0 
0 0 0 0 0 0 0 0 0 
0 0 0 1 0 0 0 0 0 
0 0 0 0 0 0 0 0 0 
0 0 0 1 0 0 2 0 0 
0 0 0 0 0 0 0 0 0 
1 0 0 0 0 0 0 0 0 
0 0 0 0 0 0 0 0 0 
0 0 0 1 0 0 0 0 0 
0 0 0 0 0 0 0 0 0 
0 0 0 0 0 0 1 0 0 
0 0 0 0 0 0 0 0 0 
0 0 0 1 0 0 0 0 0 
1 0 0 0 0 0 1 0 0 
0 0 0 0 0 0 1 0 0 
1 0 0 0 0 0 0 0 0 
0 0 0 0 0 0 -1 -1 -1 
0 0 0 0 0 0 0 0 0 
0 0 0 0 0 0 0 0 0 
0 0 0 0 0 0 0 0 0 
0 0 0 0 0 0 0 0 0 
0 0 0 0 0 0 -1 0 0 
0 0 0 0 0 0 0 0 0 
0 0 0 0 0 0 -1 0 1 
-1 0 1 -1 0 0 0 0 0 
0 0 0 0 0 0 0 0 0 
0 0 0 0 0 0 0 0 0 
-1 0 0 0 0 0 -1 0 0 
-1 0 0 -1 0 1 -1 0 0 
0 0 0 0 0 0 -1 0 0 
0 0 0 0 0 0 0 0 0 
0 0 0 0 0 0 0 0 0 
0 0 0 0 0 0 0 0 0 
0 0 0 0 0 0 0 0 0 
0 0 0 0 0 0 0 0 0 
0 0 0 1 1 0 0 0 0 
0 0 0 0 0 0 0 0 0 
0 0 0 0 0 0 0 0 0 
0 0 0 0 0 0 0 0 0 
0 0 0 0 0 0 0 0 0 
-1 0 0 0 0 0 -1 0 0 
0 0 0 0 0 0 0 0 0 
0 0 0 0 0 0 -1 0 0 
0 0 0 -1 0 0 -1 0 0 
0 0 0 0 0 0 -1 0 0 
0 0 0 0 0 0 0 0 0 
0 0 0 0 0 0 0 0 0 
0 0 0 0 0 0 -1 0 0 
-1 0 0 0 0 0 0 0 0 
0 0 0 0 0 0 0 0 0 
0 0 0 0 0 0 -1 0 0 
0 0 0 0 0 0 -2 0 0 
0 0 0 0 0 0 0 0 0 
0 0 0 0 0 0 0 0 0 
0 0 0 0 0 0 0 0 0 
0 0 0 0 0 0 0 0 0 
0 0 0 -1 0 0 -1 0 0 
-1 0 0 0 0 0 0 0 0 
0 0 0 0 0 0 0 0 0 
0 0 0 0 0 0 0 0 0 
0 0 0 0 0 0 0 0 0 
0 0 0 -1 0 0 0 0 0 
0 0 0 0 0 0 0 0 0 
0 0 0 0 0 0 -1 0 0 
0 0 0 0 0 0 0 0 0 
0 0 0 0 0 0 0 0 0 
-1 0 0 0 0 0 0 0 0 
0 0 0 0 0 0 0 0 0 
0 0 0 0 0 0 0 0 0 
0 0 0 -1 0 0 -1 0 0 
0 0 0 0 0 0 0 0 0 
0 0 0 0 0 0 -2 0 0 
0 0 0 0 0 0 0 0 0 
0 0 0 0 0 0 0 0 0 
0 0 0 -1 0 0 0 0 0 
0 0 0 -1 0 0 0 0 0 
-1 0 0 0 0 0 0 0 0 
0 0 0 0 0 0 0 0 0 
-1 0 0 -1 0 0 0 0 0 
0 0 0 0 0 0 0 0 0 
0 0 0 0 0 0 0 0 0 
0 0 0 0 0 0 0 0 0 
0 0 0 0 0 0 0 0 0 
0 0 0 0 0 0 0 0 0 
0 0 0 0 0 0 0 0 0 
-2 0 0 0 0 0 0 0 0 
0 0 0 -1 0 0 0 0 0 
0 0 0 0 0 0 0 0 0 
-1 0 -1 0 0 0 0 0 0 
-1 0 0 -1 0 0 0 0 0 
0 0 0 0 0 0 0 0 0 
0 0 0 0 0 0 0 0 0 
0 0 0 0 0 0 0 0 0 
-1 0 0 0 0 0 -1 0 0 
0 0 -1 0 0 0 0 0 0 
-2 0 0 0 0 0 0 0 0 
0 0 0 1 1 0 0 0 0 
0 0 0 0 0 0 0 0 0 
0 0 -1 0 0 0 0 0 0 
0 0 0 0 0 0 0 0 0 
0 0 0 0 0 0 0 0 0 
0 0 0 0 0 0 0 0 0 
2 1 0 0 0 0 0 0 0 
0 0 0 0 0 0 0 0 0 
0 0 0 0 0 0 0 0 0 
0 0 0 0 0 0 0 0 0 
0 0 0 0 0 0 0 0 0 
0 0 0 -1 -1 0 0 0 1 
0 0 0 0 0 0 -2 -1 0 
0 0 0 0 0 1 0 0 0 
0 0 0 0 0 0 0 0 0 
0 0 0 0 0 0 0 0 0 
0 0 0 0 0 0 0 0 0 
0 0 0 0 0 0 0 0 0 
0 0 0 0 0 0 0 0 0 
0 0 0 0 0 0 0 0 0 
0 0 0 0 0 0 0 0 0 
0 0 0 0 0 0 0 0 0 
0 0 0 0 0 0 0 0 0 
0 0 0 0 0 0 0 0 0 
0 0 0 0 0 0 0 0 0 
1 0 0 0 0 0 0 0 0 
0 0 0 0 0 0 0 0 0 
-2 -1 0 1 0 0 0 0 0 
0 0 0 0 0 0 0 0 0 
0 0 0 0 0 0 0 0 0 
0 0 0 0 0 0 0 0 0 
0 0 0 0 0 0 0 0 0 
0 0 0 0 0 0 0 0 0 
0 0 0 0 0 0 0 0 0 
0 0 0 0 0 0 0 0 0 
0 0 0 0 0 0 0 0 0 
0 0 0 0 0 0 0 0 0 
0 0 0 0 0 0 0 0 0 
0 0 0 0 0 0 0 0 0 
0 0 0 0 0 0 0 0 0 
1 0 0 0 0 0 0 0 0 
-1 -1 0 0 0 0 0 0 0 
0 0 0 0 0 0 0 0 0 
0 0 0 1 0 0 0 0 0 
0 0 0 0 0 0 0 0 0 
0 0 0 0 0 0 0 0 0 
-2 -1 0 0 0 0 0 0 0 
0 0 0 0 0 0 0 0 0 
0 0 0 0 0 0 0 0 0 
0 0 0 0 0 0 0 0 0 
0 0 0 0 0 0 0 0 0 
0 0 0 0 0 0 0 0 0 
0 0 0 0 0 0 0 0 0 
0 0 0 0 0 0 0 0 0 
0 0 0 0 0 0 0 0 0 
0 0 0 0 0 0 0 0 0 
0 0 0 0 0 0 0 0 0 
0 0 0 0 0 0 0 0 0 
0 0 0 1 0 0 0 0 0 
0 0 0 1 0 0 0 0 0 
0 0 0 0 0 0 0 0 0 
0 0 0 0 0 0 0 0 0 
0 0 0 0 0 0 0 0 0 
0 0 0 0 0 0 1 0 0 
0 0 0 0 0 0 0 0 0 
0 0 0 1 0 0 0 0 0 
0 0 0 0 0 0 0 0 0 
0 0 0 0 0 0 0 0 0 
0 0 0 0 0 0 0 0 0 
0 0 0 0 0 0 0 0 0 
0 0 0 0 0 0 0 0 0 
0 0 0 0 0 0 0 0 0 
0 0 0 0 0 0 0 0 0 
0 0 0 0 0 0 0 0 0 
0 0 0 0 0 0 0 0 0 
0 0 0 0 0 0 0 0 0 
0 0 0 0 0 0 0 0 0 
0 0 0 0 0 0 0 0 0 
0 0 0 0 0 0 0 0 0 
0 0 0 0 0 0 1 0 -1 
0 0 0 0 0 0 0 0 0 
0 0 0 0 0 0 0 0 0 
0 0 0 0 0 0 0 0 0 
0 0 0 0 0 0 0 0 0 
0 0 0 0 0 0 0 0 0 
0 0 0 0 0 0 0 0 0 
0 0 0 0 0 0 0 0 0 
0 0 0 0 0 0 0 0 0 
0 0 0 0 0 0 0 0 0 
0 0 0 
v 3 1000 double
-16.704245892 15.298085156 -1.2974649462 -17.629188235 1.6500327662 -6.8975643287 -211.32928761 -7.8578438889 14.719287793 
-2.6956190352 13.213338739 6.4858230476 -8.3896496303 3.6245999374 -0.066269752056 -18.682859164 2.0681862113 -5.5864445827 
-3.3407211653 7.9182659172 -0.04922367185 1.185459202 9.0435632086 4.6826431066 -40.455870561 13.307022267 11.648639888 
-3.6876203604 0.60980241659 1.871808276 -13.75562757 0.51558516656 -1.198885454 -5.2332883383 9.2540739446 -0.39540333722 
-26.614080015 7.5951974345 2.9650789536 -83.120270623 3.3474438409 20.471051958 -1.6345309188 13.479269352 -0.70508721601 
-8.6050617692 11.1446983 -3.595484113 2.9229665022 17.59411657 5.577024196 -11.263891504 2.1979450507 1.5323815508 
-185.27975248 -21.520165748 9.18002428 -312.66661787 -7.7451062239 35.463077838 -28.49531042 9.4271808836 -0.37065829493 
-112.51695515 2.1002805219 5.1995918669 -8.3247002719 0.94610905257 2.6451166826 0.47895558083 -1.5713386749 -4.0318234286 
0.27065010616 10.966941002 -1.5612096421 -2.6528277036 0.4967489559 -3.6249671957 -7.2035322304 16.547068188 -1.961655498 
-9.5055120397 20.30476135 -0.035297979496 2.6454575225 6.7653680377 0.43526149065 -1.4686446209 1.1880149439 -0.43294620448 
-42.450491559 23.509670233 -2.3161098224 -7.007637035 3.8327007779 -4.2606081555 -21.57193735 26.580666623 -9.7899990086 
-10.001543461 19.885748645 1.73461965 0.60678764735 1.8581490462 -3.2773038168 0.51445521321 -3.7540563099 -0.9113494668 
-7.5738686064 11.039252985 0.47416765669 -7.2060870409 10.272985156 -0.79590803394 -1.6414834988 12.591009134 0.16024072299 
-25.877899669 -0.2156228365 3.6631443408 -7.5987754724 9.7131092293 -0.39202788148 -5.0103173219 14.347027388 -4.2647334971 
-3.6048864094 21.216861681 -4.1624607265 -2.2890219307 12.370260112 -1.4838409376 7.3513033387 8.9011070707 1.465726317 
-8.935744978 3.2612652206 -4.9112467548 -1.4203014667 5.9683133902 -6.765851554 -21.841371334 10.913208912 5.8478664674 
2.1133466514 -1.4116100254 -3.0009592574 -5.3606710487 4.5858802424 0.64731798704 -0.16035100761 5.1241265814 -1.461765123 
-3.2981957019 5.0481133846 5.4991886267 -5.5481055951 6.9180077827 -3.3686009776 -12.973350413 9.5932481282 4.4035820362 
-24.123533965 12.652315325 6.1820283844 -273.40847472 2.0071654832 -1.305462848 -17.777594325 7.826907252 -0.44366136701 
-123.87742014 -1.4671513552 -7.8797053167 0.20574555175 14.092362881 5.5647860123 -42.506785867 6.8321632929 0.77044684608 
-2.9209712414 3.0440238399 -1.3484926311 -10.192177427 20.741005151 2.4083971774 -12.180209783 14.241178904 -7.5222193057 
-40.056545772 2.7000042746 -11.536298666 -3.4484502649 16.459088922 -1.3124281899 -3.5998914469 2.7028989931 -4.7939072044 
-80.384052267 13.322194747 19.34834099 -1.5880724756 7.6255265033 -2.3429676222 -53.020907037 16.395872837 19.869178079 
-516.85695465 27.34829194 -15.413438062 -32.121552014 7.5175527731 -13.072676706 1.5846129382 0.68579071981 0.96910036816 
0.73757069963 4.2592516792 2.5276137995 -0.53423325708 13.068627766 4.2572404822 1.5406908398 0.37551591993 4.3794106232 
-9.4168771975 5.4431372598 -0.11810706921 -20.375819853 17.020984925 -10.064287943 -2.2487041844 10.280478662 3.4836791827 
-4.7538466199 6.4024558774 1.8493791371 -1.8070703554 7.0769712022 3.8035161192 0.23769976011 3.8779626237 4.3328099919 
-7.036631331 5.7326355189 -0.65329017285 -4.7560210427 4.7315095716 -3.2747117746 -54.652536978 2.277807651 -0.37237202082 
-0.44591351594 10.898136157 -1.8067876524 -12.344130903 6.3047693905 -7.1148286109 -11.126740854 11.99745698 -2.3753968987 
-11.371925965 2.4858696831 0.29592920102 -5.6931421882 7.5198014828 -0.44145216755 -229.13130914 11.542377583 28.857252326 
1.8347185736 2.2187923619 -0.89850567963 -0.27780650807 2.5524362344 0.58863854599 1.974388799 2.1377122621 0.75253600024 
-3.8535575996 6.1262701146 -3.5435130691 -4.0459377126 10.372344658 0.78862463813 1.0307966009 8.2781521879 -1.2062872501 
-2.7241774953 6.915375367 2.6493752708 -9.822391379 1.1029125026 1.9369126776 -8.5755289293 7.6541088899 -1.0398075441 
-210.19928988 43.975994825 0.48887851246 -0.85692046883 1.7318946119 -2.0086256624 -26.660328123 -3.0290681126 2.1910588841 
-224.15805472 22.763354585 4.1082643816 1.3711837746 0.70314742212 -2.8726187432 -54.278694425 7.8839930496 -14.394760401 
-33.850900854 27.203466303 14.498962372 -10.956130422 -2.0519279077 -2.771425303 -33.961048268 16.633117796 -15.203216978 
-231.46395153 -12.282354801 1.1831272629 -498.03055241 28.228092666 4.276311405 -47.166473845 19.056352653 9.9581702039 
-82.117001223 -11.254595009 -9.8356581449 -1.6757008279 19.049434511 -2.6544675674 6.2190486317 17.875002163 -1.8193907777 
-46.168202338 8.404516811 -5.8191122932 -280.53452707 0.20168230387 7.7395257537 -0.91015973553 11.757356233 -2.9810381857 
-2.6135056459 12.49660141 4.0180865655 -0.69465205185 7.5136589114 2.7955221163 -2.8871938924 6.3854753637 -5.0257646421 
-7.7842287757 23.942096944 3.3023303771 -35.835752254 6.0299256077 -2.7777781856 -5.1628403194 10.935663728 -4.0743154189 
-28.660388426 39.916086676 -0.42467169474 -285.09334112 -10.193360299 18.517730904 -33.096268728 25.241065417 0.068346930337 
-10.524880897 18.64411584 18.347186797 -42.932272998 12.988755422 -7.9874072583 -42.956671561 -6.7426052373 -14.239998682 
-10.161799765 6.6015283833 2.8462224664 -147.6849078 -26.169285203 -19.718885436 -29.113464311 15.295665715 4.0777407791 
2.0184147819 8.8145502703 -1.0256428565 -17.328460542 14.708929118 -19.996730531 -3.1768068231 6.5417308578 1.1763089277 
-17.739160266 16.97940235 -4.6979868423 -6.5289031329 9.8086704391 2.8118364239 1.7459664709 12.463594889 -2.2745117215 
-6.6087356656 16.098224133 -2.3156873386 -1.74476017 9.034064158 -2.7801177597 -8.6182876059 5.9105361579 -4.7931753841 
-3.3458035492 8.653700894 1.4203960173 -3.7451334876 6.7870473427 -1.5608641521 1.3819189578 3.018107125 -0.10804068331 
-42.861281825 14.155577883 4.9397262903 -226.64230065 25.908338862 2.9850251702 -41.874488189 3.348484639 -1.3358937767 
-1.2586736871 9.0025536082 0.31753634428 -2.7702441986 -0.58073462477 -0.99203647581 -0.63164304353 9.5968834708 4.4441978511 
1.4786099117 2.8153469994 -0.59367680808 -1.5862340666 10.072210121 1.4570815476 -22.719450585 22.919540896 2.3714490923 
-1.4150602148 7.981732181 2.7359529013 -1.8767585292 10.207593533 0.51643397729 -0.59599800345 7.2924328747 -2.5713743302 
1.7914474682 3.4087529645 0.663261399 2.3377557652 8.6792150944 -4.5957654272 -2.3070424163 6.5064928802 -4.1539629646 
-37.507171805 11.692774041 11.152026982 -150.75079208 -6.9436993022 -14.624962013 -130.25898679 -15.571529173 2.5031714167 
-254.75306679 27.731804551 -7.3159971917 -1.4750682893 7.2170147377 -3.3587508574 -175.34187903 8.3596365228 -7.7954591433 
-0.35935707412 19.455495516 -6.665044226 -31.357927039 24.225095842 11.743135441 -15.339362253 6.057567569 4.490077582 
-0.045742562757 2.9601621706 -3.221968435 -14.008598894 13.173515544 10.70808977 -321.4451025 -14.080224205 20.35670547 
-62.623369766 21.084397658 6.8749472244 -5.2530089211 12.311040649 3.8434591621 -143.88527894 10.840294396 23.89277437 
-81.098115202 -16.953754021 19.003654715 -24.894421371 14.702877478 4.8766261145 -65.823896739 11.997047017 5.2889306141 
-10.493488773 8.8518919258 -1.6900630681 -14.911096982 16.564960136 2.6605056772 -70.012048964 -2.6020554663 14.820694338 