# vtk DataFile Version 4.2
Generated by LIGGGHTS
ASCII
DATASET POLYDATA
POINTS 1000 float
4.65417 0.915014 0.173472 2.10721 2.82204 1.3996 0.669108 0.977446 0.355467 
1.84671 3.79877 1.92206 3.43696 0.620298 1.08657 3.16162 1.85366 0.869386 
3.90211 4.52687 0.838351 0.744078 1.76925 1.3498 1.69359 1.99928 1.2233 
3.83593 4.33736 1.95088 1.27128 2.70606 1.45379 0.289525 1.70429 0.30668 
1.02755 2.65919 0.581261 2.35464 3.57185 0.667087 1.45847 0.944049 0.688055 
3.3145 2.58086 1.39074 0.406225 0.870472 1.44287 4.81709 4.4884 1.69154 
1.30733 1.23117 1.46156 1.51569 0.175666 0.505417 0.690922 0.340832 1.64558 
0.740968 4.03409 0.808187 1.46703 3.54377 1.05062 0.0989403 4.36677 0.210144 
0.435965 2.78526 1.80311 3.14606 3.67506 1.2199 4.24696 3.13061 0.737645 
-0.0246402 4.15682 1.20761 4.72987 1.86857 1.46772 3.43193 1.28203 0.610604 
1.19187 4.51764 1.68017 2.74968 4.5709 0.576057 1.39251 3.63777 0.0632204 
3.06403 4.62174 1.44726 0.660753 3.75389 1.98195 2.08276 4.5848 1.30157 
4.24174 2.33022 0.0962557 -0.0435276 4.7679 1.84776 4.04499 2.02501 0.918023 
3.39751 2.99511 0.567649 2.50917 0.304499 1.90546 3.84202 3.35292 1.77306 
2.7147 2.01861 1.97343 1.52276 4.61856 0.497936 4.64962 4.36719 0.0310952 
4.72918 4.00372 0.893735 4.794 3.39721 1.65938 2.12792 0.598898 3.7362 
0.13254 1.95002 3.08626 2.05801 1.33859 3.09649 1.19594 2.2027 2.14445 
4.41428 4.6756 2.67504 2.45825 2.84786 3.10967 2.87091 1.39208 3.45281 
0.91139 2.14567 3.90664 2.83471 4.95132 2.28932 1.35854 1.89908 2.78963 
3.0128 2.55826 2.75175 2.03867 3.68144 3.31686 2.00085 1.69946 3.94095 
4.82701 3.55435 3.05066 4.00137 3.06751 3.34976 0.110077 0.55811 3.5743 
1.54885 3.03078 2.5684 3.91305 2.1989 3.71732 2.08559 2.27621 2.31099 
3.43523 0.908682 3.84235 3.17435 3.04222 3.83545 0.745328 1.28118 3.0482 
2.96094 3.06212 2.11735 3.38661 1.42484 2.50316 1.47097 1.24632 2.36487 
2.28916 0.56003 2.68448 2.7489 2.19574 3.60901 4.47055 4.20599 3.55102 
1.20923 3.59284 3.897 0.846796 3.48958 2.91277 4.22468 2.33526 2.04419 
0.811099 4.29387 3.35581 1.58083 4.38031 2.6553 4.38449 3.00195 2.45594 
3.21021 3.71322 3.14608 2.02819 4.70258 3.49324 3.58827 2.15997 2.80901 
2.94878 4.65624 3.20285 3.78934 4.75934 3.64128 2.92194 3.96894 3.98553 
3.50475 0.0172086 3.03254 0.533949 2.75703 3.43003 0.588689 4.61759 2.5057 
2.91493 4.00136 2.27331 0.0311101 3.99148 3.80124 3.99621 3.79619 2.70697 
1.20814 2.04265 5.69144 0.455052 1.17575 5.55832 1.90936 1.97741 5.33827 
4.05872 3.62344 5.0731 4.23709 4.60007 5.4225 2.84159 2.78234 5.3582 
0.144589 0.228196 5.91496 0.931484 2.60585 4.70712 2.57042 1.86721 4.83862 
2.41498 4.27287 5.22494 4.08913 3.78893 5.98907 2.74036 0.649257 4.51522 
2.18447 3.34539 5.11173 2.74687 1.64616 5.58853 0.920097 1.762 4.81805 
4.55852 1.8383 4.54794 2.24598 3.19932 4.13089 2.06831 4.12476 4.32619 
4.13592 2.64718 5.10589 2.26258 2.47183 4.56851 4.28354 3.16156 4.3005 
3.11438 3.49741 4.76788 0.226227 1.06906 4.38328 2.71858 1.42517 4.28409 
0.630951 3.87379 4.63902 0.0611382 1.82172 5.15079 1.43198 3.41312 5.7324 
1.30534 4.64204 4.12818 0.408754 4.74632 4.36388 3.65932 1.65078 4.93387 
3.42881 2.63572 4.64028 3.35995 4.373 5.05878 4.61077 2.58219 5.92443 
4.20569 4.35609 4.44843 0.137759 2.8277 4.40108 3.83458 0.825683 4.96398 
3.6066 1.76546 5.90842 0.579976 4.57071 5.30419 1.44058 4.18428 5.13859 
3.72278 2.85674 5.94258 3.10363 4.87955 4.26853 4.56975 0.951641 4.22475 
0.492137 2.66824 5.53211 3.10946 3.53197 5.99792 2.14756 3.03695 6.04297 
1.28568 2.33206 7.69014 3.94886 2.60753 7.4562 1.01328 2.6258 6.12146 
3.99456 4.28877 7.80473 2.00323 1.69926 7.6384 0.767313 1.81302 6.65129 
1.77028 1.90766 6.77255 1.41009 0.610218 7.30045 2.84728 2.59595 6.24496 
2.14272 4.05703 6.07835 2.08475 3.84507 7.51042 2.654 3.81748 6.75219 
2.95181 3.49114 7.50359 2.42417 1.34393 7.24949 3.05469 1.0961 6.61254 
1.45056 2.91577 6.85849 0.214879 0.701732 7.75906 3.8031 4.0061 6.90909 
2.57898 1.72222 6.39863 4.40125 4.92896 6.59728 0.411278 1.40813 7.36792 
2.32871 2.91032 6.93697 2.11704 2.51397 7.69968 1.02972 1.05973 6.39951 
0.267061 3.74268 6.88436 3.51861 4.44263 6.077 0.569994 3.51752 6.0214 
0.949778 4.04888 7.53366 0.265107 4.41802 6.16156 0.256878 2.23793 6.49045 
0.275326 4.86963 7.68522 -0.0141552 3.9594 7.74003 2.70725 4.76466 6.79291 
4.31827 2.02174 7.80847 3.83393 1.61513 7.03526 4.48524 3.17291 6.6485 
4.00139 0.812936 7.63159 1.18688 4.89425 7.9503 3.51191 3.13257 6.82436 
1.86124 4.74721 7.28618 4.6009 3.7313 7.42299 0.254056 2.08752 7.46939 
3.37255 2.22531 6.73822 1.35705 4.52647 6.05015 3.71948 3.29325 7.80812 
0.840507 4.70387 6.85967 4.74714 4.1018 6.57483 0.875429 3.10307 7.58071 
1.4396 3.8424 6.72697 3.39653 4.88397 7.43737 3.93521 3.69926 9.53658 
1.30982 2.80373 9.09855 2.8352 1.96783 9.23763 2.29565 3.71897 9.69731 
3.05437 3.38742 9.87669 2.22879 0.72719 9.8255 1.311 1.63579 8.17506 
3.32127 1.61362 9.95509 2.23734 4.5677 8.14651 0.0520808 1.15458 8.90183 
3.76439 0.346745 8.50932 1.06687 0.89571 8.54096 0.0473437 1.7393 8.30412 
0.119095 0.0619608 8.38688 2.27748 3.84442 8.74371 2.00859 2.23567 8.70521 
4.13106 4.60054 8.84098 2.22789 2.81478 9.39892 2.2683 3.18822 8.1242 
2.38922 0.0970034 9.43756 3.09533 2.58776 8.47065 3.22328 4.31827 9.785 
4.39538 1.14911 8.98505 0.469234 2.5867 9.81807 4.07952 1.30331 9.8262 
1.94586 4.46991 9.40176 1.46427 3.64943 8.2429 1.00298 4.43114 9.70134 
3.74061 2.04633 8.56209 3.15709 3.61263 8.96755 0.41043 3.5468 9.97841 
4.75245 3.54814 8.31582 3.60865 1.25906 9.12971 1.39098 4.90119 8.89343 
0.204289 4.64618 9.26209 0.661039 4.19405 8.46244 3.14853 0.563887 8.57957 
3.87662 1.28124 8.26255 3.17349 4.75917 8.9522 0.687238 2.50815 8.35369 
3.96265 3.72443 8.55384 4.60162 2.21516 9.18581 3.10683 4.22739 8.13215 
4.25053 2.98252 9.02882 3.47945 2.59478 9.6804 0.590373 3.31961 8.90429 
4.8961 4.96638 9.31647 4.73094 0.700193 9.41457 4.81827 1.84674 9.97192 
4.77914 3.45443 9.84404 4.81901 2.68546 8.29262 4.8713 4.04676 9.07218 
4.8354 4.47521 8.13992 4.03642 7.00022 0.0235418 4.55896 6.58045 1.46009 
1.82346 8.11219 1.22107 0.158527 9.24294 0.715141 1.36735 6.7245 1.06067 
3.97396 9.14988 1.20305 4.37043 8.80796 1.97429 0.962006 9.94004 1.50487 
2.09359 7.3752 1.80235 2.78036 8.40649 0.493625 2.78786 9.21544 0.360622 
0.798539 7.09206 0.433982 4.14805 7.84446 1.69466 3.42385 8.81142 0.279191 
2.2667 6.68169 0.512089 2.89048 6.54567 1.19584 4.07744 9.99877 1.53811 
3.22933 9.00645 1.28909 1.17015 9.38013 1.09171 3.15751 6.73877 0.213519 
2.96601 5.8268 0.639139 3.83556 5.50445 0.757047 3.80693 6.49363 0.887337 
2.83174 8.40472 1.94912 2.21413 5.15016 0.0648128 1.84569 8.23764 0.191412 
4.42709 5.21928 1.48076 -0.00805602 5.69452 1.76352 0.358715 7.72977 1.71482 
0.825084 5.9275 1.40394 1.7696 6.02892 1.58715 2.01565 5.77625 0.723288 
0.188961 8.52938 1.44354 0.913683 7.18401 1.55215 1.73749 7.11102 0.00234248 
1.13211 5.93437 0.503182 2.34615 7.56541 0.69861 0.470283 5.2594 0.102771 
4.54095 9.96549 1.84854 3.56675 6.78939 1.84369 3.61389 7.7809 0.226345 
2.65447 5.63147 1.56342 0.157171 5.97679 0.719811 3.7361 5.55774 1.98002 
0.75976 5.03051 0.979978 2.2131 9.58146 0.130257 3.37943 7.4171 1.14608 
3.67103 9.79324 0.23081 3.43665 8.29949 1.13577 4.71775 6.64501 0.525409 
4.76025 5.64584 0.697111 4.85331 8.4578 1.84267 2.59145 6.61067 2.27949 
-0.0360876 8.50686 2.83968 2.2316 8.75822 3.49744 2.27064 9.54032 3.85309 
4.31194 7.3855 3.31951 2.80735 8.92953 3.01937 0.0130461 9.72122 2.30879 
2.28291 6.64598 3.39352 4.65222 5.74284 3.6641 2.15119 7.91996 3.38681 
0.0101394 6.25187 2.64088 1.16735 5.99089 3.61415 3.01527 5.85945 2.48001 
0.321239 5.03058 3.42356 1.21372 6.58504 2.07118 3.41789 9.11237 2.62702 
2.74356 9.20701 2.01808 3.7211 5.65504 3.97928 4.08542 6.52123 2.81744 
3.19881 6.62838 3.13959 0.810001 5.98473 2.72478 1.20315 9.16252 2.92949 
4.35092 9.87745 3.18305 0.60246 7.90752 3.4698 4.25324 8.32373 3.52179 
2.09173 5.65545 3.16395 3.43711 8.8031 3.63902 1.07515 5.36878 2.11836 
2.99134 5.64276 3.40339 1.67999 6.95166 2.88742 1.66129 7.60697 2.62201 
0.78743 6.73973 3.23304 1.55044 8.36983 2.66512 1.27775 7.47132 3.66424 
0.176481 5.9367 3.50063 -0.0273206 7.15649 3.34604 3.85783 7.41313 2.55314 
4.77029 8.87447 2.73304 1.99824 5.30365 2.23524 0.473967 7.1163 2.45846 
1.22623 5.17177 3.08215 1.73285 6.13546 2.54715 3.50173 8.07235 2.05308 
3.88041 8.39503 2.78795 3.97981 5.4887 2.97681 4.03204 9.2963 2.26626 
4.14166 6.51914 3.77979 4.93606 5.53779 2.59125 4.87652 6.45625 2.34588 
2.41417 8.13375 5.33321 4.0207 7.08406 5.94536 1.42117 5.99301 5.6672 
2.61332 9.31114 5.82023 2.94308 9.13115 4.65782 3.05053 6.25262 5.14111 
2.79719 5.78171 4.35681 -0.0850583 9.33446 5.40235 4.12569 7.14759 4.45272 
4.66617 7.72917 5.4273 2.57953 8.46064 4.19852 3.35733 5.3474 5.12101 
2.83107 7.68816 5.95985 4.19584 5.48546 5.87435 3.22379 7.11889 5.55784 
2.25168 9.78678 4.85817 4.67856 7.01534 5.15849 2.89256 7.03377 4.71575 
3.15297 6.67828 4.02579 0.570425 6.5006 4.13706 4.10238 7.92374 5.53348 
1.84951 7.13077 4.06485 0.345158 6.51263 5.72611 4.65664 9.83053 4.52847 
3.73734 8.51603 4.40957 3.50349 7.65288 4.34303 2.24983 5.03306 4.7327 
-0.0148135 5.27482 5.06619 2.80837 7.76923 4.34751 4.56166 8.74913 5.30894 
1.8778 5.49375 4.04558 4.80481 6.1977 5.30433 1.07309 7.2436 4.54962 
1.27212 5.20344 4.97683 2.08123 8.84585 5.06124 3.95979 6.1967 4.76921 
2.15059 7.15754 5.13664 1.17654 8.4489 4.32337 1.53918 7.9594 5.07054 
2.18674 5.63678 5.49443 1.61343 6.30763 4.44415 0.883367 6.33531 4.99262 
4.21764 5.2632 4.71168 2.80917 5.00314 5.8624 4.87265 8.02853 4.08539 
2.22144 6.15546 7.75653 2.2573 9.85526 7.78655 3.19221 9.92874 7.66152 
2.64387 7.06316 7.64934 4.59456 6.82479 6.91433 2.00166 8.45512 6.09689 
1.72977 7.59055 6.028 3.4458 5.4625 6.66622 3.41117 6.51167 7.15034 
1.79828 8.46041 7.08262 4.29164 7.67761 6.64437 2.18063 7.01368 6.81907 
2.22146 7.81972 6.88144 2.87557 6.15638 6.04859 2.64135 5.48552 7.39221 
[...]
POINT_DATA 1000
FIELD FieldData 7
id 1 1000 int
777 275 289 362 553 798 364 19 41 
371 514 1 916 370 272 323 259 853 
515 713 801 264 529 622 106 871 223 
103 759 775 616 100 373 98 383 99 
758 896 15 256 492 430 672 90 89 
832 697 200 280 437 629 408 8 508 
187 746 899 434 865 539 680 901 114 
522 767 716 487 943 786 973 32 277 
205 23 898 519 389 142 641 528 517 
891 171 117 112 521 396 813 291 95 
11 646 889 554 837 16 161 435 229 
467 820 839 155 318 855 445 995 944 
509 905 678 740 555 773 243 246 805 
251 201 428 180 450 123 647 914 548 
268 429 269 69 446 154 524 527 785 
503 500 314 236 743 190 568 656 42 
203 800 513 43 662 40 354 335 591 
384 241 317 399 657 360 480 86 209 
66 116 148 551 824 206 504 544 80 
640 633 649 253 618 329 73 358 195 
332 811 310 611 924 565 152 60 379 
380 776 760 661 762 224 232 563 61 
24 125 956 823 835 526 54 868 859 
733 722 598 787 274 523 585 670 609 
388 846 361 265 129 608 104 607 267 
644 574 772 849 258 342 756 869 597 
564 895 485 511 863 840 677 541 578 
825 821 219 121 244 488 221 285 729 
398 582 63 983 420 4 37 655 330 
113 621 44 45 92 306 102 403 782 
791 807 674 830 341 296 881 994 109 
797 906 367 183 394 610 620 140 133 
975 77 321 599 826 440 809 949 538 
174 337 199 452 698 788 397 465 175 
458 386 575 33 922 309 455 915 970 
36 294 836 932 804 91 447 912 153 
401 880 693 902 288 923 179 690 815 
675 907 552 167 417 26 938 146 319 
892 188 460 724 576 472 725 545 942 
684 981 720 48 652 197 780 952 954 
184 917 345 557 664 283 210 165 322 
962 346 124 432 728 469 961 958 955 
303 454 988 534 696 457 214 168 712 
111 998 715 562 349 433 875 613 475 
463 602 986 948 476 604 676 173 62 
444 334 468 977 911 478 474 336 51 
482 191 601 886 57 350 331 989 838 
691 493 324 218 143 581 566 588 741 
71 860 79 414 176 980 630 739 305 
74 128 632 558 561 997 747 70 84 
93 484 963 381 537 486 501 88 663 
477 145 68 639 560 742 72 844 953 
254 861 603 834 85 669 141 156 83 
9 76 628 495 770 910 273 94 279 
231 120 659 654 376 1000 771 873 755 
278 543 650 761 734 262 107 626 130 
882 416 313 982 393 990 135 13 368 
378 119 359 784 638 18 147 108 872 
249 293 5 21 157 222 636 642 271 
196 496 490 999 431 900 257 402 6 
14 689 965 250 525 897 400 395 806 
411 925 266 263 405 439 876 136 941 
410 531 366 512 913 419 423 144 893 
151 921 425 369 667 866 936 867 854 
409 510 456 25 682 316 731 392 668 
12 799 814 714 937 718 298 47 920 
39 502 717 783 127 827 930 727 908 
340 260 315 939 615 817 573 933 518 
679 436 158 374 304 52 737 570 816 
320 240 299 449 225 594 894 546 137 
507 928 852 418 766 750 385 918 348 
242 27 730 764 245 703 35 505 572 
216 580 795 270 828 406 845 238 365 
822 790 372 929 352 848 498 134 584 
935 681 596 234 583 343 802 97 829 
702 198 658 357 312 28 2 38 217 
789 542 851 292 276 233 635 587 862 
228 235 255 768 536 870 239 10 736 
227 34 413 247 637 387 17 237 96 
351 856 226 888 506 763 339 779 754 
819 774 56 643 625 138 992 139 974 
7 530 261 864 619 559 623 606 382 
842 407 810 634 491 765 333 972 984 
483 132 592 325 808 590 996 115 284 
64 494 751 82 627 673 3 300 290 
778 879 126 878 577 857 441 328 600 
651 793 903 453 967 162 617 605 624 
957 302 858 22 874 363 442 964 887 
841 792 748 993 390 101 723 569 919 
885 796 213 704 422 833 884 169 248 
58 699 301 950 160 732 164 427 421 
307 404 904 769 473 461 883 462 438 
163 182 159 890 122 631 297 50 497 
752 166 931 687 470 186 850 516 211 
412 686 719 252 20 212 540 959 705 
426 424 194 968 391 170 586 448 695 
549 708 700 692 909 533 208 149 181 
204 338 451 192 415 556 978 189 969 
940 59 178 215 202 471 443 701 976 
927 193 671 945 710 971 547 353 459 
934 287 781 535 951 230 308 738 966 
464 711 295 666 172 326 571 812 46 
55 466 220 987 688 757 31 831 177 
118 926 589 946 721 53 614 665 706 
685 843 499 595 67 707 550 653 185 
520 744 683 327 49 645 709 29 207 
131 81 803 286 489 726 87 753 355 
877 375 75 749 150 660 347 794 311 
78 377 282 847 735 991 479 985 612 
567 30 344 745 818 947 481 648 105 
356 532 110 960 593 979 579 65 281 
694 
type 1 1000 int
2 1 1 1 2 2 1 1 1 
1 2 1 2 1 1 1 1 2 
2 2 2 1 2 2 1 2 1 
1 2 2 2 1 1 1 1 1 
2 2 1 1 1 1 2 1 1 
2 2 1 1 1 2 1 1 2 
1 2 2 1 2 2 2 2 1 
2 2 2 1 2 2 2 1 1 
1 1 2 2 1 1 2 2 2 
2 1 1 1 2 1 2 1 1 
1 2 2 2 2 1 1 1 1 
1 2 2 1 1 2 1 2 2 
2 2 2 2 2 2 1 1 2 
1 1 1 1 1 1 2 2 2 
1 1 1 1 1 1 2 2 2 
2 1 1 1 2 1 2 2 1 
1 2 2 1 2 1 1 1 2 
1 1 1 1 2 1 1 1 1 
1 1 1 2 2 1 2 2 1 
2 2 2 1 2 1 1 1 1 
1 2 1 2 2 2 1 1 1 
1 2 2 2 2 1 1 2 1 
1 1 2 2 2 2 1 2 2 
2 2 2 2 1 2 2 2 2 
1 2 1 1 1 2 1 2 1 
2 2 2 2 1 1 2 2 2 
2 2 1 2 2 2 2 2 2 
2 2 1 1 1 1 1 1 2 
1 2 1 2 1 1 1 2 1 
1 2 1 1 1 1 1 1 2 
2 2 2 2 1 1 2 2 1 
2 2 1 1 1 2 2 1 1 
2 1 1 2 2 1 2 2 2 
1 1 1 1 2 2 1 1 1 
1 1 2 1 2 1 1 2 2 
1 1 2 2 2 1 1 2 1 
1 2 2 2 1 2 1 2 2 
2 2 2 1 1 1 2 1 1 
2 1 1 2 2 1 2 2 2 
2 2 2 1 2 1 2 2 2 
1 2 1 2 2 1 1 1 1 
2 1 1 1 2 1 2 2 2 
1 1 2 2 2 1 1 1 2 
1 2 2 2 1 1 2 2 1 
1 2 2 2 1 2 2 1 1 
1 1 1 2 2 1 1 1 1 
1 1 2 2 1 1 1 2 2 
2 1 1 1 1 2 2 2 2 
1 2 1 1 1 2 2 2 1 
1 1 2 2 2 2 2 1 1 
1 1 2 1 2 1 2 1 2 
1 1 1 2 2 2 1 2 2 
1 2 2 2 1 2 1 1 1 
1 1 2 1 2 2 1 1 1 
1 1 2 2 1 2 2 2 2 
1 2 2 2 2 1 1 2 1 
2 1 1 2 1 2 1 1 1 
1 1 1 2 2 1 1 1 2 
1 1 1 1 1 1 2 2 1 
1 1 1 2 1 2 1 1 1 
1 2 2 1 2 2 1 1 2 
1 2 1 1 1 1 2 1 2 
1 2 1 2 2 1 1 1 2 
1 2 1 1 2 2 2 2 2 
1 2 1 1 2 1 2 1 2 
1 2 2 2 2 2 1 1 2 
1 2 2 2 1 2 2 2 2 
1 1 1 2 2 2 2 2 2 
2 1 1 1 1 1 2 2 2 
1 1 1 1 1 2 2 2 1 
2 2 2 1 2 2 1 2 1 
1 1 2 2 1 2 1 2 2 
1 2 2 1 2 1 2 1 1 
2 2 1 2 1 2 1 1 2 
2 2 2 1 2 1 2 1 2 
2 1 2 1 1 1 1 1 1 
2 2 2 1 1 1 2 2 2 
1 1 1 2 2 2 1 1 2 
1 1 1 1 2 1 1 1 1 
1 2 1 2 2 2 1 2 2 
2 2 1 2 2 1 2 1 2 
1 2 1 2 2 2 2 2 1 
2 1 2 2 1 2 1 2 2 
1 1 2 1 2 2 2 1 1 
1 1 2 1 2 2 1 1 1 
2 2 1 2 2 2 1 1 2 
2 2 2 1 2 1 2 2 2 
2 1 2 1 2 1 1 2 2 
2 2 2 2 1 1 2 2 2 
2 2 1 2 1 2 2 1 1 
1 2 1 2 1 2 1 1 1 
1 1 2 2 1 1 2 1 1 
1 1 1 2 1 2 1 1 1 
2 1 2 2 1 1 2 2 1 
1 2 2 1 1 1 2 2 2 
1 1 1 2 1 1 2 1 2 
2 2 2 2 2 2 1 1 1 
1 1 1 1 1 2 2 1 2 
2 1 1 1 1 1 1 2 2 
2 1 2 2 2 2 2 1 1 
2 1 2 2 2 1 1 2 2 
1 2 1 2 1 1 2 2 1 
1 1 1 2 2 2 1 2 1 
1 2 2 2 2 1 2 2 2 
2 2 1 2 1 2 2 2 1 
2 2 2 1 1 2 2 1 1 
1 1 2 1 1 2 1 2 1 
2 1 1 2 1 2 1 2 1 
1 1 1 2 2 2 1 2 2 
2 1 1 2 2 2 1 2 1 
1 2 1 2 2 2 2 1 1 
2 
i 3 1000 int
-3 0 0 -2 0 0 -16 0 0 
0 0 0 -16 0 1 -4 0 0 
0 0 0 -2 0 0 -3 0 0 
0 0 0 -1 0 0 -20 0 0 
-1 0 0 0 0 0 -15 0 0 
-1 0 0 -4 0 0 0 0 0 
-7 0 0 -6 0 1 -13 0 0 
0 0 0 -1 0 0 0 0 0 
-1 0 0 0 0 0 -1 0 0 
0 0 0 -2 0 0 -6 0 0 
0 0 0 0 0 0 0 0 0 
0 0 0 0 0 0 0 0 0 
-1 0 0 0 0 0 -2 0 1 
-1 0 0 -10 0 1 0 0 0 
-2 0 0 0 0 0 0 0 1 
0 0 0 0 0 0 -10 0 0 
-2 0 0 -4 0 0 -1 0 0 
0 0 0 -1 0 0 -8 0 0 
-3 0 0 0 0 0 -2 0 0 
-2 0 0 0 0 0 -2 0 0 
-1 0 0 0 0 0 -6 0 0 
-1 0 0 -3 0 0 -3 0 0 
-6 0 0 0 0 0 -3 0 1 
0 0 0 18 1 0 -9 0 1 
-16 0 0 -3 0 0 0 0 0 
0 0 0 0 0 0 -3 0 0 
0 0 0 0 0 0 -1 0 0 
0 0 0 0 0 0 -3 0 0 
0 0 0 0 0 0 0 0 0 
19 1 0 -2 0 0 0 0 0 
0 0 0 0 0 0 0 0 0 
-1 0 0 -4 0 0 -2 0 0 
0 0 0 0 0 0 -1 0 0 
8 1 0 -1 0 0 -2 0 0 
0 0 0 0 0 0 -8 0 0 
0 0 0 -3 0 0 -2 0 0 
-3 0 0 0 0 0 0 0 0 
-1 0 0 -1 0 0 -1 0 0 
-1 0 0 15 1 0 -3 0 0 
0 0 0 -2 0 0 0 0 0 
0 0 0 0 0 0 -4 0 0 
-1 0 0 0 0 0 -1 0 0 
0 0 0 -1 0 0 -6 0 0 
-2 0 0 0 0 0 0 0 0 
-1 0 0 0 0 0 13 1 0 
-1 0 0 0 0 0 0 0 0 
-1 0 0 -2 0 0 -1 0 0 
0 0 0 -3 0 0 -1 0 0 
-2 0 0 13 1 -1 -1 0 0 
0 0 0 0 0 0 0 0 0 
0 0 0 -2 0 0 -4 0 0 
0 0 0 10 1 0 0 0 0 
-5 0 -1 0 0 0 -3 0 0 
-1 0 0 -1 0 0 -5 0 0 
0 0 0 0 0 0 0 0 0 
0 0 0 0 0 0 -1 0 0 
0 0 0 0 0 0 0 0 0 
-3 0 0 -3 0 0 -1 0 0 
-5 0 0 0 0 0 0 0 0 
0 0 0 0 0 0 -1 0 0 
-2 0 0 0 0 0 0 0 0 
0 0 0 0 0 0 0 0 0 
0 0 0 0 0 0 0 0 0 
-1 0 0 -1 0 0 -1 0 0 
0 0 -1 -9 0 -1 -4 0 0 
-1 0 0 0 0 0 -8 0 0 
13 1 -1 -3 0 0 -2 0 0 
15 1 -1 0 0 0 -1 0 0 
0 0 0 -1 0 0 0 0 0 
12 1 -1 -2 0 0 0 0 0 
-6 0 0 -1 0 -1 -2 0 0 
0 0 0 0 0 0 0 0 -1 
-1 0 0 0 0 0 0 0 -1 
0 0 0 -2 0 0 0 0 0 
0 0 0 0 0 0 -11 0 0 
18 1 0 0 0 0 0 0 0 
0 0 0 -1 0 0 0 0 0 
0 0 0 -1 0 0 0 0 0 
0 0 0 -10 0 -1 -9 0 0 
-1 0 -1 -1 0 0 0 0 0 
0 0 0 1 0 0 0 0 0 
4 0 0 5 0 0 1 0 0 
18 0 1 -16 -1 0 -13 -1 1 
1 0 0 8 0 0 9 0 1 
2 0 1 4 0 0 2 0 0 
1 0 0 1 0 0 -9 -1 0 
-14 -1 0 -16 -1 1 1 0 0 
0 0 0 0 0 0 1 0 0 
6 0 0 0 0 1 4 0 0 
0 0 0 1 0 0 2 0 0 
1 0 0 0 0 0 1 0 0 
3 0 0 1 0 0 2 0 0 
1 0 0 2 0 0 1 0 0 
13 0 0 1 0 0 2 0 0 
0 0 0 1 0 0 0 0 0 
0 0 0 8 0 1 1 0 1 
6 0 1 2 0 1 1 0 0 
0 0 0 3 0 0 1 0 0 
3 0 0 9 0 1 7 0 0 
1 0 0 9 0 0 -17 -1 0 
1 0 0 0 0 0 2 0 0 
1 0 0 1 0 0 0 0 0 
0 0 0 1 0 0 15 0 0 
10 0 0 0 0 0 1 0 0 
1 0 0 1 0 0 13 0 0 
-13 -1 0 2 0 0 5 0 0 
0 0 0 -18 -1 0 0 0 0 
1 0 0 1 0 0 1 0 0 
1 0 0 4 0 0 2 0 0 
1 0 0 2 0 0 2 0 0 
3 0 0 0 0 0 1 0 0 
0 0 0 0 0 0 5 0 0 
3 0 0 0 0 0 4 0 0 
1 0 0 0 0 0 1 0 0 
2 0 0 1 0 0 1 0 0 
-8 -1 0 11 0 0 1 0 0 
0 0 0 11 0 0 1 0 0 
6 0 0 4 0 0 0 0 0 
1 0 0 0 0 0 1 0 0 
-14 -1 0 1 0 0 2 0 0 
1 0 0 1 0 0 2 0 0 
1 0 0 1 0 0 -7 -1 0 
3 0 0 1 0 0 1 0 0 
1 0 0 2 0 0 12 0 0 
1 0 0 0 0 0 2 0 0 
1 0 0 5 0 0 1 0 0 
1 0 0 4 0 0 9 0 0 
0 0 0 1 0 0 1 0 0 
0 0 0 0 0 0 3 0 0 
1 0 0 -8 -1 0 17 0 0 
1 0 0 2 0 0 14 0 -1 
3 0 0 0 0 0 1 0 0 
3 0 0 2 0 0 3 0 0 
3 0 0 1 0 0 0 0 0 
5 0 -1 8 0 0 0 0 0 
1 0 0 1 0 0 1 0 0 
2 0 0 -13 -1 -1 1 0 0 
1 0 0 11 0 0 1 0 0 
3 0 0 7 0 0 0 0 0 
15 0 -1 5 0 0 1 0 0 
1 0 0 3 0 0 0 0 0 
1 0 0 11 0 0 1 0 0 
3 0 0 0 0 0 0 0 0 
5 0 0 0 0 0 -17 -1 0 
0 0 0 1 0 0 0 0 0 
2 0 0 1 0 0 9 0 0 
1 0 0 1 0 0 3 0 -1 
4 0 0 1 0 0 1 0 -1 
0 0 0 1 0 0 0 0 0 
-11 -1 0 1 0 0 4 0 0 
1 0 -1 1 0 0 1 0 0 
1 0 0 9 0 0 2 0 0 
0 0 0 0 0 0 5 0 0 
1 0 0 3 0 -1 1 0 0 
2 0 0 1 0 0 1 0 -1 
1 0 0 1 0 0 1 0 0 
1 0 -1 1 0 0 1 0 0 
1 0 0 2 0 0 -13 -1 0 
1 0 0 5 0 0 1 0 0 
10 0 -1 0 0 0 0 0 0 
-1 0 1 -2 0 0 -4 0 0 
-4 0 1 -1 0 0 24 1 0 
-2 0 1 -2 0 0 0 0 0 
-6 0 1 -1 0 0 -1 0 0 
-2 0 0 -1 0 0 -2 0 0 
12 1 0 -3 0 0 -1 0 0 
-3 0 0 -1 0 0 -4 0 0 
-2 0 0 -1 0 0 -1 0 0 
0 0 0 -1 0 0 -3 0 0 
0 0 0 -1 0 0 0 0 0 
-1 0 0 -4 0 0 0 0 0 
-1 0 1 -1 0 0 -1 0 0 
-4 0 1 0 0 0 -1 0 0 
-7 0 0 -1 0 1 0 0 0 
-4 0 1 -14 0 0 -1 0 0 
-13 0 0 -1 0 0 13 1 1 
-4 0 1 -13 0 1 -6 0 0 
12 1 0 15 1 1 -3 0 0 
-1 0 0 -1 0 0 -1 0 0 
-1 0 0 -6 0 0 -1 0 0 
-1 0 0 -8 0 0 -1 0 0 
-1 0 0 -4 0 0 0 0 0 
0 0 0 0 0 0 -14 0 0 
-2 0 0 -1 0 0 -6 0 0 
-1 0 0 -1 0 0 0 0 0 
0 0 0 -3 0 0 -1 0 0 
0 0 0 -2 0 0 -1 0 0 
-1 0 0 0 0 0 0 0 0 
-11 0 0 -1 0 0 0 0 0 
-1 0 0 -1 0 0 -1 0 0 
-1 0 0 -5 0 0 0 0 0 
-1 0 0 -7 0 0 -1 0 0 
15 1 0 -1 0 0 0 0 0 
-9 0 0 -1 0 0 -10 0 0 
16 1 0 -1 0 0 -1 0 0 
-6 0 0 10 1 0 -3 0 0 
14 1 0 -1 0 0 -2 0 0 
-4 0 0 -4 0 0 -2 0 0 
-8 0 0 -3 0 0 -6 0 0 
-2 0 0 -1 0 0 -1 0 0 
-1 0 0 -2 0 0 -1 0 0 
-1 0 0 -18 0 0 0 0 0 
0 0 0 9 1 0 0 0 0 
-1 0 0 0 0 0 -1 0 0 
0 0 0 0 0 0 0 0 0 
-1 0 0 -1 0 0 12 1 0 
0 0 0 -5 0 0 0 0 0 
0 0 0 -4 0 0 -2 0 0 
0 0 0 -2 0 0 -2 0 0 
0 0 0 -1 0 0 -12 0 0 
-3 0 0 -1 0 0 -6 0 0 
-1 0 0 -1 0 0 -5 0 0 
-17 0 0 -1 0 0 -1 0 0 
-7 0 0 -5 0 0 -6 0 0 
-3 0 0 -4 0 0 -2 0 0 
-1 0 0 -1 0 0 -1 0 0 
-3 0 0 8 1 0 -2 0 0 
-1 0 0 -1 0 0 -1 0 0 
-1 0 0 -5 0 0 -9 0 0 
-1 0 0 0 0 0 0 0 0 
0 0 0 0 0 0 -8 0 0 
16 1 0 -2 0 0 -1 0 0 
0 0 0 0 0 0 -5 0 0 
-1 0 0 -1 0 0 0 0 0 
0 0 0 0 0 0 0 0 0 
12 1 0 -1 0 0 0 0 0 
-2 0 0 0 0 0 -1 0 0 
-1 0 0 -3 0 0 -1 0 0 
-10 0 0 -10 0 0 -1 0 0 
-12 0 -1 -4 0 0 -1 0 0 
-4 0 0 -1 0 0 -3 0 0 
-13 0 0 -1 0 0 -1 0 0 
-3 0 -1 -9 0 -1 0 0 0 
-13 0 0 -1 0 0 -7 0 0 
-3 0 0 16 1 0 -11 0 -1 
-10 0 0 -1 0 0 -6 0 -1 
-3 0 0 -1 0 0 -1 0 0 
0 0 0 -1 0 0 -2 0 0 
9 1 0 -2 0 -1 0 0 0 
0 0 0 0 0 -1 -1 0 0 
0 0 0 -1 0 0 -1 0 0 
-2 0 0 -1 0 -1 -1 0 0 
-11 0 0 -1 0 0 25 1 0 
-1 0 0 -1 0 0 0 0 0 
0 0 0 -1 0 0 -13 0 0 
0 0 0 -1 0 0 -1 0 -1 
-1 0 0 1 0 0 3 0 0 
1 0 0 0 0 0 5 0 0 
0 0 0 0 0 0 2 0 1 
1 0 0 7 0 1 0 0 0 
2 0 0 1 0 0 0 0 0 
0 0 0 0 0 0 -13 -1 0 
5 0 0 0 0 0 5 0 1 
0 0 0 0 0 0 0 0 0 
7 0 1 5 0 0 12 0 0 
-16 -1 1 3 0 1 0 0 0 
2 0 0 9 0 0 0 0 0 
1 0 1 0 0 0 0 0 1 
0 0 0 3 0 0 0 0 0 
0 0 0 8 0 0 3 0 0 
3 0 1 0 0 0 0 0 0 
3 0 0 2 0 1 0 0 0 
2 0 0 1 0 0 0 0 0 
1 0 0 0 0 0 3 0 0 
3 0 0 1 0 0 4 0 0 
1 0 0 0 0 0 0 0 0 
0 0 0 13 0 0 -1 0 0 
0 0 0 3 0 0 6 0 0 
8 0 0 -13 -1 0 0 0 0 
4 0 0 8 0 0 -10 -1 1 
4 0 0 0 0 0 1 0 0 
1 0 0 1 0 0 -17 -1 1 
2 0 0 0 0 0 1 0 0 
5 0 0 0 0 0 2 0 0 
4 0 0 1 0 0 3 0 0 
0 0 0 14 0 0 0 0 0 
3 0 0 0 0 0 3 0 0 
0 0 0 1 0 0 0 0 0 
5 0 0 1 0 0 6 0 0 
0 0 0 0 0 0 0 0 0 
0 0 0 1 0 0 1 0 0 
0 0 0 -11 -1 0 1 0 0 
-13 -1 0 1 0 0 6 0 0 
20 0 0 -17 -1 0 14 0 0 
-12 -1 0 2 0 0 0 0 0 
1 0 0 0 0 0 -12 -1 0 
10 0 0 0 0 0 1 0 0 
2 0 0 0 0 0 0 0 0 
-8 -1 0 -7 -1 0 0 0 0 
1 0 0 0 0 0 11 0 -1 
0 0 0 0 0 0 0 0 0 
-15 -1 0 2 0 0 0 0 0 
0 0 0 0 0 0 4 0 0 
3 0 0 0 0 0 2 0 0 
0 0 0 0 0 0 0 0 0 
0 0 0 7 0 0 1 0 0 
0 0 0 0 0 0 0 0 0 
0 0 0 1 0 0 0 0 0 
0 0 0 3 0 0 6 0 0 
8 0 0 5 0 0 0 0 0 
0 0 0 11 0 0 7 0 0 
7 0 0 0 0 0 3 0 0 
0 0 0 11 0 0 1 0 0 
0 0 0 2 0 0 3 0 0 
0 0 0 -10 -1 0 0 0 0 
0 0 0 1 0 0 8 0 0 
1 0 0 1 0 0 10 0 0 
1 0 0 0 0 0 13 0 0 
1 0 0 1 0 0 3 0 0 
7 0 0 0 0 0 1 0 0 
0 0 0 4 0 0 0 0 0 
0 0 0 0 0 0 1 0 0 
0 0 0 0 0 0 1 0 0 
2 0 0 5 0 0 -17 -1 0 
1 0 0 7 0 0 0 0 0 
0 0 0 2 0 0 0 0 0 
0 0 0 0 0 0 1 0 0 
4 0 0 3 0 0 4 0 0 
2 0 0 0 0 0 2 0 -1 
9 0 -1 1 0 -1 6 0 0 
0 0 0 4 0 0 0 0 0 
18 0 0 0 0 -1 0 0 0 
-11 -1 0 1 0 -1 1 0 0 
0 0 0 11 0 -1 0 0 0 
0 0 0 -10 -1 0 2 0 -1 
0 0 0 1 0 0 1 0 -1 
2 0 0 1 0 0 1 0 0 
0 0 0 0 0 0 0 0 0 
0 0 0 2 0 0 0 0 0 
2 0 -1 3 0 0 0 0 -1 
0 0 0 14 0 -1 -1 0 0 
5 0 0 0 0 0 2 0 0 
0 0 -1 0 0 0 1 0 -1 
-13 -1 0 
v 3 1000 double
-230.7317945 -35.585094621 47.510594537 -83.166776191 32.095894348 -13.007181419 -405.17741515 -4.2872791939 -52.455504003 
-18.255334945 -6.0433994378 0.40878061517 -349.6336565 -36.42266501 26.908048426 -184.35742831 15.598810604 2.8945431804 
-11.091403304 -1.8286054048 -0.092501628581 -221.35355053 25.017599149 -21.61679487 -196.68233258 15.750995259 -34.155544636 
-8.3989918061 3.6193444258 -0.57623083984 -86.152269332 12.659189405 -7.4139695852 -356.77380819 46.772049786 -8.5720460702 
-79.980240978 -5.6637209745 -7.1748624662 -26.992304968 -10.698329534 2.5111814051 -394.033417 27.829271665 -39.543904821 
-84.412884695 1.4367306326 10.312172257 -354.7293265 22.199835619 -2.9814403984 -10.994227764 1.3464824195 -11.053774792 
-303.57161492 -8.6741757252 2.6406618394 -500.1415796 -20.616140318 -9.8518495192 -428.47440889 -7.3001440845 16.567662647 
-24.915735246 9.5923397213 -19.343105576 -28.738402612 3.0031555743 -2.2787377539 -12.846794798 9.4573791236 -0.81125403036 
-66.893290856 -9.6943913843 10.75927341 -30.489691216 0.17589718972 -0.53116850294 -66.062822751 7.9013056654 1.0299146515 
-32.945592704 -5.145581353 -6.5667846877 -157.71798503 9.0504656704 -0.53856842843 -261.80494975 -20.951084139 -6.9308436156 
-7.6172763702 -10.409539936 2.2293047991 0.98393258192 -10.732231727 2.6236016184 -29.396789992 -14.164423635 -4.1976675177 
-1.714334391 6.0518001626 0.33962124964 -32.329951749 -0.93039555638 -1.066358497 -2.1997739359 -2.1712158262 3.8365503738 
-93.547813961 6.9819868746 7.1771353561 -10.4308071 -5.6761060889 -4.2825815883 -172.53696708 14.699088895 5.5828925623 
-56.22667487 -9.6837015422 -7.6957138534 -493.05977718 1.3083842903 16.603423707 -34.378923777 -4.4982416284 -3.8434954203 
-162.33619935 5.700087912 -10.818307067 -4.0680713833 -0.24113151725 7.2403638915 -0.68366927663 -3.0004707963 -6.7434959412 
-9.0848066062 -10.292919296 -4.8763454884 -35.708242829 -1.3609718116 14.863931442 -297.89895493 -26.557169123 1.1987255695 
-167.0964833 10.694646836 -8.2140645545 -270.38888267 -0.66229675894 -13.19357904 -133.59603861 -4.0939523879 -12.535888347 
3.7814295052 0.60415798496 -7.168374023 -108.08223883 24.88989416 12.432621216 -274.67666284 -1.0150578965 -9.2885116086 
-133.32635313 -14.352047273 5.0328840749 8.3980346573 -0.80415327473 1.9727509235 -172.0174662 11.333238285 48.764411407 
-137.99787632 12.723088924 -1.7516415965 -27.570311454 -3.7922412557 -1.8595784283 -181.36855555 -11.653274733 -3.8547016087 
-27.885660215 -6.3830087682 -9.2523668838 -46.099676064 10.813311227 -5.5760701147 -392.26670883 -27.786783458 24.633936819 
-36.332913141 2.252982781 0.61386947447 -130.46750297 -14.523120449 11.124009166 -164.86712371 18.476871274 3.8605957121 
-317.50984675 -6.4189563604 19.565764854 -43.344083474 -7.8243742419 -0.70447575277 -303.69300516 -6.0453986796 33.382412118 
-40.767425317 -5.08644491 -14.548404784 -259.97648835 -24.122560723 -13.811552475 -312.14215027 -10.404087872 6.0237270951 
-382.62398542 -15.137860061 10.723197263 -159.88065855 16.500721415 11.839627514 -13.701427662 -1.9680879185 0.64926015803 
-23.757588375 -1.7562443057 4.6917611665 -43.105584117 3.5599715562 0.82171608104 -168.33254419 5.2090461186 -10.215246434 
-5.0119299048 7.5481015297 8.0304968869 -18.679527616 -2.7327796424 3.3287517867 -43.203527006 -2.6758176712 8.9340677003 
-30.442153509 -9.1794380868 -1.4996333905 -7.011107891 -3.306705553 -3.5475588813 -146.66058569 10.530819685 10.543633012 
-10.303896593 -6.8309399654 -0.89249707201 -12.116826022 6.4506048266 -2.3291004232 -20.662441591 2.6534886267 -1.2150083748 
-512.30049964 -2.0528213404 9.0972480475 -95.681546474 16.224225058 -4.2884908316 -7.8554751116 11.276354802 3.9108545724 
-15.743875753 -9.7818605541 -10.647872949 -16.754649064 -6.5367262414 3.9366018778 -31.015010851 11.770895471 -7.271261165 
-144.58078989 -4.508790932 -18.586165925 -304.57746036 7.634583089 -9.3802202702 -153.2798701 8.5014647931 -19.393529055 
-29.504943102 3.2555582745 8.018669584 -0.24908913728 2.5101340297 7.3592116137 -38.473643421 -10.850270598 -4.9880567407 
-519.39131015 11.136163627 39.190082303 -66.883806709 21.386284372 11.566982639 -150.68795217 2.7639403546 9.2430333307 
3.2058391471 -4.3921770717 -0.70367558932 -17.463980116 -7.4970731083 4.4476877872 -307.99626117 -33.67711404 41.93935055 
-34.98568474 1.3055846859 -10.31553476 -144.10954828 -11.519567705 -1.6122341706 -168.23839155 -5.8896451996 -19.479097229 
-141.47750654 8.8124960926 -13.488211875 -20.742147055 -2.8129223218 -12.347316535 -11.776593944 -6.4569579737 3.9353342123 
-59.709641291 1.1389519069 -0.98406453471 -98.150463088 8.3535606038 -3.3048381874 -57.833899317 1.6310732168 -5.2648900622 
-27.42393834 0.77576263054 3.2392633442 -331.33808149 5.4556715694 -9.6075568939 -198.76919446 -6.4653210719 5.344042003 
-16.022744593 -7.1546295625 7.9694944121 -173.94631262 17.532656778 -23.098149605 -30.036836676 2.4863055956 -5.6365464764 
0.21030765546 0.10473138656 7.4561767192 -2.4898839958 -6.4492576022 -5.4205701376 -156.7978561 7.9668536609 -13.079196762 
-63.294773025 -26.211612879 -2.4437414895 6.2840000475 -2.1143173559 -1.9775278366 -72.050904832 -10.626124501 -0.16815118836 
-25.691521125 0.021136196691 2.4690045101 -60.790630713 -5.590238597 -1.8460095832 -293.61346009 -27.942386005 20.435958848 
-159.21940689 4.5460132645 -1.6278156697 -4.3285547106 -1.7142834139 -2.4140040271 -1.0435278429 -1.631918637 -10.498444307 
-65.418477579 0.8437864028 -2.521561139 -0.96235715488 2.2931140698 5.8174814651 -324.18491827 -14.421159606 19.601932928 
-73.465786308 -5.3597529284 -6.7581033787 -36.968912915 12.030728741 -21.395321222 -41.596623809 0.24069184786 -4.2321168018 
-89.30199825 -5.2496842081 -13.025594511 -82.940404758 -0.79903998157 -14.786644559 -88.174719226 34.993976055 15.930186947 
-12.077496943 0.52111221914 3.0409414412 -191.24842726 -9.0460903974 26.634928284 -117.38959307 3.9732140821 -2.7251492655 
-159.0792835 -1.2206681414 -12.516778968 -358.41624768 -3.8309487818 -11.025620386 -70.261559704 6.5339031899 -0.91073669102 
-23.309476376 -3.6265703062 -3.3917619008 -24.824748972 -9.8784268748 0.47656694037 -20.176700689 1.2195009416 -3.8090425061 
-42.650948929 -3.3154117885 7.9562070091 -205.6223904 -23.191421072 8.3584376801 -224.56486994 -25.067515824 -5.2973585658 
-61.962392969 -3.3580627734 6.0531789093 -290.18766372 -31.36408035 3.6507845088 -8.4927117121 -0.86974706761 1.8910838454 
-155.77319756 0.95959535239 -2.9595312406 -8.1394686468 13.915880566 17.706503259 -189.62686321 -21.108826747 1.9843313399 
-49.024183901 17.333622623 16.346322218 -94.165483431 9.1758989517 5.4531833099 -320.57101331 -1.138841227 17.300904464 
-17.760318885 0.20866700959 0.44134594284 -13.252498728 3.9689365733 4.5150899331 -27.636391013 -10.122250698 -2.584467646 