ITEM: TIMESTEP
27500
ITEM: NUMBER OF ATOMS
1000
ITEM: BOX BOUNDS xy xz yz pp pp pp
0 10 0
0 10 0
-0 10 0
ITEM: ATOMS id type type x y z ix iy iz vx vy vz fx fy fz omegax omegay omegaz radius 
35 1 1 1.65922 1.64229 0.155807 -99 0 2 -342.139 11.4707 25.0527 -587.575 1145.22 484.604 0 0 0 0.5 
646 2 2 0.436634 2.58603 0.0409111 -40 0 1 -250.394 13.9658 6.66311 2911.83 -1504.74 -3729.63 0 0 0 0.5 
857 2 2 2.01447 4.06226 1.64738 -4 0 0 -104.574 -10.7262 -12.4923 -436.088 -1239.24 -1786.58 0 0 0 0.5 
158 1 1 1.57973 2.05561 1.17999 -3 0 1 -285.033 -14.4578 -4.81082 -3460.98 2970.57 -956.736 0 0 0 0.5 
226 1 1 0.541845 0.246328 1.20359 -73 0 1 -435.76 5.77088 2.38179 -382.128 294.402 -528.126 0 0 0 0.5 
768 2 2 2.47371 1.80978 0.183133 -102 0 -1 -318.558 16.4861 10.7731 -75.6884 326.58 -135.001 0 0 0 0.5 
487 1 1 1.03669 0.596642 0.441734 -82 0 0 -438.22 13.0871 9.42919 675.601 1573.04 1031.99 0 0 0 0.5 
536 2 2 1.78193 0.608416 0.830455 -115 0 0 -425.331 -16.02 -4.97875 -504.109 425.14 -1592.38 0 0 0 0.5 
478 1 1 1.54087 3.60956 0.064643 1 0 1 -109.193 -11.2092 -26.6678 -70.8534 985.643 289.551 0 0 0 0.5 
416 1 1 0.762234 3.1357 0.828982 -69 0 0 -183.721 -2.27424 -32.5965 -194.085 1068.12 -1489.52 0 0 0 0.5 
865 2 2 1.32081 0.293759 1.79101 -54 0 -1 -478.35 5.78655 15.5453 -369.834 707.955 1383.53 0 0 0 0.5 
212 1 1 2.21383 1.35156 1.44048 143 1 0 -369.076 16.8566 -6.40507 2377.29 -861.583 -160.38 0 0 0 0.5 
786 2 2 1.35677 1.1043 1.2658 -97 0 1 -384.941 8.95942 18.5614 -15.9488 597.773 1725.46 0 0 0 0.5 
783 2 2 2.42932 2.22128 1.22493 -31 0 1 -281.743 18.9943 11.7186 -195.415 164.848 155.705 0 0 0 0.5 
201 1 1 4.61326 4.31493 1.79868 -67 0 1 -91.7617 2.85033 13.566 850.646 -3385.51 -858.674 0 0 0 0.5 
162 1 1 1.40797 0.0680267 0.107571 80 1 0 -498.185 3.03986 -11.2155 547.813 1020.97 -333.725 0 0 0 0.5 
876 2 2 0.495152 1.80439 1.59587 -35 0 1 -291.012 19.7595 14.6525 -74.4771 384.565 -169.984 0 0 0 0.5 
759 2 2 0.0035144 1.67026 0.613922 -40 0 0 -352.023 14.831 3.65789 -1711.35 478.046 -233.847 0 0 0 0.5 
225 1 1 0.403058 0.448735 0.212337 -52 0 1 -423.015 -15.9008 -13.3224 -91.5526 -3063.41 -335.12 0 0 0 0.5 
902 2 2 2.27136 4.04977 0.683626 145 1 1 -71.6708 -14.3834 -18.8738 -438.753 -1015.65 373.587 0 0 0 0.5 
905 2 2 4.14792 2.17326 1.21932 -32 0 0 -260.125 -2.31379 -6.01094 -254.038 -1739.37 1997.99 0 0 0 0.5 
947 2 2 1.94583 3.18283 0.346816 18 0 1 -147.237 -25.5092 0.132884 -272.313 -886.253 183.415 0 0 0 0.5 
469 1 1 4.05094 0.6643 1.98803 105 1 0 -440.327 -3.25505 -11.6977 1103.11 -2234.45 303.118 0 0 0 0.5 
67 1 1 1.36362 2.93551 1.26949 162 1 1 -216.324 19.1177 18.7854 1625.61 -550.564 878.751 0 0 0 0.5 
585 2 2 0.83298 1.42357 0.681457 -75 0 1 -357.679 20.8692 -3.52818 352.766 1831.05 -299.422 0 0 0 0.5 
776 2 2 3.01748 0.372453 0.620105 -80 0 1 -487.542 11.7419 -40.2371 2832.45 -2064.61 2918.39 0 0 0 0.5 
159 1 1 0.459018 0.938361 1.57249 149 1 0 -383.425 7.52546 20.3418 -593.133 1096.84 998.128 0 0 0 0.5 
121 1 1 3.29376 1.42947 0.423171 140 1 0 -321.312 -5.87283 -10.6784 -874.102 388.014 377.022 0 0 0 0.5 
833 2 2 4.57143 3.30495 0.465287 14 0 0 -165.098 12.0493 -9.71173 34.9813 1541.4 1723.13 0 0 0 0.5 
127 1 1 2.53802 0.834884 0.956847 -70 0 1 -438.597 23.3049 -22.39 929.353 926.885 -1011.71 0 0 0 0.5 
374 1 1 4.0357 3.51035 1.29139 -19 0 1 -177.585 16.3247 -2.53811 -1443.15 545.795 -83.9473 0 0 0 0.5 
316 1 1 3.88583 0.0104511 0.51277 -81 0 0 -514.044 8.94444 4.43045 1304.33 208.307 48.0684 0 0 0 0.5 
408 1 1 0.0255731 4.61498 0.163602 -4 0 0 -25.0854 0.107798 -2.68506 344.006 -343.407 -853.101 0 0 0 0.5 
259 1 1 4.84727 0.714148 1.06876 -87 0 -1 -412.489 -25.0423 27.0426 1040.37 201.177 1768.02 0 0 0 0.5 
566 2 2 3.14688 4.36942 0.887007 174 1 1 -56.9679 -10.5005 -25.7659 -91.6584 -503.257 -236.731 0 0 0 0.5 
859 2 2 2.91908 0.420752 1.63148 -125 0 1 -465.351 7.43826 -11.3773 860.371 -308.794 234.572 0 0 0 0.5 
467 1 1 0.216294 4.69407 1.07973 194 1 1 -49.5111 0.706939 -8.97028 153.21 1037.76 381.315 0 0 0 0.5 
787 2 2 0.455912 3.17481 1.70003 -42 0 1 -156.219 -16.9695 -12.2284 -52.2624 -43.468 172.491 0 0 0 0.5 
612 2 2 4.01188 2.67614 1.89939 0 0 1 -205.122 0.786081 25.4142 27.1028 -196.858 168.351 0 0 0 0.5 
623 2 2 4.19243 2.42343 0.423851 -43 0 1 -231.889 6.1156 -1.14066 -1053.18 3096.48 605.256 0 0 0 0.5 
881 2 2 2.05056 4.81156 1.23752 -10 0 0 -30.4862 -5.32057 -1.27671 1063.61 -58.151 -2151.2 0 0 0 0.5 
260 1 1 4.21504 1.22334 0.51567 -96 0 1 -342.819 -7.89596 22.9078 -966.016 -920.62 -2794.15 0 0 0 0.5 
49 1 1 2.63962 3.11064 0.777669 -9 0 1 -193.782 18.0094 21.2917 2340.2 169.359 2214.91 0 0 0 0.5 
597 2 2 3.74905 1.44731 1.77291 -60 0 1 -352.937 8.79266 -11.4544 4564.89 -833.167 -839.308 0 0 0 0.5 
149 1 1 4.08486 4.18152 0.155325 -7 0 0 -91.6562 6.19191 32.0609 -856.118 -1846.45 1570.83 0 0 0 0.5 
495 1 1 0.548159 4.23756 1.77074 -55 0 1 -62.0849 -4.12247 3.32505 -169.746 -944.97 1215.51 0 0 0 0.5 
161 1 1 1.30414 4.39724 0.335937 -1 0 1 -38.3014 -2.74467 -4.15302 -396.382 1013.27 494.229 0 0 0 0.5 
130 1 1 3.26746 2.06919 1.1577 -24 0 0 -276.582 -4.09052 7.94579 -800.578 1472.3 -2470.32 0 0 0 0.5 
598 2 2 3.31273 2.59227 0.368531 -32 0 1 -226.498 3.58237 -0.966225 -687.692 -354.422 -268.215 0 0 0 0.5 
263 1 1 4.75037 1.44605 1.63041 -30 0 1 -372.671 7.88649 18.8952 -538.533 -608.27 -2476.86 0 0 0 0.5 
548 2 2 4.78502 2.06817 0.203374 -77 0 1 -253.117 14.3245 -4.57896 400.631 3411.62 -1338.72 0 0 0 0.5 
858 2 2 4.83925 4.22387 0.554083 -12 0 0 -84.021 37.1369 6.56382 1037.81 -1926.92 390.261 0 0 0 0.5 
358 1 1 4.84962 3.20252 1.33874 -24 0 0 -188.945 0.77201 4.21748 535.058 -738.159 -1128.05 0 0 0 0.5 
228 1 1 1.74796 3.37588 3.94613 -82 0 1 -154.97 -25.1762 -34.3305 -820.095 -2345.78 -24.4013 0 0 0 0.5 
354 1 1 1.80236 2.66206 2.08836 -21 0 1 -225.912 -4.64306 10.4176 425.265 -168.325 541.588 0 0 0 0.5 
333 1 1 4.85135 3.21739 2.21042 -8 0 0 -187.528 10.1395 -1.20632 -542.795 178.59 213.884 0 0 0 0.5 
647 2 2 3.16138 1.54976 3.03274 -64 0 0 -372.627 35.7466 26.8117 4875.67 80.8692 -732.384 0 0 0 0.5 
538 2 2 3.70554 0.638783 3.87364 165 1 0 -439.287 20.3926 -17.4637 -259.678 -1307.9 1148.74 0 0 0 0.5 
12 1 1 0.929582 3.44259 3.02996 -78 0 0 -170.029 12.079 -14.5134 -236.381 989.101 -33.6528 0 0 0 0.5 
456 1 1 2.33026 1.56666 2.77343 -20 0 0 -330.683 27.6584 21.0612 -1944.67 -305.796 1194.25 0 0 0 0.5 
461 1 1 2.0466 3.64045 2.87646 165 1 0 -101.58 -38.0338 26.7677 -2389.59 874.44 -4681.31 0 0 0 0.5 
819 2 2 0.894362 2.25353 2.36606 -40 0 1 -230.009 -14.3875 2.73235 -335.675 -422.528 -1486.97 0 0 0 0.5 
282 1 1 2.0601 0.873972 3.26475 139 1 0 -408.216 -3.14157 6.43426 1505.78 -106.748 -241.528 0 0 0 0.5 
72 1 1 2.34964 0.321033 3.59783 123 1 0 -452.101 -30.5877 29.6439 -2102.27 1692.83 -336.9 0 0 0 0.5 
380 1 1 2.69595 2.60607 2.45039 -36 0 1 -215.472 16.8116 14.6435 -618.864 1031.39 480.301 0 0 0 0.5 
460 1 1 2.3375 4.3231 3.8497 -9 0 0 -69.7254 -11.2248 11.679 -160.157 361.554 316.113 0 0 0 0.5 
966 2 2 2.46371 1.0219 2.17671 -41 0 1 -394.122 10.8953 -4.32253 1021.61 184.995 1413.68 0 0 0 0.5 
807 2 2 1.5465 1.50216 2.9414 -40 0 0 -349.332 -3.06747 29.8769 -2752.33 2549.19 -1480.31 0 0 0 0.5 
25 1 1 0.218507 2.53436 3.32473 -92 0 0 -262.715 -4.33483 -18.4833 269.33 -648.773 -73.4011 0 0 0 0.5 
339 1 1 2.54212 1.74507 3.71395 -46 0 1 -317.778 -5.19889 25.0139 -1784.07 468.572 2466.23 0 0 0 0.5 
584 2 2 4.33279 2.16802 2.80533 -51 0 1 -274.142 -6.84911 -17.2933 -72.1792 -1424.58 -819.968 0 0 0 0.5 
258 1 1 1.45157 0.0517803 2.77314 -69 0 1 -469.404 -1.06329 8.84425 -3450.04 3869.04 -109.769 0 0 0 0.5 
967 2 2 0.495332 1.48915 3.81539 112 1 -1 -374.162 -0.218077 -9.62525 -244.907 151.415 -60.1726 0 0 0 0.5 
908 2 2 2.47684 3.56112 2.01313 -59 0 1 -117.981 -18.3821 12.0585 1128.47 -1189.14 787.053 0 0 0 0.5 
939 2 2 1.09042 2.49454 3.12645 -30 0 0 -275.758 9.40369 6.87793 1067.56 -348.201 946.189 0 0 0 0.5 
7 1 1 1.98333 2.37142 3.34503 -44 0 0 -288.867 19.0348 -3.5312 1352.88 -19.4956 260.59 0 0 0 0.5 
100 1 1 3.31161 4.49951 2.30455 -10 0 0 -41.5722 -19.719 -7.80189 0 0 0 0 0 0 0.5 
688 2 2 3.82834 3.52475 2.28225 -2 0 1 -172.504 12.8702 13.0912 -104.297 482.218 217.558 0 0 0 0.5 
95 1 1 1.57445 4.13113 2.47936 -11 0 0 -100.292 -26.7019 -0.336149 -690.185 1308.29 -727.94 0 0 0 0.5 
211 1 1 4.19554 0.815972 3.0254 84 1 0 -436.753 5.08077 -20.3401 636.466 2179.6 192.357 0 0 0 0.5 
600 2 2 1.58911 4.18882 3.38323 -27 0 1 -80.2031 -14.8854 -0.718566 -1101.57 1536.34 1135.87 0 0 0 0.5 
172 1 1 3.07026 0.0227187 2.94936 -126 0 0 -507.991 -13.9563 5.06113 2499.24 -153.103 1797.76 0 0 0 0.5 
679 2 2 0.124469 3.66211 2.43059 -24 0 0 -123.03 0.608811 3.51292 795.182 720.149 -514.379 0 0 0 0.5 
264 1 1 3.74536 2.83643 3.04409 -16 0 0 -166.51 -18.7029 5.66345 -2899.41 3299.09 1178.45 0 0 0 0.5 
367 1 1 3.42009 0.881698 2.63185 68 1 -1 -440.216 10.3527 -7.23636 -962.643 -2125.01 276.787 0 0 0 0.5 
389 1 1 3.84928 1.57582 3.98405 -41 0 0 -340.074 1.14425 5.94466 -4249.24 1663.72 -584.665 0 0 0 0.5 
812 2 2 1.64563 4.92315 2.92987 39 0 1 -5.75391 9.24481 -7.63596 2170.26 -1322.11 1643.82 0 0 0 0.5 
662 2 2 3.00334 1.90317 2.07145 -42 0 1 -276.029 -14.1093 14.4174 -2939.52 1062.67 772.071 0 0 0 0.5 
615 2 2 4.6655 0.797962 3.80225 113 1 0 -462.989 -3.27769 0.642321 -474.868 -528.494 -154.201 0 0 0 0.5 
278 1 1 2.70633 0.531904 2.43319 136 1 -1 -447.556 -13.9667 21.9362 -1410.95 -155.424 -824.333 0 0 0 0.5 
529 2 2 0.272301 4.57192 2.84878 -8 0 0 -58.5664 13.2742 -1.54287 731.68 204.749 382.233 0 0 0 0.5 
707 2 2 4.05148 4.25467 3.00258 -239 -1 0 -140.491 36.0891 -18.0874 -1017.49 947.333 -28.3846 0 0 0 0.5 
618 2 2 2.99863 0.704946 3.58228 -40 0 1 -456.402 26.178 -5.23916 -464.416 453.703 -1256.05 0 0 0 0.5 
288 1 1 2.57679 3.27784 3.43231 -10 0 -1 -182.846 5.48572 -8.15137 5961.83 -2961.16 2957.76 0 0 0 0.5 
886 2 2 1.74229 4.83456 2.07149 187 1 0 -22.9502 -7.62612 5.59757 316.469 -574.667 558.074 0 0 0 0.5 
406 1 1 0.278901 3.36953 3.68539 -57 0 1 -177.189 -8.35394 -1.5304 -1012.47 -31.1895 -1686.06 0 0 0 0.5 
9 1 1 3.00401 4.23004 3.26686 166 1 0 -75.8782 -1.87963 -12.5448 -1254.96 1473.39 -1564.47 0 0 0 0.5 
951 2 2 0.115752 4.06902 3.58947 -34 0 0 -110.903 23.0372 0.618921 855.834 422.448 -903.106 0 0 0 0.5 
62 1 1 3.73554 3.83924 3.72851 -40 0 0 -117.414 -9.7075 -23.0397 161.658 -533.093 -264.326 0 0 0 0.5 
641 2 2 4.75912 3.09636 3.29875 -14 0 0 -203.104 7.32762 -1.81962 -774.443 1880.76 -927.449 0 0 0 0.5 
731 2 2 1.82306 1.6578 2.02627 219 1 0 -318.631 7.70597 27.8112 -5216.44 4027.35 -13.5882 0 0 0 0.5 
147 1 1 4.5809 1.55094 3.752 -88 0 0 -353.274 18.7597 -8.63006 1934.18 1560.2 -1132.67 0 0 0 0.5 
446 1 1 4.69595 3.89836 2.76821 -33 0 1 -128.163 19.1968 -9.73351 968.207 368.183 578.115 0 0 0 0.5 
619 2 2 4.92526 2.17248 3.31189 -38 0 1 -262.394 9.00378 -0.00420686 1070.06 -1259.75 319.514 0 0 0 0.5 
603 2 2 4.94981 1.61419 2.47931 123 1 0 -326.595 -6.85329 -15.7578 3029.36 -397.996 1202.54 0 0 0 0.5 
722 2 2 4.19741 3.41306 4.0658 -84 0 0 -128.727 -4.61494 7.498 1605.95 -235.88 125.771 0 0 0 0.5 
350 1 1 0.782979 3.04703 4.08065 90 1 0 -169.005 -15.5689 -9.39936 91.1564 885.753 -989.042 0 0 0 0.5 
509 2 2 0.110252 1.68814 5.16507 -66 0 0 -313.665 -8.66075 6.08424 -1089.49 720.207 755.94 0 0 0 0.5 
277 1 1 0.0542217 2.34102 5.77143 -110 0 1 -258.068 17.6432 21.5522 -290.393 -485.905 -123.682 0 0 0 0.5 
513 2 2 1.23518 3.17356 4.79568 -61 0 0 -152.427 15.7238 -19.1346 2558.69 -1607.14 192.697 0 0 0 0.5 
47 1 1 3.51208 0.702913 4.83711 -66 0 0 -419.957 9.20026 -7.8155 769.533 1775 1436.74 0 0 0 0.5 
232 1 1 1.28647 2.52258 5.41213 -56 0 1 -231.13 -10.6599 -5.66456 -1171.12 442.953 -1391.46 0 0 0 0.5 
665 2 2 0.847758 1.27607 5.09774 71 1 1 -322.024 -18 -11.701 1400.21 -782.344 -127.824 0 0 0 0.5 
189 1 1 4.30788 0.542692 5.1138 118 1 0 -413.905 -14.0064 -17.3217 -660.353 -796.013 -240.513 0 0 0 0.5 
516 2 2 4.06463 4.0252 4.72936 -85 0 1 -74.7379 17.4761 -4.69672 316.357 350.291 1166.91 0 0 0 0.5 
918 2 2 1.73404 1.63143 5.53256 -69 0 0 -331.612 -14.5092 -10.9226 -197.404 23.7206 -39.7568 0 0 0 0.5 
378 1 1 2.63638 0.791646 4.49315 -106 0 0 -395.608 3.15709 16.234 -2220.45 245.483 -440.55 0 0 0 0.5 
633 2 2 3.64258 0.0196828 4.43151 -111 0 1 -518.505 -10.6001 -0.249117 -2031.43 222.636 -1047.29 0 0 0 0.5 
375 1 1 2.30929 0.858677 5.48499 97 1 -1 -336.282 -21.4262 1.70683 146.046 -196.188 -12.0781 0 0 0 0.5 
781 2 2 2.11641 0.0128856 4.86846 106 1 0 -505.896 6.17419 -9.15717 -355.433 458.864 -1422.28 0 0 0 0.5 
868 2 2 2.29021 2.76793 5.26932 -67 0 1 -240.272 8.8049 0.289515 229.23 147.998 -468.478 0 0 0 0.5 
439 1 1 2.40703 2.68092 4.29471 -27 0 0 -237.895 5.84795 3.87938 35.8276 -26.6846 -298.9 0 0 0 0.5 
572 2 2 4.73364 2.09266 4.65906 -57 0 0 -300.715 20.5732 0.0996576 512.272 -1839.86 1844.46 0 0 0 0.5 
361 1 1 1.41851 2.37719 4.38483 -27 0 0 -243.54 -11.3053 -16.5864 1054.05 -1518.56 151.143 0 0 0 0.5 
514 2 2 2.02286 3.87519 5.667 -52 0 0 -73.7648 5.85626 3.41394 209.49 2379.09 -1728.03 0 0 0 0.5 
421 1 1 0.419153 0.278771 4.68554 111 1 0 -514.071 15.6907 21.8279 2438.91 272.132 1117.67 0 0 0 0.5 
325 1 1 1.30929 0.985916 4.01538 72 1 -1 -383.421 -17.709 -22.2642 244.907 -151.415 60.1726 0 0 0 0.5 
792 2 2 2.52198 4.88173 4.52281 115 1 0 -10.4732 -4.26655 21.8083 134.992 376.137 -290.885 0 0 0 0.5 
896 2 2 2.32435 3.96357 4.75866 -9 0 -1 -44.432 -8.16002 10.3115 -386.735 -12.4528 -278.484 0 0 0 0.5 
247 1 1 1.53739 0.0318291 5.39958 -121 0 0 -504.821 4.45828 -8.28825 -1135.48 582.19 -456.282 0 0 0 0.5 
626 2 2 2.00398 1.75405 4.66869 -25 0 -1 -278.823 -22.4682 -11.7593 1127.93 -1172.22 478.25 0 0 0 0.5 
64 1 1 1.35068 4.83168 4.33387 56 0 -1 3.46749 -3.48049 -6.80604 755.249 31.1917 1043.85 0 0 0 0.5 
672 2 2 2.29977 4.79514 5.50313 -22 0 -1 21.0626 -0.183572 10.0691 1082.33 -1779.47 384.111 0 0 0 0.5 
692 2 2 4.49546 1.16526 4.56824 117 1 0 -387.703 16.0835 3.84767 530.318 1735.81 1046.4 0 0 0 0.5 
39 1 1 0.567281 3.17057 5.09217 -76 0 0 -166.306 -5.9483 -0.281427 1590.55 2387.78 -197.707 0 0 0 0.5 
472 1 1 3.70345 3.81833 5.69922 17 0 0 -91.2978 7.66236 -21.2702 606.938 -1033.88 -1527.52 0 0 0 0.5 
660 2 2 0.0821672 3.24062 5.69616 25 0 0 -149.331 -8.78068 25.8062 -559.511 1581.5 1403.82 0 0 0 0.5 
154 1 1 1.01829 4.00967 5.02238 5 0 0 -62.1227 5.82971 11.2294 -2328.91 -303.864 721.753 0 0 0 0.5 
506 2 2 2.98417 1.98205 4.72902 -70 0 0 -283.278 -2.81058 -9.88821 0 0 0 0 0 0 0.5 
73 1 1 0.489351 4.87991 5.60016 49 0 0 39.144 -5.76197 -29.7793 -3287.03 355.654 119.224 0 0 0 0.5 
410 1 1 4.29526 2.65253 4.22387 -29 0 0 -227.84 -20.8365 -0.615449 -2342.53 873.085 -1568.32 0 0 0 0.5 
544 2 2 1.13487 4.20755 5.89913 12 0 0 -45.6485 18.2082 8.93858 3021.05 -2847.97 -928.734 0 0 0 0.5 
527 2 2 1.47914 3.97695 4.23695 24 0 0 -59.844 -11.1489 11.7592 -104.747 902.954 1339.64 0 0 0 0.5 
862 2 2 3.51097 4.47377 4.14625 -33 0 0 -75.262 14.605 -2.78601 -956.2 478.014 16.1927 0 0 0 0.5 
741 2 2 4.43179 3.47867 5.23421 -92 0 0 -76.4709 -22.7036 -0.237108 442.52 73.8221 -14.718 0 0 0 0.5 
988 2 2 0.194884 4.01494 5.89445 34 0 0 -49.7065 7.87661 4.4011 413.536 1675.08 92.9389 0 0 0 0.5 
290 1 1 4.34486 1.43548 5.46159 110 1 0 -358.821 -3.3378 6.29513 -1130.65 -1450.8 267.892 0 0 0 0.5 
200 1 1 3.56608 2.70426 5.30825 -115 0 0 -228.407 8.10869 -1.73004 -2186.38 2979.63 1493.27 0 0 0 0.5 
346 1 1 3.97331 2.11581 4.98603 137 1 0 -318.67 -6.26759 0.622388 975.246 -1199.35 -3067.83 0 0 0 0.5 
145 1 1 4.64944 0.495789 5.79067 110 1 0 -406.7 6.99365 -5.23953 784.341 -1540.53 2014.33 0 0 0 0.5 
929 2 2 4.60069 4.66745 5.49467 -15 0 1 -13.1303 3.87721 -3.82493 -1793.85 1910.4 1765.01 0 0 0 0.5 
502 2 2 0.52861 1.7356 6.08301 -101 0 0 -317.769 -3.0308 7.34675 1643.6 -2224.78 1043.4 0 0 0 0.5 
940 2 2 0.655171 3.97489 6.80847 22 0 -1 -41.1527 -13.9224 0.293701 -4311.31 1774.45 421.059 0 0 0 0.5 
794 2 2 1.98215 1.76974 6.66993 42 0 0 -310.236 -6.9806 4.51823 1944.44 -727.266 -125.383 0 0 0 0.5 
267 1 1 4.51973 0.451253 6.68973 -114 0 0 -460.238 4.91543 12.378 327.806 -1190.07 -239.746 0 0 0 0.5 
901 2 2 1.43293 0.143846 7.76726 -74 0 -1 -485.311 1.63818 -2.38468 1006.81 1405.21 2222.34 0 0 0 0.5 
654 2 2 3.75327 3.15404 6.10907 -63 0 1 -160.453 -19.9339 6.71036 -132.468 -94.0542 624.526 0 0 0 0.5 
863 2 2 1.70616 1.83759 7.60841 -29 0 0 -292.569 -12.6519 16.6053 3294.73 -5025.19 130.427 0 0 0 0.5 
364 1 1 2.08524 3.3218 7.06638 -32 0 0 -104.441 -7.55488 -4.34587 969.817 -677.388 -577.923 0 0 0 0.5 
257 1 1 4.5458 3.20329 6.48198 -31 0 0 -155.633 14.6436 15.3986 381.87 630.892 472.798 0 0 0 0.5 
762 2 2 1.16185 2.60318 7.5688 -79 0 0 -138.973 -30.91 31.4402 -2452.86 2073.06 -947.737 0 0 0 0.5 
269 1 1 4.86016 0.571258 7.53369 -104 0 0 -439.886 16.705 7.98036 -762.226 661.502 860.963 0 0 0 0.5 
115 1 1 0.227889 0.85501 7.66956 63 1 -1 -422.306 13.0581 4.23179 1459.83 -723.258 -268.471 0 0 0 0.5 
104 1 1 4.01773 4.98058 7.54352 2 0 0 76.2122 -32.7475 -7.91981 -521.636 -691.633 322.253 0 0 0 0.5 
111 1 1 2.70179 1.5637 6.1459 71 1 0 -309.295 -3.38798 -17.956 144.401 -41.3429 -105.15 0 0 0 0.5 
708 2 2 1.48901 0.5715 6.77557 -94 0 0 -433.173 9.88791 -9.74638 -415.223 132.371 -1211.6 0 0 0 0.5 
856 2 2 0.632274 0.538621 6.08664 -113 0 0 -438.923 -5.50753 -19.2739 0 0 0 0 0 0 0.5 
208 1 1 2.33608 3.27659 6.12455 0 0 0 -140.581 -7.4356 -0.777887 -90.8765 -1947.89 -372.807 0 0 0 0.5 
754 2 2 2.65545 1.9728 7.60858 -71 0 0 -293.561 9.53329 -5.79347 -756.148 885.582 354.859 0 0 0 0.5 
606 2 2 0.767376 0.432475 7.60488 -97 0 -1 -437.035 -8.75319 -13.3864 -2127.02 123.098 -1351 0 0 0 0.5 
675 2 2 1.11741 2.1057 6.78818 -33 0 0 -271.818 -5.43538 -30.245 -2384.44 1892.16 1787.4 0 0 0 0.5 
480 1 1 2.3131 1.11525 7.21456 -69 0 1 -335.861 -15.3617 -10.2839 -7.56379 -537.545 -1997.16 0 0 0 0.5 
169 1 1 2.68402 4.50263 6.70892 138 1 0 -26.568 3.33425 11.1083 -809.567 193.178 779.878 0 0 0 0.5 
245 1 1 1.49311 3.72529 7.25131 -40 0 0 -94.7718 23.5549 26.6909 654.757 375.867 1516.54 0 0 0 0.5 
501 2 2 1.88449 2.38514 6.0446 88 1 0 -236.304 -17.5895 -15.539 3401.46 -3835.08 -1361.27 0 0 0 0.5 
384 1 1 3.67909 4.15604 7.96433 -37 0 0 -15.6249 -11.8505 1.2358 -4205.34 4693.87 -2115.04 0 0 0 0.5 
465 1 1 2.22724 3.14163 7.91754 -6 0 0 -185.364 21.8473 17.6899 -2304.05 2435.82 -628.971 0 0 0 0.5 
220 1 1 1.58483 2.87958 6.3129 189 1 0 -143.946 -30.3028 23.9492 -1715.18 1418.89 2253.3 0 0 0 0.5 
880 2 2 1.3016 3.53979 6.35282 25 0 0 -82.6068 -8.04343 14.5889 1225.18 623.047 -755.943 0 0 0 0.5 
239 1 1 1.9523 4.50876 7.65053 -184 -1 0 -35.2984 6.12834 9.88122 -214.285 -137.206 -182.294 0 0 0 0.5 
352 1 1 3.98522 1.45316 6.8921 -58 0 0 -309.941 14.2318 -20.3078 -435.236 1954.92 3262.15 0 0 0 0.5 
771 2 2 3.21652 0.4932 7.17545 -86 0 0 -411.947 0.234201 10.6908 -7.23131 13.1012 17.5193 0 0 0 0.5 
810 2 2 0.55955 4.67585 6.53736 47 0 0 18.63 14.0374 -27.8565 -1675.54 1858 1859.06 0 0 0 0.5 
547 2 2 3.91247 3.47899 6.99986 63 0 0 -170.057 22.9504 16.0582 -653.461 -56.014 -273.128 0 0 0 0.5 
187 1 1 3.09891 2.4415 6.81631 -71 0 0 -272.387 5.87134 -4.87174 202.651 -1325.9 347.575 0 0 0 0.5 
321 1 1 0.76729 3.30147 7.24858 4 0 -1 -99.1708 -38.657 21.4609 -819.822 1582.46 -567.753 0 0 0 0.5 
687 2 2 4.24361 1.16142 6.26778 104 1 0 -396.076 16.8039 0.327101 878.787 -973.001 -3189.98 0 0 0 0.5 
972 2 2 2.96405 3.32387 6.585 22 0 -1 -152.483 17.8671 16.0897 996.582 1577.66 -224.708 0 0 0 0.5 
402 1 1 2.3904 0.0262672 7.90036 -123 0 0 -534.441 14.554 -6.18484 2374.8 472.587 917.893 0 0 0 0.5 
148 1 1 4.29972 4.46673 6.47215 -17 0 0 -49.2521 6.70426 1.53954 1101.49 218.548 261.404 0 0 0 0.5 
753 2 2 1.7459 4.51583 6.57371 63 0 0 -29.2317 -0.601057 4.36864 -58.0385 -16.3508 53.7026 0 0 0 0.5 
284 1 1 3.43356 4.37239 6.22664 -90 0 0 -41.509 6.68324 0.281044 -251.813 -456.713 781.637 0 0 0 0.5 
17 1 1 3.79534 2.79892 7.72922 -74 0 0 -187.512 -9.43804 12.1658 164.519 -415.424 -940.465 0 0 0 0.5 
996 2 2 3.3261 1.5086 7.44441 -17 0 -1 -301.519 -9.92056 -21.4454 -310.43 -644.663 1025.42 0 0 0 0.5 
86 1 1 3.08938 3.28498 7.46351 -23 0 1 -177.05 11.7012 15.5185 -659.369 418.637 1100.88 0 0 0 0.5 
291 1 1 3.53061 1.78895 8.50346 -78 0 0 -251.969 -6.13352 16.1637 1251.56 -951.347 1573.91 0 0 0 0.5 
431 1 1 2.41983 1.16749 9.1842 -65 0 -1 -394.784 4.50046 6.17467 -3256.62 -690.04 1752.26 0 0 0 0.5 
764 2 2 2.50095 4.53957 9.81059 -45 0 0 -7.76571 -14.3475 -0.109628 0 0 0 0 0 0 0.5 
702 2 2 2.46855 0.964859 8.03448 122 1 0 -375.845 11.2487 -26.2515 550.913 -371.693 2851.25 0 0 0 0.5 
721 2 2 3.22931 0.954678 9.12473 126 1 0 -442.05 20.7195 22.3973 2353.76 -1565.66 -445.415 0 0 0 0.5 
89 1 1 2.54683 0.439448 8.70851 -61 0 0 -426.673 -1.53295 2.28507 562.939 1856.85 1194.04 0 0 0 0.5 
717 2 2 1.74849 0.91781 9.8629 -50 0 0 -433.065 -3.77927 -6.25869 -722.339 -845.448 -805.819 0 0 0 0.5 
141 1 1 1.6889 0.586273 8.59774 -20 0 0 -386.861 -9.12509 -13.9281 -6125.42 370.695 -2531.49 0 0 0 0.5 
40 1 1 3.88763 3.37992 9.82543 -13 0 0 -164.316 12.0656 -0.409552 -707.735 271.78 -587.898 0 0 0 0.5 
974 2 2 0.981035 2.8363 8.49268 242 1 0 -195.99 8.75564 11.3866 382.485 1067.76 -44.9401 0 0 0 0.5 
644 2 2 4.19542 2.74195 8.60463 203 1 0 -201.605 6.62089 -0.737326 281.995 1228.96 428.108 0 0 0 0.5 
656 2 2 2.09421 1.68946 8.97602 -64 0 0 -329.024 31.8018 -15.0365 -655.243 3031.53 -1201.2 0 0 0 0.5 
923 2 2 0.0382885 1.44595 8.99936 92 1 -1 -323.051 -6.78399 16.4161 -1279.74 103.678 440.588 0 0 0 0.5 
311 1 1 1.35884 3.7256 8.24596 -13 0 0 -120.954 2.41145 14.8425 -428.447 -1008.5 279.783 0 0 0 0.5 
674 2 2 1.88454 2.44896 9.60331 -25 0 -1 -250.972 12.1623 1.607 0 0 0 0 0 0 0.5 
43 1 1 0.50851 1.53044 8.27573 -76 0 0 -350.112 21.6261 10.1534 2596.15 -833.209 -1016.17 0 0 0 0.5 
968 2 2 3.21472 1.85545 9.41377 152 1 0 -281.947 -11.9509 22.8506 423.057 1116.9 480.941 0 0 0 0.5 
777 2 2 4.55716 0.35853 8.45845 -106 0 -1 -480.859 13.1082 -4.67447 -73.1721 459.208 -595.502 0 0 0 0.5 
769 2 2 4.67705 0.334502 9.85422 -1 0 0 -490.851 13.3579 1.57559 587.473 482.447 -159.721 0 0 0 0.5 
138 1 1 4.77987 3.52552 9.0233 -38 0 0 -131.4 -14.3641 -10.9941 -82.1855 -971.209 -496.292 0 0 0 0.5 
283 1 1 0.927738 0.839369 9.46011 -106 0 0 -429.152 -9.79367 -18.4615 -359.704 929.858 -817.681 0 0 0 0.5 
74 1 1 2.68066 2.69329 8.18424 27 0 0 -217.4 14.3752 13.2037 -61.8267 -652.861 9.12358 0 0 0 0.5 
383 1 1 1.1896 1.6702 8.97788 -45 0 0 -323.328 0.733045 6.99749 -1951.23 -1145.13 186.331 0 0 0 0.5 
861 2 2 4.52038 1.90616 8.69442 -20 0 0 -262.059 -16.2787 -20.9933 251.828 -1573.07 697.998 0 0 0 0.5 
582 2 2 2.22277 3.66569 9.30303 7 0 -1 -93.8308 -11.2242 -4.6677 -5768.48 1575.2 -19.6119 0 0 0 0.5 
797 2 2 3.84285 0.66303 9.88472 132 1 -1 -472.444 16.7682 -18.0853 -298.178 2981.8 2639.4 0 0 0 0.5 
944 2 2 0.984874 3.59136 9.31499 -73 0 0 -65.1678 -28.3366 -5.46703 -1771.49 6.20249 -2331.35 0 0 0 0.5 
960 2 2 3.69352 1.19547 8.23876 132 1 0 -314.351 -37.4472 -7.93434 474.03 -1864.35 -956.819 0 0 0 0.5 
139 1 1 4.37793 4.48815 8.65865 -30 0 0 -4.88775 -17.2732 -29.3119 -1296.97 -789.491 -109.85 0 0 0 0.5 
420 1 1 4.29684 3.60423 8.20733 5 0 0 -124.16 9.40555 -2.79204 3881.18 -5357.17 402.456 0 0 0 0.5 
106 1 1 0.268097 3.82395 8.39002 -38 0 -1 -124.598 11.4142 4.32879 -273.437 -1751.2 -332.858 0 0 0 0.5 
51 1 1 0.817956 4.67108 8.30679 3 0 0 -38.7151 -2.24853 -11.4841 846.949 417.095 2540.39 0 0 0 0.5 
651 2 2 4.41924 4.13233 9.35677 31 0 -1 -75.0719 3.29685 17.8061 2138.28 -1342.6 -355.881 0 0 0 0.5 
935 2 2 -0.00347354 2.88823 8.19802 -33 0 0 -207.818 -2.43646 2.09101 504.923 1739.74 356.971 0 0 0 0.5 
348 1 1 2.93093 3.47231 9.30544 -11 0 0 -145.558 35.9605 3.39486 5711.16 -797.655 77.874 0 0 0 0.5 
492 1 1 2.58018 0.731215 9.92423 -114 0 0 -442.433 8.28757 21.194 -212.921 920.606 -2614.97 0 0 0 0.5 
616 2 2 2.99347 2.62401 9.24188 -25 0 0 -232.813 15.4126 17.6253 -401.888 529.181 349.122 0 0 0 0.5 
956 2 2 4.01127 2.60422 9.52354 -65 0 0 -201.163 -21.7896 -6.60658 -287.071 -13.3863 -372.492 0 0 0 0.5 
442 1 1 2.81439 4.371 8.68059 9 0 -1 -4.41685 -20.7667 6.28313 73.2058 -332.932 -92.7312 0 0 0 0.5 
716 2 2 0.618906 4.42137 9.57155 -43 0 -1 -29.0707 2.94911 -10.302 1095.24 -404.025 -822.736 0 0 0 0.5 
2 1 1 3.18838 2.30074 8.45611 -16 0 0 -231.62 14.486 6.17319 936.158 531.911 543.165 0 0 0 0.5 
594 2 2 3.7895 0.417188 8.94607 -77 0 0 -476.498 7.80054 -0.141645 410.532 -607.661 -1538.7 0 0 0 0.5 
983 2 2 3.89802 4.60819 9.63056 15 0 -1 -12.1335 19.9886 9.3146 -3737.64 4431.64 -516.042 0 0 0 0.5 
126 1 1 4.34565 1.33074 9.34207 119 1 -1 -384.134 -22.6325 -8.72097 -1142.91 -85.175 -818.818 0 0 0 0.5 
526 2 2 4.93563 1.43261 9.69982 -78 0 0 -362.644 9.37568 16.7042 -865.528 -690.121 -139.658 0 0 0 0.5 
61 1 1 4.95024 2.91754 9.7341 -100 0 0 -191.158 6.22427 -4.06331 921.178 -1649.87 -159.304 0 0 0 0.5 
680 2 2 0.622684 9.53692 1.26699 -90 -1 0 499.148 -19.3742 34.2057 -1674.08 -540.9 2382.34 0 0 0 0.5 
447 1 1 1.04624 6.6656 0.791053 56 0 1 151.596 -5.32497 13.7733 2556.79 -81.4456 -522.48 0 0 0 0.5 
181 1 1 1.72348 9.57434 0.0355939 58 0 0 480.164 -20.9797 -15.3814 1740.29 -3127.73 -664.252 0 0 0 0.5 
690 2 2 -0.0939057 9.62542 0.260326 67 0 0 469.476 2.91589 10.5498 689.01 911.438 133.237 0 0 0 0.5 
738 2 2 1.75866 9.62674 0.8978 155 0 1 447.698 22.3519 -14.9949 2684.87 -2878.52 753.12 0 0 0 0.5 
209 1 1 3.36659 7.75765 1.99758 -150 -1 0 290.302 -11.7708 1.88811 0 0 0 0 0 0 0.5 
477 1 1 3.98364 9.12008 0.492264 82 0 0 405.014 -5.85436 14.8547 -1337.62 -528.699 1073.08 0 0 0 0.5 
334 1 1 0.922655 8.55887 0.564658 44 0 0 388.326 -28.2252 -12.0092 -160.834 -664.184 130.169 0 0 0 0.5 
497 1 1 0.216879 9.04117 0.182882 142 0 1 424.167 5.82429 17.8897 1284.56 -1449.71 -1500.31 0 0 0 0.5 
822 2 2 2.7068 9.11836 1.86192 -47 -1 1 390.545 -15.3376 -2.57244 -1530.58 928.235 -2360.68 0 0 0 0.5 
179 1 1 0.236502 8.85636 1.61677 90 0 0 362.423 17.1001 -15.0396 2701.42 1973.61 -68.7731 0 0 0 0.5 
570 2 2 3.27006 7.04166 1.30009 -155 -1 1 118.036 37.4127 -12.1256 -161.145 1000.6 -1017.35 0 0 0 0.5 
175 1 1 2.90566 5.19039 1.24784 10 0 0 -22.5549 -2.51664 -9.76337 550.919 -1718.28 -418.919 0 0 0 0.5 
108 1 1 3.59093 9.30821 1.72768 -103 -1 1 387.682 14.8959 -18.6469 -154.869 -461.23 918.684 0 0 0 0.5 
204 1 1 1.93937 9.98229 1.63067 -108 -1 1 524.9 18.4024 -11.4878 -1127.79 -1312.16 -318.565 0 0 0 0.5 
841 2 2 2.1465 7.31617 1.05157 42 0 0 210.977 2.71695 -22.4018 2672.95 -4213.15 432.421 0 0 0 0.5 
534 2 2 0.505381 6.37682 0.0512149 34 0 1 127.778 3.2348 11.8393 425.639 -212.131 649.553 0 0 0 0.5 
365 1 1 1.03249 9.39505 0.859556 -116 -1 0 465.582 -13.558 -13.058 -69.5649 -1827.79 -2690.4 0 0 0 0.5 
571 2 2 0.51347 7.79352 0.908621 31 0 1 325.228 5.35313 -8.39792 341.239 -537.454 -1563.57 0 0 0 0.5 
462 1 1 3.64795 7.93835 0.516539 112 0 0 298.108 8.2223 -12.1625 -922.392 2618.93 -49.6572 0 0 0 0.5 
448 1 1 3.62647 6.16902 1.23082 -3 0 1 81.9467 18.2038 8.72947 554.264 -534.35 527.683 0 0 0 0.5 
170 1 1 0.171869 8.01862 1.21119 95 0 0 324.138 0.405904 21.9219 -1566.52 -712.906 1427.41 0 0 0 0.5 
490 1 1 3.9608 7.05009 0.533381 -110 -1 0 221.163 26.0318 32.0663 1461.67 -707.807 2229.11 0 0 0 0.5 
946 2 2 0.116174 8.33219 0.0357047 46 0 0 361.502 -12.3465 -1.72171 -2125.48 590.983 -1300.66 0 0 0 0.5 
48 1 1 2.91508 8.68963 1.12503 58 0 0 377.344 -7.53798 -8.87476 382.894 -660.017 -943.817 0 0 0 0.5 
977 2 2 3.10434 9.76944 1.19857 70 0 0 455.598 -11.6726 -19.8974 -1284.93 423.481 -3680.64 0 0 0 0.5 
392 1 1 2.74026 5.94748 1.45449 -14 0 0 55.6894 3.26431 4.55534 1686.69 1618.7 -1787.96 0 0 0 0.5 
638 2 2 4.40339 6.44988 0.387723 23 0 -1 163.441 -9.9795 1.2694 718.076 -1413.08 373.607 0 0 0 0.5 
482 1 1 1.48383 5.40023 1.72331 17 0 0 10.4649 13.5496 -9.85429 1851.93 1479.83 -48.3096 0 0 0 0.5 
990 2 2 0.729144 5.52167 1.95671 7 0 0 32.3847 -9.10066 5.1152 904.006 432.044 1379.76 0 0 0 0.5 
156 1 1 1.22284 5.35477 0.339242 25 0 1 25.8135 1.99902 -26.4456 1293.14 519.177 -735.526 0 0 0 0.5 
864 2 2 1.1787 5.86541 1.18491 -25 0 1 17.2781 30.6565 -22.3556 279.198 -3561.54 1808.04 0 0 0 0.5 
54 1 1 2.53335 8.79463 0.292779 37 0 1 387.38 8.55775 -24.3126 692.23 215.559 -530.27 0 0 0 0.5 
720 2 2 0.846396 7.30503 0.523271 20 0 0 243.226 6.67801 -26.7625 2662.02 -1798.03 -1869.85 0 0 0 0.5 
973 2 2 1.81051 6.54847 1.58667 -28 0 1 106.028 3.54151 -8.03915 70.6554 1954.18 -2225.75 0 0 0 0.5 
934 2 2 0.0583733 7.47308 1.92421 26 0 0 217.313 -14.4122 25.0206 1540.07 -303.533 1282.59 0 0 0 0.5 
451 1 1 2.32921 6.44585 0.77344 6 0 1 104.667 7.08783 -24.6609 -896.853 -1791.26 -476.179 0 0 0 0.5 
697 2 2 0.465862 5.5316 0.733552 -26 0 0 41.9677 -7.78324 -27.381 2219.14 -3572.05 453.656 0 0 0 0.5 
210 1 1 1.75954 8.70971 0.643028 106 0 0 386.006 -7.2018 -0.989342 542.673 101.678 61.1074 0 0 0 0.5 
698 2 2 3.39079 7.03753 0.0202902 43 0 0 247.675 -7.81568 10.0302 -2250.92 439.125 480.048 0 0 0 0.5 
178 1 1 0.211099 7.17305 0.589821 21 0 0 209.394 -36.7271 -16.2865 -3177.36 2774.32 173.237 0 0 0 0.5 
503 2 2 0.108487 5.68425 1.4956 -19 0 0 59.804 -31.9615 10.5514 2118.59 -1127.75 -2810.33 0 0 0 0.5 
305 1 1 0.633064 7.20062 1.60729 59 0 0 225.129 6.52874 -6.86339 1926.57 -2014.5 109.429 0 0 0 0.5 
942 2 2 0.384748 6.41581 1.71208 15 0 0 141.652 -3.3888 14.3956 722.576 988.978 -698.295 0 0 0 0.5 
554 2 2 1.95567 5.52266 0.774381 -102 -1 0 28.3412 24.6801 -11.0315 880.28 779.374 65.7459 0 0 0 0.5 
357 1 1 1.61869 7.91789 1.23637 -170 -1 1 325.495 -11.9567 7.02335 -3709.08 4695.1 670.387 0 0 0 0.5 
710 2 2 1.72153 8.80101 1.55296 81 0 0 384.741 -9.11762 -10.2227 52.8005 180.406 972.612 0 0 0 0.5 
639 2 2 3.16461 6.06336 0.564138 43 0 1 103.4 -0.292411 -5.88123 -784.962 -938.269 -899.426 0 0 0 0.5 
133 1 1 4.8347 8.85073 0.338633 100 0 1 381.564 9.5476 14.5281 984.046 410.855 311.667 0 0 0 0.5 
763 2 2 1.98627 9.56812 3.07739 31 0 1 454.166 -17.3802 -5.98227 1661.83 -1188.57 3078.4 0 0 0 0.5 
994 2 2 3.54998 8.20841 3.05623 52 0 0 301.508 9.94096 3.43989 1854.76 -2891.64 -16.6854 0 0 0 0.5 
24 1 1 0.0455997 9.78894 3.54838 118 0 -1 444.513 5.13289 8.98148 1903.79 -2288.8 805.236 0 0 0 0.5 