# vtk DataFile Version 4.2
Generated by LIGGGHTS
ASCII
DATASET POLYDATA
POINTS 1000 float
2.80352 0.903423 0.913953 0.730577 1.39497 0.196522 1.11115 1.41472 1.88757 
0.686391 2.6427 0.961673 4.70743 3.80858 0.55345 1.66804 3.86094 1.10876 
2.66361 1.73935 0.849606 1.08317 0.221123 0.242435 1.64836 2.37203 0.0230745 
4.01827 3.16096 1.94445 1.16731 3.33036 0.490472 0.642343 2.45441 0.0892509 
1.52072 0.172897 1.36678 0.0980132 3.10234 0.365398 2.44617 0.119806 1.2491 
1.63107 0.953279 0.812507 4.12793 4.8971 1.34955 2.09055 0.270978 0.334594 
1.85516 3.0026 1.10742 2.17853 2.27474 0.904266 0.378656 1.41656 1.29954 
0.0383554 0.0857432 0.105518 3.09068 1.66592 1.71178 3.35453 4.04863 1.47186 
3.83768 0.541116 0.92784 0.595514 3.01308 1.69646 1.65141 4.31717 0.301566 
1.71116 4.81286 1.12881 0.989533 4.48669 0.254818 0.836553 3.78738 1.4807 
0.850324 4.69578 1.22858 3.57453 4.67635 0.130796 2.97711 2.77236 0.518796 
2.8513 2.4499 1.50392 4.83446 0.262687 0.302657 1.27331 4.51944 1.8593 
0.0576471 3.88475 1.9587 3.14045 1.49512 0.121372 0.59876 4.97087 0.536332 
4.54588 1.78366 1.11231 3.60978 1.38035 0.860485 4.84801 3.02927 1.169 
4.16638 0.480098 0.03352 3.02433 0.473693 0.119248 2.80518 0.879163 1.88202 
0.0570375 4.56244 1.48429 2.57499 4.19501 1.59612 4.2616 2.33374 0.556236 
0.519503 3.86633 0.702836 3.97521 3.38031 1.08652 3.14498 3.23811 1.91422 
3.78066 2.03813 1.4473 4.90762 1.34758 0.326699 4.90151 0.961813 1.22965 
1.16836 0.547092 2.18856 1.09254 1.69642 3.98122 2.2084 0.891129 3.87457 
-0.00791631 0.81395 2.05267 2.25733 1.54707 2.43285 2.60599 0.278942 2.4815 
1.60829 3.19837 3.71588 1.30686 1.91631 2.76049 0.0543875 0.966421 3.87293 
0.925889 1.02522 3.32491 0.517946 1.55613 2.87557 3.93382 4.95338 3.37103 
4.02578 3.47001 3.58315 0.399356 0.334346 2.69425 4.87416 3.3482 3.86933 
0.631973 2.15901 2.03648 4.08389 0.193794 2.26769 2.36905 3.00616 2.04222 
0.308637 0.0675149 3.63452 2.27259 4.65224 2.93769 4.86225 4.37726 2.54862 
1.7832 0.682303 3.07729 1.8956 4.21 2.19189 0.880433 2.34191 3.51732 
1.17103 2.65784 2.70372 3.22979 0.950218 3.52151 1.96524 1.72377 3.75874 
1.25437 3.39668 2.80515 3.86974 4.17123 2.34246 3.07502 1.62168 3.18433 
3.70601 0.901051 2.30201 0.592441 3.12524 3.44883 0.378783 3.04212 2.49682 
4.86948 0.523914 2.88381 4.21725 2.46233 3.04423 2.90989 4.58972 3.64414 
3.40373 4.87728 2.5113 0.909172 4.05561 2.73553 4.28173 2.33314 2.16881 
3.62144 1.55411 2.62675 3.77083 0.138692 3.23042 3.51368 3.2583 2.81108 
4.77024 1.25492 2.99542 3.52055 4.03918 3.2626 0.156178 4.17182 2.86359 
3.00178 0.131695 3.16646 3.39705 2.42551 2.49488 2.65599 2.1331 3.11756 
3.48803 2.53558 3.54398 4.36955 1.7322 3.4938 4.66811 4.46457 3.45924 
2.74522 2.92097 3.36961 2.8429 3.6885 3.75284 2.78443 3.94093 2.58821 
1.26886 4.94703 2.87163 4.95891 3.37708 2.92004 0.605661 0.110046 5.33424 
2.27776 0.839118 5.77566 3.92146 2.25176 4.68044 0.213655 1.57485 5.7924 
0.26544 2.35813 5.81412 2.59527 3.78783 4.68135 1.31121 1.03216 5.57596 
1.74496 3.10922 5.75693 1.32998 3.19307 4.8534 1.61292 0.932349 4.66548 
0.663696 1.04494 4.52178 0.608404 1.21833 5.34163 0.981966 0.314812 4.22487 
4.23436 3.0835 4.37592 3.37169 3.37319 4.15352 3.14061 3.26376 5.06374 
2.05246 2.67412 4.30122 1.90301 2.54542 5.34337 2.7568 0.769087 4.41231 
1.81871 1.75121 4.81937 1.24356 2.23186 4.69052 2.39944 4.31851 5.85006 
2.43635 2.36557 5.14219 4.15628 3.64562 4.95733 3.4652 1.94188 5.80977 
4.08884 3.75098 5.83007 4.25271 4.60383 4.9876 2.03584 4.24893 4.85209 
-0.0120416 2.12614 4.27771 3.30488 2.79496 5.69338 4.0491 0.334362 4.70016 
2.99843 2.62134 4.34217 3.45623 4.34342 4.32025 0.281361 4.66365 4.6654 
4.10416 0.773672 5.87801 3.46931 0.518224 4.1706 2.46531 1.34074 4.97631 
4.2113 2.72314 5.50662 2.94919 1.76565 4.12336 3.32993 0.0165785 5.22905 
3.0871 2.11375 5.0691 2.247 4.88951 4.16844 2.49818 1.78261 5.87966 
3.26902 4.248 5.35824 4.44144 0.252474 5.57913 3.01323 0.722488 5.29788 
4.88931 3.59165 5.50964 1.55467 1.09166 6.37344 2.42669 4.07583 7.05068 
2.62965 0.0233382 6.47041 2.35553 0.619423 7.66568 4.52101 2.32316 6.64138 
0.505297 0.783962 7.57321 1.32542 3.75118 7.99258 3.84923 2.72029 6.5009 
1.46208 2.52613 7.12827 0.715508 0.937783 6.38485 3.04725 2.39089 6.45604 
2.34119 2.0501 7.10298 2.96313 1.50693 6.67845 2.12498 0.610174 6.68431 
2.17919 1.26597 7.20708 1.33943 2.00425 7.88793 1.41372 1.941 6.05528 
3.4813 2.44048 7.84363 0.605385 1.77087 6.76995 0.822054 2.88488 7.72971 
1.31486 1.21215 7.26896 0.706478 0.0243501 7.73212 2.65589 2.6546 7.81612 
2.44368 3.54612 6.31676 0.839529 0.231974 6.84872 2.23873 2.65544 6.51126 
4.7805 2.71417 7.39456 0.135804 1.42535 7.92185 3.57389 1.19342 6.14659 
4.7404 1.31085 7.5692 2.38897 4.85212 6.5724 4.23847 3.40375 7.12414 
3.15654 4.3499 6.70374 2.89818 4.86293 7.47183 3.22708 0.432125 7.76347 
4.32647 2.99888 7.81097 3.56657 3.25836 7.89745 1.62774 4.19688 7.13637 
3.24004 2.89012 7.08629 3.81262 3.91601 7.23908 4.47608 2.06959 7.97028 
2.90708 3.4399 7.11424 0.351318 3.06792 6.36518 3.62221 3.87849 6.56339 
0.715657 4.69416 6.04606 2.71465 3.9973 7.80242 3.75655 2.08268 7.29547 
3.87118 4.58313 6.10696 3.965 1.4421 6.97493 1.43525 2.84474 8.74545 
2.17626 3.48555 8.36693 2.61204 4.83116 8.36514 2.2287 0.017802 9.38321 
1.94449 3.54866 9.66306 2.41371 1.90122 9.93019 0.456907 1.94271 9.38502 
1.11431 2.11571 8.77152 3.51932 4.8494 8.20688 1.82362 4.00263 9.02224 
0.85792 0.10404 9.30744 2.44295 0.911272 9.66789 1.85997 1.39362 8.11353 
2.22231 1.5372 9.09363 1.17079 1.34451 8.79705 2.40083 0.880639 8.5561 
2.5754 3.14916 9.68357 3.69007 1.10671 8.29925 3.92747 1.7557 9.78174 
0.802927 0.538898 8.54233 1.26635 0.955068 9.59186 3.29415 1.74462 9.13089 
3.02148 2.37336 9.14951 4.09926 2.69542 9.70652 1.02255 3.53145 9.69507 
2.50211 2.8346 8.90315 0.673962 3.37095 8.5848 0.0312019 2.85114 9.25252 
0.642685 3.96569 9.35919 1.75586 4.69705 8.51286 3.72405 2.07586 8.40078 
3.5735 0.148798 9.19452 3.37533 3.96505 8.23305 1.12243 4.31587 8.43952 
4.61891 4.5391 9.95329 0.591216 4.60672 8.71588 1.68824 4.75637 9.4595 
0.391237 4.66914 9.64578 3.57764 3.68702 9.08826 4.42275 1.85872 8.89071 
4.35329 2.73536 8.77236 3.25777 0.911161 9.1437 4.16923 3.52266 8.5358 
3.96349 4.8405 9.17067 2.90484 4.08233 9.11263 2.80491 7.47648 0.508403 
2.51391 5.59627 1.00696 4.8075 7.73929 0.851718 0.994974 9.36273 1.63483 
3.28328 5.3311 1.7172 2.84679 5.0154 0.557304 4.26817 7.38129 1.79031 
4.49654 7.73344 0.0609598 3.91444 7.07699 0.993003 3.40412 7.1241 1.58242 
3.57309 9.37039 0.128363 2.88557 6.18439 0.298999 0.476215 8.52949 0.188043 
3.51651 7.0769 0.208714 3.4547 7.9233 1.10944 3.03997 8.66261 0.8915 
2.98111 9.6848 0.608435 -0.0146867 9.45178 1.64519 3.42937 6.24515 1.45122 
0.187931 9.01265 0.922958 2.00126 7.38119 0.128703 2.50557 8.35364 0.0398996 
0.569813 5.82552 1.7216 1.46531 8.74576 0.589439 1.32514 5.7652 0.066693 
0.458829 5.68285 0.241342 1.69362 6.82836 1.12636 2.43542 5.14445 1.85318 
1.43462 7.30452 1.89122 3.89513 6.40523 0.442936 1.70701 7.82763 1.04377 
2.4429 6.88176 1.69223 1.59036 5.41268 0.680141 0.343196 6.87455 1.19457 
2.59779 6.25724 1.31338 4.56353 5.91287 0.418812 0.813781 7.67796 0.645546 
4.34343 6.21443 1.21423 0.247097 6.7182 0.31479 0.557918 7.68929 1.64117 
2.19245 8.92522 1.27727 1.34092 8.58259 1.60861 2.38947 6.63278 0.468581 
2.40561 9.37139 1.99903 3.13546 9.99873 1.50589 1.53847 6.46594 0.41234 
4.16761 9.95135 3.8881 3.14776 5.79694 2.76075 2.68872 7.62013 2.98531 
4.42246 5.15406 2.55243 4.62105 8.23473 3.8615 0.679474 8.06644 3.09638 
1.01202 7.82246 3.90067 1.15614 9.53984 3.69681 1.50019 9.16319 2.39178 
3.33211 5.39603 3.34469 2.95191 9.06463 2.64486 0.640727 9.65665 2.42743 
4.74383 8.22906 2.35633 0.352427 9.23134 3.34199 1.76986 8.35564 3.22965 
4.62425 7.31584 3.54412 0.558959 5.47119 2.57707 3.74856 7.50543 3.43167 
3.25946 7.12476 2.47054 2.96703 6.44723 3.36502 0.593158 8.74021 2.57056 
0.117637 7.19524 2.38267 3.95243 7.0046 2.5993 4.19914 5.88971 2.90271 
1.40604 5.35858 2.02028 2.09723 9.35848 3.16194 1.86058 8.22294 2.37183 
1.34935 5.0487 3.80513 3.50071 8.43883 2.2603 2.22042 6.84693 3.44146 
2.67905 9.23858 3.767 2.14879 6.96217 2.43618 2.65377 5.98114 2.15497 
3.50587 8.83175 3.97403 1.41049 7.31582 2.8676 2.17687 6.17991 2.8295 
2.40697 5.73614 3.80442 1.21925 6.48796 2.95318 0.579459 6.13671 3.56652 
2.28433 7.97274 3.77072 3.92093 8.41453 3.20983 3.88528 6.49496 3.3249 
3.97178 7.88818 2.01315 3.80906 9.36046 3.03095 3.92218 6.17668 2.13093 
0.492462 5.36029 4.03239 1.92014 9.94196 4.03758 2.97796 6.33167 5.37829 
0.201847 8.03218 4.83706 4.1619 5.94725 4.00664 2.81072 9.10276 5.1859 
3.1863 7.3105 4.90141 0.262738 8.93756 4.49613 4.81536 5.75627 5.86183 
2.50486 9.60436 4.67139 3.70975 8.09111 4.40708 3.29557 7.87682 5.39768 
3.74145 9.06626 5.78972 3.04672 5.02133 5.40432 2.6508 6.52533 4.42453 
1.74034 9.98767 4.99113 4.56572 9.88226 4.78659 3.88931 5.26717 5.9807 
1.04568 6.69305 5.94938 1.42968 9.28112 5.84745 3.73336 8.99586 4.88505 
1.84159 6.04733 5.89285 2.59673 7.99471 4.67585 2.82123 7.35386 4.10644 
3.95148 6.66012 5.30479 1.26075 7.23582 4.91388 1.79006 8.81978 4.09019 
0.121304 5.48538 4.88608 0.910586 5.88667 5.61158 4.00527 5.71491 5.17845 
1.18111 8.38555 4.84228 0.912911 7.50752 5.72415 0.587084 6.90723 4.23289 
4.13162 7.86609 5.8477 3.31774 5.93389 4.53033 1.80049 6.77528 5.39137 
1.43187 5.05726 4.76393 1.20472 6.3257 4.66596 1.20165 8.38615 5.80793 
0.515082 7.38464 4.86861 1.89846 7.0916 4.2132 0.218928 6.1367 4.32749 
0.239949 6.14378 5.30291 3.49324 9.75214 5.97819 1.85817 7.55998 5.74932 
2.69 8.32303 5.56861 4.45828 9.09645 4.24557 4.64214 7.49452 5.41308 
4.74368 5.04438 4.18851 4.76363 5.45838 5.03807 2.6776 7.40719 6.12551 
3.20615 5.27253 6.77672 3.02091 8.2878 6.45685 2.79259 6.97864 7.67035 
4.48329 6.05974 6.53273 4.17142 9.87562 6.57407 0.116694 5.05883 6.81077 
4.79449 8.92901 6.98874 3.60171 7.01382 6.00323 3.16217 9.80298 7.11751 
[...]
POINT_DATA 1000
FIELD FieldData 7
id 1 1000 int
431 65 618 843 947 516 901 329 883 
1000 898 648 822 886 216 549 755 400 
213 999 318 497 656 467 282 9 510 
335 582 921 707 864 106 531 307 858 
566 766 983 647 548 62 754 365 842 
484 770 584 598 772 865 846 237 272 
433 626 259 738 820 851 658 204 585 
538 416 882 427 980 679 597 275 725 
289 391 784 121 555 954 619 258 987 
742 445 943 346 208 625 313 428 929 
574 933 875 327 919 828 308 641 596 
224 743 650 748 603 331 524 244 529 
693 623 379 240 637 476 513 78 480 
56 321 771 541 134 247 434 446 741 
17 795 703 493 611 112 665 827 98 
410 449 347 249 39 925 789 472 185 
145 186 509 326 773 211 932 624 687 
936 879 975 245 708 534 278 418 383 
205 972 722 169 355 80 829 602 502 
781 861 189 902 944 141 207 719 613 
671 120 478 501 572 375 89 3 148 
97 894 486 488 924 547 439 816 171 
652 350 311 299 824 69 220 992 876 
343 590 594 241 314 908 257 881 264 
702 226 559 61 823 372 903 536 956 
721 233 236 281 138 616 592 139 586 
384 438 66 118 369 912 180 14 830 
51 374 225 674 492 935 403 86 131 
312 736 911 764 351 639 310 135 885 
777 218 107 92 571 176 266 398 986 
946 52 337 448 614 990 872 683 409 
197 928 48 520 716 305 976 570 99 
392 554 562 328 90 136 29 995 788 
129 563 558 579 874 195 362 163 373 
119 815 450 54 505 423 545 153 432 
248 81 595 174 473 684 103 143 945 
620 209 178 580 150 796 170 994 593 
123 458 832 900 818 643 965 262 841 
942 20 985 504 714 10 499 255 306 
203 44 989 569 897 464 967 105 511 
381 273 744 517 68 799 479 917 443 
678 757 699 22 285 53 546 884 58 
371 914 344 221 808 802 681 425 700 
801 336 977 231 838 124 192 657 704 
993 291 752 515 188 926 632 317 904 
82 669 115 751 577 166 591 253 198 
271 301 302 866 651 93 356 261 267 
377 837 527 922 673 532 140 537 575 
360 276 76 862 550 412 183 953 535 
557 31 8 390 116 27 978 57 146 
628 899 709 268 474 341 419 599 50 
152 73 414 435 199 468 588 490 470 
685 920 411 813 36 415 77 444 155 
793 202 85 440 475 758 161 426 797 
533 125 655 144 629 940 18 677 662 
222 283 765 966 79 587 280 339 91 
385 906 487 909 565 612 234 907 905 
110 265 680 670 404 661 461 857 210 
352 413 380 833 7 839 769 961 759 
760 974 804 627 21 149 551 217 581 
342 526 787 95 130 214 506 333 12 
175 288 172 228 370 1 600 359 340 
364 15 193 853 298 807 456 243 19 
159 293 767 731 206 727 358 429 460 
776 635 756 937 910 354 868 896 72 
749 930 609 430 407 803 779 514 775 
147 33 636 778 187 730 395 653 608 
568 659 406 137 25 786 111 605 792 
483 660 83 394 691 762 47 806 893 
780 482 692 465 889 606 361 102 421 
988 860 2 939 951 522 23 75 958 
437 621 251 672 277 844 863 805 729 
916 973 399 646 96 737 890 250 173 
424 654 402 200 345 688 869 768 877 
485 290 227 87 158 746 389 154 689 
223 46 918 284 583 785 880 287 94 
895 38 530 366 40 913 396 239 794 
948 539 845 996 800 232 717 887 543 
745 323 263 675 270 67 998 35 157 
127 142 201 923 316 11 750 242 126 
519 812 49 960 826 644 190 42 819 
156 196 74 269 303 454 212 968 734 
640 835 984 697 260 219 16 783 840 
495 348 740 761 850 386 521 162 37 
512 408 500 518 164 979 297 304 859 
179 246 955 962 690 969 160 698 888 
100 368 32 422 63 462 854 712 873 
589 109 682 645 452 252 871 405 59 
401 892 447 494 4 927 477 578 319 
791 941 852 938 357 666 481 763 664 
215 726 849 274 814 238 108 117 295 
607 334 469 376 378 322 950 667 349 
133 798 30 934 701 503 720 695 235 
855 455 631 309 457 949 991 915 471 
710 561 821 638 634 617 971 507 542 
604 848 256 560 363 300 286 733 715 
5 151 181 724 825 622 735 633 739 
728 191 630 676 491 834 55 544 952 
122 325 182 466 610 601 338 831 296 
810 553 931 254 101 315 132 64 367 
564 332 417 489 420 393 230 732 388 
540 387 959 459 113 705 43 878 847 
70 856 694 114 45 324 397 382 451 
573 13 615 870 891 88 441 790 567 
292 177 663 184 528 686 165 963 442 
997 24 782 713 642 279 498 60 463 
718 747 706 71 649 711 817 753 982 
128 970 229 723 496 6 552 294 836 
194 525 167 453 34 523 867 809 696 
436 576 28 957 981 41 84 104 508 
964 320 330 774 26 668 353 556 811 
168 
type 1 1000 int
1 1 2 2 2 2 2 1 2 
2 2 2 2 2 1 2 2 1 
1 2 1 1 2 1 1 1 2 
1 2 2 2 2 1 2 1 2 
2 2 2 2 2 1 2 1 2 
1 2 2 2 2 2 2 1 1 
1 2 1 2 2 2 2 1 2 
2 1 2 1 2 2 2 1 2 
1 1 2 1 2 2 2 1 2 
2 1 2 1 1 2 1 1 2 
2 2 2 1 2 2 1 2 2 
1 2 2 2 2 1 2 1 2 
2 2 1 1 2 1 2 1 1 
1 1 2 2 1 1 1 1 2 
1 2 2 1 2 1 2 2 1 
1 1 1 1 1 2 2 1 1 
1 1 2 1 2 1 2 2 2 
2 2 2 1 2 2 1 1 1 
1 2 2 1 1 1 2 2 2 
2 2 1 2 2 1 1 2 2 
2 1 1 2 2 1 1 1 1 
1 2 1 1 2 2 1 2 1 
2 1 1 1 2 1 1 2 2 
1 2 2 1 1 2 1 2 1 
2 1 2 1 2 1 2 2 2 
2 1 1 1 1 2 2 1 2 
1 1 1 1 1 2 1 1 2 
1 1 1 2 1 2 1 1 1 
1 2 2 2 1 2 1 1 2 
2 1 1 1 2 1 1 1 2 
2 1 1 1 2 2 2 2 1 
1 2 1 2 2 1 2 2 1 
1 2 2 1 1 1 1 2 2 
1 2 2 2 2 1 1 1 1 
1 2 1 1 2 1 2 1 1 
1 1 2 1 1 2 1 1 2 
2 1 1 2 1 2 1 2 2 
1 1 2 2 2 2 2 1 2 
2 1 2 2 2 1 1 1 1 
1 1 2 2 2 1 2 1 2 
1 1 2 2 1 2 1 2 1 
2 2 2 1 1 1 2 2 1 
1 2 1 1 2 2 2 1 2 
2 1 2 1 2 1 1 2 2 
2 1 2 2 1 2 2 1 2 
1 2 1 2 2 1 2 1 1 
1 1 1 2 2 1 1 1 1 
1 2 2 2 2 2 1 2 2 
1 1 1 2 2 1 1 2 2 
2 1 1 1 1 1 2 1 1 
2 2 2 1 1 1 1 2 1 
1 1 1 1 1 1 2 1 1 
2 2 1 2 1 1 1 1 1 
2 1 1 1 1 2 1 1 2 
2 1 2 1 2 2 1 2 2 
1 1 2 2 1 2 1 1 1 
1 2 1 2 2 2 1 2 2 
1 1 2 2 1 2 1 2 1 
1 1 1 2 1 2 2 2 2 
2 2 2 2 1 1 2 1 2 
1 2 2 1 1 1 2 1 1 
1 1 1 1 1 1 2 1 1 
1 1 1 2 1 2 1 1 1 
1 1 2 2 1 2 1 1 1 
2 2 2 2 2 1 2 2 1 
2 2 2 1 1 2 2 2 2 
1 1 2 2 1 2 1 2 2 
2 2 1 1 1 2 1 2 2 
1 2 1 1 2 2 1 2 2 
2 1 2 1 2 2 1 1 1 
2 2 1 2 2 2 1 1 2 
1 2 1 2 1 2 2 2 2 
2 2 1 2 1 2 2 1 1 
1 2 1 1 1 2 2 2 2 
1 1 1 1 1 2 1 1 2 
1 1 2 1 2 2 2 1 1 
2 1 2 1 1 2 1 1 2 
2 2 2 2 2 1 2 2 2 
2 1 1 2 1 1 2 1 1 
1 1 1 2 1 1 2 1 1 
2 2 1 2 2 2 1 1 2 
1 1 1 1 1 1 1 2 2 
2 2 2 2 1 1 1 2 2 
1 1 2 2 2 1 2 1 1 
2 1 1 2 1 2 1 1 2 
1 1 2 2 2 2 1 2 2 
1 1 1 1 1 1 2 2 2 
2 1 2 2 1 1 2 1 1 
1 2 1 1 1 2 1 2 1 
2 2 2 2 1 2 1 2 2 
1 2 2 1 2 1 1 1 1 
2 1 1 1 1 1 2 2 1 
1 2 1 2 2 2 2 2 1 
2 1 2 1 1 2 2 2 1 
2 2 2 2 2 2 2 2 2 
2 2 1 2 1 1 1 2 2 
1 1 1 2 2 2 2 2 2 
2 1 2 2 1 2 1 2 2 
1 1 1 1 2 2 1 2 1 
2 2 2 1 1 1 1 1 1 
2 1 1 1 1 1 1 2 1 
2 1 2 1 1 2 1 2 2 
1 2 2 1 1 1 1 1 1 
2 1 2 2 2 1 1 2 2 
1 1 2 1 2 2 1 2 1 
2 1 2 2 2 1 1 1 1 
2 2 2 1 2 2 2 2 2 
1 2 1 2 1 1 2 1 2 
1 2 1 1 1 2 2 2 2 
1 2 1 2 2 1 1 1 2 
2 1 1 2 1 2 1 2 2 
1 
i 3 1000 int
-52 0 0 -14 0 1 -26 0 1 
2 0 1 21 0 1 -82 0 1 
-59 0 0 -59 0 1 3 0 0 
-71 0 0 -37 0 0 120 1 1 
-27 0 1 155 1 0 -67 0 1 
-91 0 0 -49 0 0 -72 0 0 
111 1 1 -15 0 0 -42 0 1 
126 1 1 -53 0 1 161 1 1 
117 1 0 137 1 0 -35 0 0 
-53 0 1 10 0 0 -50 0 1 
-201 -1 0 -25 0 1 -32 0 0 
-40 0 0 116 1 0 -10 0 0 
143 1 1 -46 0 1 14 0 0 
-52 0 0 -67 0 1 -36 0 0 
-59 0 1 -98 0 0 -63 0 1 
26 0 1 -41 0 0 -43 0 1 
-27 0 1 -49 0 1 -43 0 -1 
-35 0 1 -44 0 1 -90 0 0 
83 1 -1 -13 0 -1 -74 0 -1 
138 1 1 -62 0 0 -96 0 0 
-25 0 0 -95 0 1 -61 0 1 
146 1 0 -60 0 0 -19 0 0 
-4 0 0 89 1 1 -21 0 0 
-49 0 1 -50 0 0 -27 0 0 
-116 0 -1 -13 0 0 -62 0 1 
119 1 0 -22 0 0 102 1 0 
-29 0 1 -55 0 1 80 1 0 
11 0 -1 -14 0 0 -42 0 0 
113 1 0 5 0 0 -3 0 0 
-83 0 0 -43 0 1 -16 0 1 
-10 0 1 -17 0 0 0 0 1 
-24 0 0 -41 0 0 -29 0 1 
-30 0 1 -8 0 0 -41 0 1 
-81 0 1 -37 0 0 -20 0 0 
101 1 -1 100 1 0 5 0 0 
-22 0 1 -188 -1 0 -6 0 0 
34 0 0 -36 0 1 -67 0 0 
-83 0 0 -46 0 1 -23 0 0 
-54 0 0 13 0 1 -55 0 1 
-26 0 0 8 0 -1 -69 0 0 
67 1 0 -46 0 0 -103 0 0 
-54 0 0 -27 0 1 -88 0 0 
-66 0 0 -53 0 0 -95 0 0 
126 1 0 -19 0 0 -8 0 0 
46 1 1 -37 0 0 -11 0 0 
-22 0 0 -9 0 0 -9 0 0 
-57 0 1 -69 0 0 33 1 0 
-68 0 0 19 0 0 13 0 0 
91 1 0 63 1 0 -55 0 0 
-14 0 0 -38 0 0 66 1 0 
-29 0 0 24 0 -1 80 1 0 
5 0 0 105 1 1 105 1 1 
-36 0 0 -80 0 0 33 0 0 
117 1 -1 -64 0 0 -36 0 0 
-101 0 -1 26 0 -1 -78 0 0 
107 1 0 71 1 0 -18 0 0 
-14 0 0 89 1 0 -88 0 0 
85 1 0 -11 0 0 94 1 0 
116 1 0 -65 0 0 -10 0 0 
102 1 1 101 1 0 -26 0 0 
0 0 0 -90 0 -1 7 0 0 
59 1 0 -45 0 0 75 1 -1 
-47 0 0 45 0 0 -14 0 0 
4 0 0 9 0 0 89 1 0 
-77 0 1 -37 0 0 67 0 0 
-19 0 0 -5 0 0 -5 0 -1 
7 0 0 62 1 0 -9 0 0 
-16 0 0 11 0 0 -44 0 0 
156 1 0 -101 0 0 -26 0 0 
-16 0 0 6 0 -1 -61 0 0 
163 1 0 -50 0 0 -51 0 0 
-24 0 0 -8 0 -1 -11 0 -1 
102 1 0 -60 0 0 -86 0 0 
-90 0 0 132 1 -1 -67 0 0 
-24 0 -1 -102 0 -1 -56 0 0 
106 1 0 -46 0 0 -70 0 0 
17 0 -1 -32 0 0 -19 0 0 
-15 0 -1 -27 0 0 120 1 0 
-33 0 0 26 0 -1 -16 0 0 
100 1 0 -31 0 0 20 0 -1 
23 0 0 12 0 0 115 1 -1 
4 0 0 -15 0 0 -39 0 0 
-17 0 -1 -101 0 0 -28 0 0 
-1 0 -1 -19 0 1 46 0 0 
-10 0 1 -147 -1 2 -116 -1 -1 
-45 0 1 -19 0 1 37 0 1 
-1 0 1 -9 0 0 18 0 0 
-87 -1 0 24 0 0 -109 -1 1 
12 0 1 17 0 1 35 0 1 
-90 -1 0 43 0 0 43 0 1 
33 0 0 134 0 1 90 0 0 
-4 0 1 50 0 1 3 0 0 
-4 0 0 14 0 0 185 1 1 
48 0 0 -7 0 0 47 0 0 
51 0 0 -43 0 0 53 0 0 
50 0 0 -122 -1 1 -65 -1 0 
-17 0 0 -71 -1 0 94 0 1 
24 0 0 25 0 0 -12 0 0 
60 0 0 -74 -1 1 38 0 0 
-86 -1 0 7 0 1 25 0 0 
-21 0 0 54 0 0 -92 -1 1 
16 0 0 95 0 0 -62 -1 0 
-9 0 0 71 0 0 49 0 0 
24 0 1 -77 -1 0 -107 -1 0 
85 0 -1 27 0 0 24 0 0 
-144 -1 0 24 0 1 70 0 1 
50 0 -1 9 0 0 42 0 0 
8 0 0 45 0 0 48 0 0 
5 0 0 -125 -1 0 15 0 0 
103 0 0 56 0 -1 16 0 0 
81 0 0 44 0 0 25 0 1 
-39 0 0 33 0 0 -32 0 0 
-57 -1 0 94 0 0 -26 0 1 
15 0 -1 -95 -1 0 38 0 0 
13 0 0 -128 -1 0 42 0 0 
33 0 0 196 1 0 -83 -1 1 
19 0 0 -50 -1 1 74 0 -1 
-88 -1 0 26 0 -1 57 0 0 
140 0 -1 21 0 0 18 0 0 
92 0 -1 63 0 0 -18 0 -1 
23 0 0 -102 -1 1 74 0 0 
-22 0 0 63 0 0 100 0 0 
48 0 0 18 0 0 47 0 0 
-6 0 0 58 0 0 25 0 -1 
63 0 0 82 0 -1 5 0 0 
9 0 0 32 0 0 37 0 -1 
-35 0 0 4 0 0 34 0 0 
54 0 0 68 0 0 -3 0 1 
18 0 0 -80 -1 0 49 0 0 
-133 -1 -1 68 0 0 58 0 0 
-33 0 1 6 0 1 83 0 0 
23 0 0 41 0 0 78 0 -1 
19 0 0 -64 -1 0 5 0 -1 
-119 -1 -1 16 0 0 36 0 0 
23 0 -1 -13 0 0 45 0 -1 
30 0 -1 -156 -1 0 45 0 -1 
102 0 0 89 0 -1 14 0 -1 
-128 -1 0 -117 -1 0 -21 0 0 
-50 0 0 65 0 -1 76 0 0 
9 0 -1 31 0 -1 59 0 -1 
27 0 0 -7 0 0 -99 -1 0 
-130 -1 1 -112 -1 0 22 0 0 
25 0 0 78 0 -1 30 0 -1 
78 0 0 76 0 0 73 0 -1 
-100 -1 0 -91 -1 0 65 0 0 
-33 0 0 38 0 0 -129 -1 0 
49 0 -1 58 0 0 81 0 0 
84 0 0 81 0 0 28 0 0 
46 0 -1 8 0 0 -59 -1 0 
24 0 -1 94 0 0 -7 0 0 
24 0 0 -78 -1 -1 62 0 0 
30 0 -1 41 0 0 24 0 -1 
52 0 -1 33 0 -1 14 0 0 
10 0 0 48 0 0 77 0 -1 
24 0 -1 -146 -1 -1 11 0 0 
30 0 0 -86 -1 -1 51 0 -1 
24 0 0 -100 -1 0 -33 0 -1 
118 0 0 -104 -1 -1 2 0 -1 
97 0 0 26 0 0 28 0 0 
94 0 -1 65 0 -1 59 0 0 
20 0 0 17 0 0 -17 0 -1 
-2 0 0 53 0 -1 114 0 -1 
164 1 -1 -118 -1 0 -133 -1 0 
4 0 -1 -95 -1 -1 22 0 -1 
-21 0 1 -17 0 1 -34 0 1 
137 1 1 -91 0 1 113 1 0 
-29 0 1 -53 0 1 -25 0 1 
-62 0 0 -37 0 1 -5 0 0 
-122 0 0 47 1 0 -71 0 0 
-23 0 1 -42 0 1 4 0 1 
-60 0 0 -45 0 0 -24 0 0 
-29 0 1 -43 0 1 -74 0 0 
-15 0 1 9 0 0 -34 0 0 
135 1 0 -2 0 0 89 1 0 
-46 0 1 -42 0 0 -31 0 1 
19 0 0 -33 0 0 -32 0 1 
12 0 1 -2 0 0 -32 0 0 
-47 0 1 210 1 1 -95 0 0 
-17 0 0 -83 0 1 -5 0 0 
-4 0 1 -21 0 0 -6 0 1 
-21 0 1 -66 0 1 -38 0 1 
-11 0 0 -15 0 0 9 0 0 
-60 0 0 -1 0 0 -69 0 0 
12 0 0 -5 0 -1 -109 0 0 
-75 0 1 -8 0 0 -127 0 -1 
-23 0 1 -25 0 0 -13 0 0 
-27 0 0 -59 0 1 100 1 0 
73 1 0 -66 0 0 -31 0 0 
-11 0 0 -35 0 0 -50 0 0 
126 1 0 -83 0 0 -48 0 1 
193 1 0 -48 0 1 -46 0 1 
-18 0 0 -21 0 0 -7 0 0 
-65 0 1 -152 -1 0 -33 0 1 
-16 0 0 -22 0 1 -16 0 1 
-59 0 1 -6 0 -1 101 1 0 
-117 0 1 -13 0 0 -23 0 0 
-24 0 1 21 0 0 98 1 0 
-18 0 0 -46 0 0 -82 0 0 
-77 0 0 136 1 0 -70 0 0 
-108 0 1 -60 0 0 -83 0 0 
45 1 0 141 1 0 -25 0 0 
-36 0 0 -42 0 0 -49 0 1 
-114 0 0 -81 0 0 -84 0 1 
52 1 0 14 0 0 81 1 0 
68 1 0 28 0 0 88 1 0 
63 1 -1 71 1 0 -72 0 0 
-53 0 0 -66 0 0 6 0 0 
-114 0 0 20 0 0 96 1 0 
-3 0 0 2 0 0 -80 0 -1 
-22 0 0 1 0 -1 92 1 0 
34 0 0 -15 0 1 -9 0 0 
-22 0 0 -29 0 0 -13 0 0 
-69 0 0 87 1 1 105 1 1 
-71 0 0 6 0 0 -24 0 0 
-21 0 -1 -101 0 1 66 1 0 
-25 0 0 -70 0 -1 107 1 1 
-45 0 -1 -32 0 0 -76 0 -1 
-37 0 0 -51 0 0 -26 0 0 
-22 0 0 -32 0 0 79 1 0 
4 0 0 -59 0 1 -106 0 0 
-104 0 0 89 1 0 3 0 0 
-30 0 0 -90 0 -2 124 1 0 
-67 0 1 89 1 0 -64 0 0 
4 0 0 4 0 0 -5 0 0 
-33 0 0 2 0 0 -49 0 0 
-9 0 -1 90 0 0 -56 0 0 
-84 0 0 -53 0 1 168 1 0 
28 0 0 93 1 0 -18 0 0 
-66 0 0 -51 0 0 -31 0 1 
-15 0 0 -11 0 0 7 0 0 
-26 0 0 -147 -1 0 47 0 0 
127 1 0 -78 0 0 -18 0 0 
-7 0 -1 145 1 -1 -47 0 1 
-39 0 0 70 1 -1 -77 0 0 
-3 0 0 -103 -1 -1 -22 0 0 
-24 0 0 -56 0 0 134 1 0 
-117 0 0 -89 0 1 -31 0 0 
-57 0 0 -69 0 -1 -61 0 0 
66 1 -1 -65 0 -1 -22 0 -1 
-69 0 0 -150 -1 0 96 1 -1 
-46 0 -1 41 0 0 -3 0 0 
106 1 0 145 1 -1 176 1 0 
-21 0 0 -52 0 0 -33 0 0 
25 0 0 127 1 -1 30 0 0 
-91 0 0 87 1 0 108 1 0 
121 1 -1 127 1 0 -38 0 0 
-84 0 0 -17 0 0 88 1 0 
-28 0 -1 -84 0 0 16 0 -1 
-82 0 -1 -25 0 0 -16 0 0 
-50 0 0 -9 0 0 -46 0 0 
-84 0 0 62 0 1 44 0 0 
-15 -1 1 64 0 0 -174 -1 0 
32 0 0 -5 0 0 9 0 1 
-101 -1 0 33 0 0 59 0 1 
93 0 0 -63 -1 0 -107 -1 1 
74 0 0 122 0 1 10 0 1 
-50 -1 0 50 0 0 64 0 0 
56 0 0 32 0 0 187 1 1 
-9 0 0 -17 0 0 129 0 0 
-162 -1 -1 49 0 0 99 0 0 
-4 0 0 56 0 0 -69 -1 0 
31 0 1 14 0 0 -7 0 0 
47 0 0 20 0 0 92 0 1 
-10 0 0 5 0 0 42 0 0 
49 0 0 36 0 0 49 0 1 
10 0 0 -98 -1 0 13 0 1 
66 0 0 52 0 0 -7 0 0 
32 0 0 -5 0 0 -91 -1 1 
11 0 0 -145 -1 1 24 0 0 
63 0 -1 17 0 1 33 0 0 
40 0 0 84 0 0 4 0 1 
-102 -1 -1 -97 -1 1 -126 -1 0 
-82 -1 1 -84 -1 0 57 0 0 
45 0 1 31 0 0 86 0 0 
-82 -1 0 -90 -1 0 30 0 0 
16 0 -1 -51 0 0 34 0 0 
84 0 1 -105 -1 0 8 0 0 
20 0 0 36 0 0 -23 0 0 
16 0 0 39 0 0 -21 0 0 
-138 -1 0 7 0 0 14 0 0 
30 0 0 8 0 0 72 0 1 
57 0 0 34 0 0 47 0 0 
69 0 0 46 0 0 99 0 0 
19 0 -1 57 0 -1 41 0 1 
47 0 0 -63 -1 0 -136 -1 1 
50 0 1 -117 -1 1 -14 0 0 
35 0 0 14 0 -1 61 0 -1 
58 0 0 96 0 -1 95 0 0 
24 0 -1 -31 0 0 43 0 0 
-123 -1 0 69 0 -1 19 0 0 
30 0 0 -92 -1 1 4 0 0 
23 0 0 79 0 0 52 0 0 
81 0 -1 48 0 -1 33 0 0 
54 0 0 8 0 0 37 0 0 
55 0 0 57 0 -1 54 0 -1 
46 0 0 34 0 -1 41 0 0 
39 0 0 47 0 0 34 0 -1 
43 0 0 -154 -1 1 22 0 0 
4 0 0 -39 -1 0 17 0 0 
64 0 0 51 0 -1 53 0 -1 
3 0 0 -92 -1 0 51 0 0 
64 0 -1 6 0 0 17 0 -1 
74 0 0 -136 -1 1 -91 -1 0 
-122 -1 0 -106 -1 -1 83 0 0 
14 0 0 32 0 -1 -53 -1 0 
-62 -1 0 88 0 0 18 0 0 
49 0 0 -96 -1 0 -140 -1 0 
-146 -1 -1 57 0 0 60 0 0 
49 0 -1 -88 -1 -1 1 0 0 
-65 -1 0 0 0 -1 95 0 0 
10 0 0 27 0 -1 45 0 0 
34 0 0 -84 -1 0 13 0 0 
-171 -1 -1 48 0 0 44 0 0 
43 0 0 34 0 -1 27 0 -1 
53 0 -1 53 0 0 6 0 -1 
21 0 0 101 0 -1 66 0 -1 
-120 -1 1 -126 -1 0 221 1 -1 
143 0 0 21 0 0 100 0 0 
-101 -1 0 -116 -1 0 47 0 0 
36 0 0 12 0 0 46 0 -1 
17 0 -1 59 0 0 2 0 -1 
22 0 0 123 0 -1 -59 -1 0 
61 0 -1 94 0 0 1 0 -1 
53 0 -1 59 0 0 98 0 -1 
-146 -1 -1 -114 -1 -1 97 0 -1 
36 0 -1 110 0 0 -62 -1 1 
-1 0 -1 98 0 -1 16 0 -1 
40 0 0 52 0 -1 29 0 -1 
43 0 -1 43 0 -1 -106 -1 -1 
88 0 0 -1 0 0 -147 -1 0 
39 0 -1 28 0 0 37 0 -1 
-71 -1 0 94 0 -1 -11 0 0 
64 0 0 63 0 -1 8 0 0 
6 0 0 
v 3 1000 double
-355.85315946 -17.420942089 3.8673634013 -333.41349369 9.5688983243 34.525132369 -321.20828174 5.2982035084 -6.8300877512 
-200.83463047 -20.347707794 -5.4456958027 -80.534079937 -3.4130643119 24.191667516 -145.12181506 17.837762948 15.465837854 
-294.57109989 -2.0323333404 8.641500788 -409.34524214 -10.422549549 26.074954822 -292.29021096 13.805882305 1.5688291337 
-235.2062316 33.537666763 16.723676811 -136.55301787 -17.113279721 19.638025311 -221.42881752 -4.6839686042 -21.166248017 
-456.17501676 -4.4106736047 6.7479848795 -150.64327772 -4.7453918239 -2.5810252367 -441.36046319 -15.465270065 -0.79311450086 
-379.55528444 14.67605787 11.244070973 -24.383773159 0.74299526346 5.8307291577 -392.54425579 -26.377650907 13.30886018 
-206.00775925 5.0302290422 1.1862714411 -256.7070182 -5.0724100459 -14.424722451 -323.68529464 -12.752901081 -23.774275699 
-441.95825758 1.3664049674 -1.5213876057 -319.94650077 -3.5690792941 18.107165974 -91.579486465 11.800235159 -23.719347016 
-385.93477518 -21.020162359 15.054574628 -158.56246155 -9.1500173334 24.703331255 -46.232504459 -5.3428194628 -4.3040235286 
-62.730739248 14.411982912 11.875639381 -47.510645791 -14.691537058 -12.605580389 -119.17960022 2.6813135049 25.955774739 
-56.755790007 7.6227679214 -2.1941238567 -4.034463716 -30.023914272 8.5050176531 -248.86659977 17.43353997 -3.3907187076 
-277.89217646 28.945244931 -5.4298552658 -469.2139679 2.7617480069 30.16749387 -65.54795562 -5.3602418748 33.441193019 
-103.51995821 -24.951331851 7.7732189097 -301.03785525 -13.836188751 -10.337959058 -17.370978354 10.710490324 -10.075694199 
-321.41320056 7.163750697 -2.2902253637 -346.45493964 17.815826452 4.4609839039 -214.03783102 16.452896458 15.230433247 
-447.81972404 5.4519518786 -29.287651882 -385.56629839 -18.239114689 -7.0852104376 -369.59117479 -14.59033822 4.7913203837 
-62.732110617 -4.952468887 14.779094468 -98.199792563 2.4064492958 -23.829074522 -261.52928132 6.378850432 18.137983957 
-119.943602 0.14096857274 -1.1181543173 -205.66285764 15.980853097 -18.982935636 -228.34757066 31.492177425 -8.2026530453 
-321.06623007 35.820382125 -0.48605477446 -338.19291974 -8.1481311982 7.3858325772 -383.01785542 -12.149981184 11.695532348 
-457.71215905 9.7034956697 -7.5490591863 -317.88298452 -19.85875659 3.0876132935 -419.541143 -14.483459682 -12.370729749 
-405.94544009 -0.7983993606 -18.87876002 -366.52128968 7.4048524814 -5.0610399266 -430.98225131 -25.699519989 9.3401033816 
-205.30510635 28.248932962 -7.8485378946 -328.05319836 7.5333050846 2.2612076826 -408.28148057 5.6508240272 -0.47459391347 
-380.81139973 -6.4592898616 10.986221759 -324.90169234 3.9653415602 -17.02786195 13.61244434 -9.2806559887 18.021189356 
-162.70329844 17.20118715 -14.755941734 -431.54583203 19.054138645 14.325563627 -192.57098018 25.565174365 -1.4163670324 
-300.42439161 13.877736302 -8.3458942928 -450.63955501 -24.74178131 -8.894685518 -223.92698005 2.2289666573 3.5068202659 
-487.99181063 7.2482005926 11.885846122 -35.421965981 9.9395325685 16.010951224 -81.638457336 -0.61181639713 -10.665186994 
-411.99439428 -11.927957747 -12.883705263 -53.282404627 -20.140149714 35.305199778 -283.88656567 6.4468687194 -3.6329280193 
-228.53064334 6.9637152666 -14.019425917 -394.6829311 -5.7730872457 -4.1205212075 -320.74245673 12.290647541 -19.604846933 
-148.56559161 21.677584074 12.197238416 -94.723180523 -0.070333239144 -21.911257965 -337.6349118 0.34530517289 -1.8448092627 
-423.16207683 0.12755191792 -4.9935660844 -152.31996575 4.2594341551 13.76858563 -177.04897986 9.4585806752 33.607941346 
-480.50687066 2.3799755232 -29.607476238 -254.11894423 27.809960307 12.847257253 -26.35520996 10.034189983 4.0634646186 
-3.3893930506 1.4860839786 14.885312392 -116.13338615 34.437272737 0.10542068321 -261.68173118 2.886693693 -2.9223914283 
-345.27474331 23.706451264 5.9653266844 -501.36307783 21.228964408 -21.794237982 -171.50634915 4.0149934173 -12.316760815 
-367.33671062 9.2909495692 -23.961596054 -86.421659263 27.005326265 -6.9439433835 -84.044963062 11.169471132 6.0640448189 
-459.76730605 -26.798272701 20.192071497 -267.35265482 -2.8358756013 -5.9285301114 -283.21347883 -7.4307784635 -3.4308144645 
-254.72841596 5.9812971204 14.310169263 -329.43143252 -1.2907145224 18.861343027 -63.654501819 3.8293590856 -11.506663588 
-182.61872248 -3.470068039 3.1339697901 -103.60953003 -6.0781395737 1.250410359 -78.214118405 -18.840414077 -15.357975896 
32.418810291 -12.188369534 8.4342483733 -179.34949964 3.6030683982 -3.5221115983 -534.90483522 4.8648760767 -13.946886971 
-431.54546923 -12.772460959 7.8527396928 -285.63362782 1.0346509253 -14.837824933 -373.08027823 13.507224865 20.843481827 
-284.71746008 31.327110416 25.725647219 -82.326602309 -13.125102767 -0.23577801095 -404.59542534 -2.522719537 2.7410700953 
-184.02858199 24.123370387 16.80064253 -171.4133136 10.011634608 -6.437290724 -402.07581426 -26.413309708 5.0057903692 
-409.35655243 4.4273300475 1.9358392512 -409.93487263 -1.6184824528 -8.8402648681 -488.19550704 0.13580490718 21.911007362 
-186.17355531 -19.785101353 -20.476179272 -138.5624324 10.771340739 15.015400105 -122.59871973 -2.4364192754 1.8222565021 
-221.46022272 -0.3724154775 1.0693335133 -255.31736118 -8.1396706027 2.8156962564 -435.52480777 -13.36829921 -1.2815666334 
-285.1388898 -16.796078062 -2.2020813965 -249.62449081 3.7577583995 3.8933571573 -29.722894624 -5.3458684669 -31.593851561 
-274.60573552 16.824155496 -0.70967173595 -140.69465102 13.681872163 -12.015578672 -323.75418189 8.3063433628 -16.530360679 