# vtk DataFile Version 4.2
Generated by LIGGGHTS
ASCII
DATASET POLYDATA
POINTS 1000 float
1.7597 2.38316 1.96115 2.16987 1.68895 0.893441 0.40246 0.0589171 1.69295 
1.16172 0.825292 0.986377 1.84718 0.215924 0.0984326 0.387288 2.84843 0.935344 
2.10337 3.59165 0.366916 1.35302 0.190776 1.59225 0.618456 1.99593 0.678574 
1.84613 3.25808 1.18877 2.46668 1.92354 0.0151969 2.18105 0.857799 0.765242 
0.745598 2.84811 1.81218 0.770433 3.16755 0.00839639 0.815989 1.02481 1.81191 
1.64645 2.64861 0.297188 4.44901 1.91495 1.28325 1.07482 1.67844 1.09292 
0.257855 0.347441 0.484929 2.16179 2.4328 1.09185 3.90401 4.6085 0.325068 
4.01677 1.38858 0.434221 4.60147 1.00842 1.10348 2.08419 4.86744 0.822994 
2.75719 0.546295 0.261531 3.50665 0.433576 0.281967 4.55211 3.11561 1.73079 
4.11775 3.87058 0.0952937 3.76968 0.283858 1.66793 3.37402 2.24186 1.88647 
2.52297 4.26345 1.04841 4.10861 4.93755 1.81291 3.08377 4.85153 0.353328 
0.196086 4.03239 0.73717 3.27517 2.44731 0.238621 3.79893 1.03416 1.20371 
0.430182 4.37932 1.96594 3.88706 3.52864 1.00138 2.72049 3.63092 1.55922 
3.68412 3.17271 1.85979 0.991984 4.06819 0.12469 0.634838 4.83815 0.97527 
4.4761 0.287339 1.66091 3.25712 4.71276 1.68978 0.219253 3.48413 1.60416 
3.03428 0.675025 1.69848 2.99508 1.05215 0.897969 3.16918 0.109647 1.03813 
3.05165 2.71344 1.21117 3.11501 3.88593 0.70766 2.9233 3.06769 0.345468 
3.47236 1.88067 0.997349 4.38549 0.624012 0.248713 4.89772 1.58992 0.300421 
1.40217 0.733103 3.33355 1.94769 1.34817 2.02036 0.881976 1.40911 3.04245 
0.532894 1.73038 2.20947 2.57047 2.32486 2.27717 0.160725 2.54702 3.99495 
0.0285876 2.04831 2.69753 4.85828 3.36819 2.76945 1.69955 3.3094 3.1138 
2.20997 2.16999 3.97081 2.51682 3.44447 3.59112 2.42336 1.48951 3.06413 
4.01312 0.111431 2.84151 3.4785 4.74315 2.57735 1.08983 2.87525 3.79631 
1.85304 3.61332 2.06524 2.3352 4.14985 3.54677 1.11528 0.534763 2.50527 
4.09988 0.981018 2.17544 0.941492 2.36471 3.00789 2.27046 4.32974 2.65425 
4.79367 0.537455 2.85732 1.93838 2.25118 3.03654 2.30218 1.29359 3.94092 
2.32322 3.03106 2.59677 3.79401 0.85285 3.11018 0.186364 2.96265 2.83914 
2.96064 2.39687 3.42687 0.0145601 4.43416 2.77468 3.6378 3.20216 2.97377 
1.27889 4.1946 2.1788 2.96373 0.956042 3.11696 1.7876 4.9785 3.3289 
4.7165 0.124437 3.86569 2.89704 1.44984 2.24445 3.67209 1.94362 3.07497 
4.49903 1.38633 3.3146 3.08779 0.147871 3.49216 0.832936 4.82635 3.37193 
4.5908 4.1721 2.10724 4.06155 1.76373 2.20534 3.34762 4.35762 3.38909 
4.20661 2.59843 2.451 3.20821 1.35423 3.85588 3.28197 0.647242 2.47574 
3.82869 2.41104 3.92204 3.06379 3.55151 2.36586 3.16986 3.31378 3.75819 
4.00496 0.377152 3.77607 4.24574 4.61759 3.86597 4.36919 3.22377 3.50081 
4.34345 4.55536 2.96872 4.5605 2.23769 3.34296 4.95917 1.68794 2.05125 
1.69587 2.6231 4.34992 3.13815 0.0376159 4.39026 1.21028 0.539518 5.03943 
2.20666 2.47738 5.14707 2.34997 3.49501 4.59225 0.223422 0.840203 5.37989 
4.13843 2.63549 4.81154 2.48176 0.464411 5.63094 3.12781 0.655016 4.93003 
0.679373 2.13661 5.73276 3.2122 2.07015 5.82414 0.397309 1.87065 4.39701 
2.12623 1.76785 5.5972 1.68921 0.563998 4.08706 1.62799 1.43322 4.57478 
4.91588 0.896071 4.52079 3.32368 3.60001 4.7161 1.32029 2.54977 5.15552 
1.68261 3.45705 5.2029 2.30391 4.30046 4.80794 0.775607 0.547602 4.13377 
4.06751 0.0790448 4.76694 4.03433 1.02747 4.17043 3.14961 4.51136 4.33325 
2.61243 1.49225 4.88562 4.25476 1.35247 4.95032 2.42616 0.610872 4.73649 
2.47337 3.33738 5.62476 0.267399 3.56239 5.04556 0.381018 2.62214 5.01149 
2.65768 2.85151 4.50423 0.853192 3.59999 4.18179 3.24175 2.50536 5.02814 
3.52707 0.842506 5.79213 -0.0285853 4.90996 4.62473 0.147406 2.57341 5.99519 
4.47272 2.249 5.43845 3.11242 0.0453082 5.46148 4.0146 0.454583 5.53419 
1.90338 4.57917 4.09996 4.42612 3.54062 4.8203 3.82294 4.44667 5.09966 
3.41767 4.60116 5.87972 3.95909 1.65681 5.84892 0.185168 4.78464 5.62658 
1.20921 4.80175 4.38831 3.24593 3.78691 5.83148 3.50021 1.79341 4.59916 
1.65461 4.34084 5.63212 3.90373 3.61729 4.09671 3.94643 3.55101 5.49834 
4.82672 3.92748 5.79868 4.93974 2.75794 4.49074 2.53952 4.28214 6.54188 
2.53154 1.848 7.34495 3.55488 0.675423 6.81145 2.48169 2.52592 6.10781 
1.08026 3.46417 7.75551 3.32148 2.98186 6.04781 2.2547 3.39296 6.53862 
0.0568009 4.22194 7.94499 1.58519 1.67009 7.24327 4.18545 0.783699 6.38351 
1.82819 0.292146 6.49185 2.22563 2.41001 7.93311 0.841231 0.700657 7.1119 
1.35073 1.59612 6.30786 0.635544 1.71054 7.10667 4.08156 1.00511 7.48055 
2.00242 3.42723 7.63351 2.30698 0.330654 7.36337 4.35684 2.61768 6.36225 
3.95086 3.58052 7.77853 2.52205 2.75264 7.07401 0.603651 2.63388 6.76558 
4.84829 3.93582 7.07294 2.28661 1.05815 6.96965 0.349334 1.28847 6.12901 
4.44835 4.7818 6.02918 4.33176 0.286952 7.04011 3.59196 2.04377 6.63419 
2.17024 1.11645 6.05906 3.87053 4.37713 6.70983 3.17249 2.61677 6.81956 
2.99791 1.589 7.96157 4.13262 3.60327 6.43914 0.381111 3.82573 7.20181 
4.22155 1.65994 6.82983 2.76753 0.53181 6.47526 3.30857 1.2928 7.18185 
4.34341 2.54005 7.24456 3.15884 1.28892 6.21067 2.9239 3.69576 7.66267 
4.63229 0.450817 7.86689 3.00873 4.60295 7.32946 4.36591 1.86052 7.76009 
1.63402 4.75607 7.37087 3.21036 2.80741 7.67161 0.546713 4.63244 6.5744 
3.08606 0.422186 7.61026 1.56346 4.38791 6.58977 3.83094 4.87283 7.42401 
4.93222 1.55113 6.24243 2.33073 0.980054 8.33838 1.44009 0.674968 8.12471 
0.308143 1.89847 8.98924 1.63221 1.17826 8.95568 2.22354 2.54099 9.53694 
4.59834 3.4165 8.41526 0.726529 2.07716 8.03528 2.25193 1.7438 8.50835 
2.10118 0.203597 8.26828 2.37608 0.477444 9.43804 0.160937 0.746487 8.87461 
3.30673 2.54018 9.3411 4.14472 3.04219 9.39689 2.41961 3.58496 9.00742 
0.935829 1.40429 8.53231 3.3218 2.43274 8.43155 1.67656 3.77986 9.26764 
0.969038 1.50668 9.58853 1.70822 1.07808 9.95292 0.270598 2.30016 9.75237 
1.66715 0.519197 9.17018 3.88083 0.34762 8.80188 3.40698 3.47554 9.51084 
4.49374 4.55598 8.6658 2.72589 3.70498 9.83963 2.22937 4.56713 9.95156 
1.43759 4.36333 8.27533 4.88425 0.331139 9.56326 3.40886 4.63039 8.89895 
2.80452 4.48726 9.44383 0.635391 3.0933 8.52356 3.11339 0.661368 9.17193 
4.06108 4.61365 9.42877 3.63798 0.92893 8.27799 0.574514 4.59066 8.64582 
3.87836 2.10873 9.97259 2.7931 0.104934 8.54889 2.89708 1.35324 9.89203 
3.15277 1.29756 8.7744 3.72404 1.87122 8.13119 2.62311 4.35814 8.24105 
2.64716 1.72466 9.11161 0.873822 3.95432 9.13743 0.164399 4.14379 9.69535 
3.84868 2.04323 9.03542 2.61249 2.5755 8.7149 3.0505 3.39092 8.54832 
3.83691 3.43843 8.74294 1.08825 4.96423 9.54134 4.58606 1.98973 9.40359 
4.61028 2.54129 8.35105 4.69726 1.08559 9.37316 4.83312 0.162815 8.69214 
4.87062 1.64182 8.43859 -0.0403741 7.54176 0.689198 1.87336 9.53019 0.632478 
0.716737 8.55169 0.155425 3.31556 7.19409 0.129451 0.553872 6.49001 0.136711 
-0.0611141 8.49877 0.717052 4.36921 7.30459 0.221639 2.76918 6.44061 0.633574 
4.02726 9.91053 0.808442 3.01624 7.2056 1.66751 3.82205 6.56703 0.643083 
3.27422 5.95547 1.43736 4.52796 8.18454 1.91771 4.04134 5.90819 1.04175 
2.67815 5.18188 1.41112 0.270853 9.48531 0.8285 2.7073 7.80545 1.80511 
2.90274 6.478 1.39116 2.72113 8.68228 1.93868 1.13536 9.28369 1.10063 
2.99052 5.6294 0.636724 0.54665 8.50596 1.87947 3.46454 9.16294 0.354059 
3.48354 8.60827 1.91073 2.63497 9.63964 0.419176 1.08465 6.60519 0.976513 
3.99521 8.32805 0.372334 0.667637 6.63623 1.9473 2.21801 5.47884 0.0556155 
1.34244 8.06074 1.68265 3.22848 7.70917 0.899478 1.67463 5.90717 1.12275 
2.02928 6.80085 0.824789 1.56917 5.65827 1.92541 0.6573 5.76551 1.3177 
2.35717 7.93401 1.16151 1.42514 5.61801 0.254911 1.58402 8.13181 0.504377 
0.574024 5.57618 0.478993 2.1104 9.31022 1.77819 1.13929 9.41059 0.0738689 
4.02521 7.40326 1.26965 2.49314 8.86279 0.979965 4.77644 6.88881 0.908174 
3.79317 5.68252 0.190076 2.12352 6.63955 1.72741 1.58377 7.2512 1.61176 
3.06888 9.51551 1.66415 4.74528 9.53285 1.24506 4.77701 8.12559 0.349051 
2.38245 8.69383 3.30347 3.01739 8.16351 3.00354 2.68321 6.68918 2.36231 
3.62079 5.22134 3.83892 2.11096 9.70321 3.68131 3.20179 7.69651 2.46163 
0.330535 9.57511 2.36945 0.435127 9.79381 3.24956 3.4882 5.74207 2.13964 
1.93881 8.81532 2.52513 1.07028 9.23082 3.29598 2.70056 5.10212 3.52739 
4.64182 9.72069 2.25585 3.70014 8.9241 3.24557 3.90296 5.57767 2.98471 
4.45401 7.24916 2.78811 2.82229 5.21847 2.6367 4.2172 8.40943 3.66138 
2.489 5.91285 2.58797 0.530479 7.15034 2.84312 1.35708 7.37053 2.74354 
4.31701 6.38328 2.80879 0.344232 5.39496 2.84022 1.34733 6.09024 3.46272 
1.24102 7.09702 3.80023 1.36383 5.50459 2.77161 1.05494 6.41064 2.68492 
2.53022 7.9182 3.77277 2.05968 8.03951 2.24819 4.45756 9.51843 3.18982 
2.08316 5.01641 2.03553 0.548073 5.40275 3.99529 2.5412 9.2232 3.97492 
2.05554 7.33437 2.42394 3.34642 7.27035 3.25244 0.0237978 7.11623 2.18225 
3.62626 9.33659 2.41278 1.11593 8.32824 2.67827 4.25175 6.10492 3.82286 
0.481394 6.57405 3.46197 2.33306 6.17305 3.69927 1.82784 6.43386 2.63412 
0.708795 5.66084 2.10958 2.45074 9.87691 2.74524 1.59133 7.91103 3.42278 
1.97938 6.99878 3.42586 0.899323 8.54335 4.40401 3.56228 6.86595 4.16743 
1.40099 5.27586 5.97683 2.97712 8.749 5.0824 1.8434 9.88553 4.46096 
0.470765 8.53513 5.65602 4.03294 5.39887 5.46985 3.14081 5.87645 4.17785 
3.21107 5.37172 5.10247 3.95903 5.32956 4.60684 2.92236 6.76007 5.18513 
3.53158 7.7747 4.41177 2.42484 9.35443 4.86685 3.63827 9.4768 4.05976 
0.166467 9.01742 4.99719 3.30134 9.48043 5.62893 0.826173 9.67086 5.41255 
2.36617 7.92939 5.18669 2.01629 7.09403 5.79296 0.233605 5.72582 5.61215 
1.25313 5.99086 4.77795 0.824929 7.83502 5.90267 2.5352 6.89158 4.28857 
1.38143 5.52363 4.03224 0.385036 7.73254 5.04723 2.01665 8.69436 5.71644 
1.84982 8.45737 4.17016 0.730374 7.71113 4.16007 1.41527 9.18453 4.95175 
-0.040169 6.91189 5.78819 1.83797 6.90702 4.8591 2.55467 5.73984 4.85907 
1.67533 8.34478 4.99565 4.31637 9.08684 4.4546 2.06576 6.14901 5.3467 
4.22239 7.33472 5.44798 2.45643 5.46769 5.86349 1.43569 7.5019 5.45717 
0.0768585 5.96875 4.51512 2.15891 9.55609 5.74323 1.02865 6.99835 4.67667 
[...]
POINT_DATA 1000
FIELD FieldData 7
id 1 1000 int
794 947 197 984 941 288 547 802 654 
644 1000 689 806 23 958 254 354 284 
713 542 922 648 414 216 670 25 533 
795 443 418 986 810 218 78 106 263 
699 80 530 593 511 213 695 214 905 
440 207 887 413 186 318 480 853 395 
185 786 208 769 778 482 598 65 803 
182 566 232 855 90 327 579 406 51 
708 828 912 358 956 782 919 658 347 
702 896 481 196 333 472 729 247 629 
548 777 553 735 808 104 620 647 309 
961 816 845 96 935 957 975 139 665 
575 169 300 608 951 983 428 205 763 
667 798 995 95 551 495 211 76 400 
770 351 823 466 203 516 10 338 224 
931 908 812 161 624 826 572 497 721 
875 771 822 306 532 206 988 596 58 
380 504 785 862 445 610 190 200 766 
373 960 484 446 609 791 199 159 272 
154 346 225 616 932 17 155 310 544 
910 977 336 479 2 121 415 954 102 
270 552 510 22 611 671 278 55 441 
929 740 348 319 878 241 819 987 743 
869 486 331 470 573 694 509 173 98 
201 959 147 736 316 809 930 980 955 
16 408 581 899 868 163 717 388 321 
621 502 349 433 630 550 423 391 537 
252 726 305 157 167 503 108 31 767 
483 978 880 140 360 541 249 790 687 
577 521 491 298 489 128 103 453 411 
420 696 274 925 46 545 768 455 129 
268 569 401 571 997 181 226 637 664 
538 202 886 397 873 529 259 807 515 
752 409 651 412 950 528 534 603 325 
471 857 679 427 279 682 874 19 323 
698 29 179 38 376 370 841 248 731 
543 820 88 514 916 851 83 11 407 
177 847 176 442 831 212 625 394 728 
583 26 81 285 12 638 313 727 437 
920 942 488 449 642 765 513 712 187 
799 387 255 964 334 273 818 917 691 
53 800 215 686 227 191 982 813 110 
92 271 732 250 32 633 600 499 233 
114 294 985 469 602 892 367 120 519 
59 871 456 234 963 838 535 286 507 
366 297 898 599 937 622 967 123 720 
525 564 659 705 476 998 834 382 585 
417 973 192 928 584 18 54 166 112 
15 107 693 594 934 716 836 57 933 
815 662 617 66 377 784 402 578 628 
555 718 943 359 730 936 776 175 34 
438 645 615 750 774 678 618 404 498 
242 849 457 463 276 805 517 448 315 
684 559 170 27 635 946 302 422 879 
605 322 374 381 755 335 824 814 632 
144 719 304 116 505 150 976 554 291 
330 953 972 223 362 692 137 894 520 
3 329 465 386 952 339 431 91 877 
966 468 904 842 9 21 372 109 189 
741 389 439 652 383 568 760 582 350 
924 993 870 56 623 361 100 210 425 
549 447 193 858 266 307 850 133 478 
557 656 222 792 454 540 701 893 829 
562 134 79 939 426 357 506 913 895 
97 251 172 918 231 416 619 293 848 
909 640 844 149 130 228 153 843 24 
142 744 612 614 138 833 62 631 526 
860 700 364 556 126 243 994 337 821 
450 295 923 178 661 487 356 290 101 
613 827 115 40 673 938 989 783 156 
421 8 626 180 804 67 565 927 459 
6 889 570 33 390 436 835 399 780 
61 35 697 352 312 71 944 788 246 
492 5 282 674 949 666 64 132 363 
93 260 897 82 1 746 650 237 42 
592 168 586 646 435 204 748 747 607 
50 485 501 756 320 464 375 86 7 
970 43 94 253 277 863 245 606 257 
672 184 125 675 332 737 992 759 371 
595 314 865 410 136 971 287 711 738 
430 861 683 39 165 921 981 590 797 
601 281 787 283 722 940 393 733 235 
999 217 761 264 148 891 881 524 378 
311 911 580 353 221 162 906 660 198 
84 460 926 171 275 539 52 419 60 
588 704 883 20 627 742 574 655 508 
681 991 368 677 518 493 4 690 758 
135 164 343 567 265 424 962 888 405 
634 340 152 151 41 461 680 739 846 
801 837 209 28 587 194 597 723 762 
839 948 817 85 885 342 63 901 261 
434 174 709 267 141 269 160 576 864 
111 996 143 707 317 832 522 500 779 
385 825 458 341 902 244 560 131 324 
118 563 490 396 789 240 636 75 974 
477 703 344 238 473 262 258 289 195 
14 890 512 745 230 688 604 685 451 
45 781 900 830 811 914 145 122 558 
113 657 536 724 915 591 444 99 379 
299 715 523 663 117 725 398 907 641 
589 74 256 639 793 945 105 365 866 
872 158 757 969 734 903 531 496 44 
239 668 751 676 979 968 475 72 188 
859 308 653 87 669 69 48 146 546 
369 462 355 854 990 867 292 280 68 
754 796 119 714 220 70 452 73 37 
649 47 561 219 326 296 882 328 643 
965 429 773 749 474 89 183 876 840 
764 124 772 127 706 301 527 345 884 
467 753 403 384 856 30 392 77 36 
303 49 775 13 710 236 229 852 432 
494 
type 1 1000 int
2 2 1 2 2 1 2 2 2 
2 2 2 2 1 2 1 1 1 
2 2 2 2 1 1 2 1 2 
2 1 1 2 2 1 1 1 1 
2 1 2 2 2 1 2 1 2 
1 1 2 1 1 1 1 2 1 
1 2 1 2 2 1 2 1 2 
1 2 1 2 1 1 2 1 1 
2 2 2 1 2 2 2 2 1 
2 2 1 1 1 1 2 1 2 
2 2 2 2 2 1 2 2 1 
2 2 2 1 2 2 2 1 2 
2 1 1 2 2 2 1 1 2 
2 2 2 1 2 1 1 1 1 
2 1 2 1 1 2 1 1 1 
2 2 2 1 2 2 2 1 2 
2 2 2 1 2 1 2 2 1 
1 2 2 2 1 2 1 1 2 
1 2 1 1 2 2 1 1 1 
1 1 1 2 2 1 1 1 2 
2 2 1 1 1 1 1 2 1 
1 2 2 1 2 2 1 1 1 
2 2 1 1 2 1 2 2 2 
2 1 1 1 2 2 2 1 1 
1 2 1 2 1 2 2 2 2 
1 1 2 2 2 1 2 1 1 
2 2 1 1 2 2 1 1 2 
1 2 1 1 1 2 1 1 2 
1 2 2 1 1 2 1 2 2 
2 2 1 1 1 1 1 1 1 
1 2 1 2 1 2 2 1 1 
1 2 1 2 2 1 1 2 2 
2 1 2 1 2 2 1 2 2 
2 1 2 1 2 2 2 2 1 
1 2 2 1 1 2 2 1 1 
2 1 1 1 1 1 2 1 2 
2 2 1 2 2 2 1 1 1 
1 2 1 1 2 1 2 1 2 
2 1 1 1 1 2 1 2 1 
2 2 1 1 2 2 2 2 1 
2 1 1 2 1 1 2 2 2 
1 2 1 2 1 1 2 2 1 
1 1 2 1 1 2 2 1 1 
1 1 2 1 2 2 1 1 2 
1 2 1 1 2 2 2 1 2 
1 1 2 2 2 2 2 1 2 
2 2 2 2 1 2 2 1 2 
1 2 1 2 2 1 1 1 1 
1 1 2 2 2 2 2 1 2 
2 2 2 1 1 2 1 2 2 
2 2 2 1 2 2 2 1 1 
1 2 2 2 2 2 2 1 1 
1 2 1 1 1 2 2 1 1 
2 2 1 1 2 2 1 1 2 
2 1 1 1 2 1 2 2 2 
1 2 1 1 2 1 2 2 1 
1 2 2 1 1 2 1 2 2 
1 1 1 1 2 1 1 1 2 
2 1 2 2 1 1 1 1 1 
2 1 1 2 1 2 2 2 1 
2 2 2 1 2 1 1 1 1 
2 1 1 2 1 1 2 1 1 
2 2 1 2 1 2 2 2 2 
2 1 1 2 1 1 2 2 2 
1 1 1 2 1 1 2 1 2 
2 2 2 1 1 1 1 2 1 
1 2 2 2 1 2 1 2 2 
2 2 1 2 1 1 2 1 2 
1 1 2 1 2 1 1 1 1 
2 2 1 1 2 2 2 2 1 
1 1 2 1 2 1 2 2 1 
1 2 2 1 1 1 2 1 2 
1 1 2 1 1 1 2 2 1 
1 1 1 2 2 2 1 1 1 
1 1 2 1 1 2 2 1 1 
2 1 2 2 1 1 2 2 2 
1 1 2 2 1 1 1 1 1 
2 1 1 1 1 2 1 2 1 
2 1 1 2 1 2 2 2 1 
2 1 2 1 1 2 1 2 2 
1 2 2 1 1 2 2 2 2 
2 1 2 1 2 2 1 2 1 
2 1 2 1 1 2 2 2 1 
1 2 2 1 1 1 2 2 1 
1 1 2 1 1 2 1 1 1 
2 2 2 1 2 2 2 2 2 
2 2 1 2 2 1 1 2 2 
1 1 1 2 1 1 2 2 1 
2 1 1 1 1 1 2 2 2 
2 2 1 1 2 1 2 2 2 
2 2 2 1 2 1 1 2 1 
1 1 2 1 1 1 1 2 2 
1 2 1 2 1 2 2 1 2 
1 2 1 1 2 1 2 1 1 
1 2 1 1 2 1 2 1 2 
1 2 1 1 1 1 1 1 1 
1 2 2 2 1 2 2 2 1 
1 2 2 2 2 2 1 1 2 
1 2 2 2 2 2 1 1 1 
1 2 2 2 1 2 1 2 2 
2 1 1 2 2 2 1 1 2 
2 1 2 2 2 2 2 1 1 
1 2 2 2 2 2 1 1 1 
2 1 2 1 2 1 1 1 2 
1 1 1 2 2 2 1 1 1 
2 2 1 2 1 1 1 1 1 
2 1 2 1 1 1 2 1 2 
2 1 2 2 1 1 1 2 2 
2 1 2 1 2 1 2 1 2 
1 2 1 1 2 1 1 1 1 
1 1 2 1 2 1 1 2 1 
1 
i 3 1000 int
-16 0 0 -20 0 1 147 1 0 
230 1 1 -56 0 0 -56 0 -1 
53 0 0 81 1 1 -89 0 1 
373 1 1 -118 0 0 -156 0 1 
-108 0 0 -147 0 1 227 1 2 
-19 0 0 -74 0 1 -114 0 0 
-227 0 1 -237 0 1 22 0 1 
249 1 1 173 1 0 -132 0 1 
-126 0 1 -155 0 0 329 1 0 
-100 0 0 162 1 0 -157 0 1 
59 0 1 31 0 1 7 0 0 
-37 0 1 -74 0 0 -115 0 1 
24 0 -1 -64 0 1 -85 0 2 
2 0 1 -24 0 0 317 1 1 
123 1 0 -27 0 0 -79 0 0 
-32 0 0 223 1 1 191 1 0 
-62 0 0 225 1 0 -95 0 1 
-131 0 2 208 1 0 151 1 0 
-14 0 0 -176 0 1 -48 0 1 
-62 0 1 -163 0 1 113 1 0 
-95 0 1 -88 0 0 271 1 0 
37 0 -1 304 1 1 -102 0 1 
-279 0 0 48 0 0 -65 0 0 
-61 0 0 -69 0 1 -25 0 1 
-172 0 1 -73 0 1 2 0 0 
-88 0 0 -114 0 1 66 0 -1 
-206 -1 0 -81 0 0 -25 0 -1 
247 1 0 -21 0 -1 57 0 -1 
285 1 0 -47 0 0 13 0 1 
207 1 1 -185 0 0 -182 0 -1 
-157 0 1 -206 0 -1 -314 -1 1 
51 0 0 75 0 0 -6 0 0 
-40 0 0 -114 0 0 116 1 0 
-27 0 0 -20 0 0 -38 0 0 
-119 0 0 -81 0 0 27 0 0 
253 1 1 -58 0 0 174 1 1 
198 1 -1 259 1 0 148 1 -1 
-53 0 0 -53 0 0 -18 0 -1 
-100 0 1 -71 1 -1 126 1 1 
-54 0 0 -183 0 0 -146 0 1 
-39 0 0 53 1 0 -94 0 1 
207 1 0 112 0 1 -147 0 0 
-69 0 0 2 0 1 258 1 -1 
137 1 0 -193 0 0 -111 0 1 
-182 0 1 153 1 0 -182 0 0 
24 0 0 -89 0 1 8 0 1 
-6 0 1 9 0 -1 328 1 0 
-103 0 0 180 0 1 245 1 0 
-64 0 1 -179 0 0 -151 0 0 
84 0 -1 56 0 0 -48 0 1 
4 0 0 -117 0 0 39 0 -1 
-42 0 1 72 0 0 329 1 1 
-51 0 0 -49 0 0 50 0 -1 
-52 0 1 -147 0 0 -72 0 0 
-172 0 -1 218 1 0 27 0 0 
-50 0 0 -50 0 0 48 0 -1 
-236 0 -1 279 1 -1 -218 0 -1 
-6 0 0 275 1 0 -145 0 0 
-54 0 0 -93 0 0 -137 0 -1 
32 0 0 117 1 0 -21 0 0 
-63 0 1 172 1 -1 95 0 0 
84 0 0 -68 0 0 277 1 -1 
-7 0 -1 227 1 -1 -30 0 -1 
-122 0 1 72 0 -1 -67 0 -1 
192 1 -1 -51 0 0 -31 0 0 
244 1 -1 166 1 0 33 0 0 
-26 0 1 -94 0 0 -35 0 0 
46 1 -1 160 0 0 356 1 1 
-60 0 0 230 1 0 -72 0 0 
15 1 0 260 1 1 -14 0 -1 
135 1 -1 -136 0 0 -244 0 0 
-128 0 -1 215 1 0 -61 0 -1 
-86 0 0 198 1 0 -136 0 -1 
-279 0 1 -158 0 -1 220 1 -1 
-64 0 -1 205 1 1 7 0 1 
-146 0 0 -42 0 -1 -33 0 0 
-162 0 -1 -108 0 1 221 1 0 
-116 0 0 -222 0 0 -21 0 -1 
0 0 0 -153 0 0 83 0 0 
265 1 -1 120 1 0 49 0 0 
-288 -1 0 -10 0 -1 164 1 0 
216 1 0 175 1 -1 65 0 -1 
-77 0 0 215 1 -1 47 1 -1 
-193 0 0 199 1 0 -111 0 0 
203 1 -1 24 0 -1 -2 0 0 
144 1 0 -265 -1 0 239 1 -1 
-94 0 1 -235 -1 0 200 1 0 
229 1 -1 -111 0 0 118 1 -1 
-158 0 -1 107 0 -1 90 0 1 
36 0 1 74 0 0 0 0 0 
-46 -1 1 46 0 0 -261 -1 -1 
155 0 0 96 0 1 136 0 -1 
-142 0 -1 40 0 0 -256 -1 0 
37 0 0 252 0 0 66 0 0 
60 0 1 63 0 1 156 0 0 
-212 -1 1 -143 -1 2 135 0 0 
232 0 1 124 0 0 369 1 0 
108 0 0 -220 -1 0 -23 0 1 
-182 -1 -1 -137 -1 1 -261 -1 -1 
37 0 -1 410 1 1 30 0 0 
-279 -1 1 33 0 -1 104 0 0 
54 0 1 240 0 0 156 0 -1 
100 0 1 -51 -1 0 3 0 0 
-33 0 0 482 1 0 48 0 0 
135 0 0 -151 -1 0 -300 -1 0 
102 0 -1 134 0 0 122 0 0 
-75 0 1 -217 -1 0 -12 0 0 
90 0 0 -276 -1 0 352 1 0 
-196 -1 1 -174 -1 0 61 0 0 
-121 -1 0 -149 -1 0 -166 0 0 
177 0 0 -27 0 0 52 0 0 
51 0 1 34 0 0 83 0 1 
29 0 0 72 0 0 210 0 0 
-32 0 0 228 1 -1 35 0 1 
-169 -1 1 173 0 0 81 0 1 
53 0 -1 -98 0 0 101 0 -1 
-206 -1 -1 4 0 1 -87 0 0 
-227 -1 1 74 0 0 -122 0 1 
41 0 0 -298 -1 0 295 1 0 
-79 0 0 139 0 0 -48 0 1 
159 0 0 -242 -1 0 -199 -1 1 
72 0 -1 103 0 0 -219 -1 2 
160 0 0 36 0 0 249 1 0 
79 0 0 380 1 0 87 0 0 
82 0 -1 -170 -1 1 183 0 0 
92 0 -1 239 0 0 -126 -1 1 
97 0 0 -34 0 0 -324 -1 1 
-52 0 1 219 0 -1 -204 -1 1 
-27 0 1 95 0 0 -139 -1 0 
-290 -1 -1 99 0 0 106 0 0 
168 0 0 154 0 0 54 0 -1 
163 0 -1 -181 -1 0 -194 -1 -1 
105 0 -1 -11 0 0 -109 -1 0 
-53 0 0 117 0 0 12 0 1 
141 0 0 99 0 1 -209 -1 0 
-1 0 1 130 0 -1 -32 0 0 
111 0 -1 -119 -1 0 61 0 0 
200 0 -1 -11 0 -1 47 0 -1 
-293 -1 -1 31 0 0 -156 -1 0 
-177 -1 0 -158 -1 1 -103 0 0 
65 0 0 -280 -1 -2 -167 -1 0 
138 0 0 1 0 0 44 0 0 
31 0 -1 -137 -1 0 -44 0 0 
89 0 0 88 0 -1 30 0 0 
-171 -1 2 -277 -1 1 83 0 -1 
-178 -1 1 79 0 -1 -26 0 -1 
139 0 -1 163 0 0 -15 0 0 
182 0 -1 -135 -1 1 109 0 1 
-124 -1 0 -324 -1 1 -47 0 1 
-226 -1 0 133 0 -1 41 0 1 
-34 0 -1 -229 -1 0 -192 -1 0 
2 0 0 -230 -1 -1 47 0 0 
-181 -1 0 50 0 -1 175 0 0 
12 0 -1 162 0 -1 176 0 -1 
-166 -1 0 -235 -1 0 59 0 -1 
-134 -1 1 22 0 0 222 0 0 
-356 -1 0 42 0 0 63 0 -1 
182 0 0 -270 -1 0 -152 -1 -1 
13 0 0 46 0 0 63 0 0 
83 0 0 -189 -1 0 159 0 -1 
-183 -1 0 -362 -1 0 108 0 -1 
130 0 -1 -319 -1 -2 171 0 1 
43 0 0 169 0 -1 -32 0 0 
63 0 0 -39 0 -1 -137 -1 0 
31 0 0 -258 -1 1 38 0 -1 
27 0 -1 178 0 0 -220 -1 0 
68 0 0 -221 -1 0 131 0 -1 
64 0 -1 -266 -1 -1 -153 -1 0 
80 0 -1 96 0 -1 19 0 -1 
31 0 -1 75 0 0 192 0 -1 
-223 -1 -1 11 0 0 67 0 1 
55 0 0 -149 0 1 -36 0 1 
113 0 0 -19 0 0 -82 0 1 
-145 0 0 -22 0 0 243 1 1 
-92 0 1 6 0 1 198 1 0 
-147 0 1 328 1 0 -104 0 1 
-167 0 1 83 1 1 234 1 0 
-122 0 0 -107 0 0 -93 0 0 
-55 0 1 -92 0 1 -87 0 0 
-59 0 1 -17 0 0 235 1 0 
-53 0 1 34 0 1 -3 0 1 
-62 0 0 -56 0 1 -69 0 0 
0 0 0 192 1 0 -184 0 1 
-162 0 0 55 0 1 219 1 0 
-1 0 0 -294 -1 0 262 1 -1 
88 0 1 171 1 1 -32 0 1 
206 1 0 -120 0 1 301 1 0 
286 1 0 258 1 0 -312 -1 0 
126 1 0 15 0 0 -102 0 0 
121 0 1 -174 0 0 -130 0 1 
-58 0 0 159 1 -1 -275 0 1 
-121 0 0 -39 0 0 -106 0 0 
54 1 0 -90 0 0 -199 0 0 
-132 0 0 -40 0 1 -115 0 0 
-98 0 1 -154 0 1 -238 0 1 
-122 0 1 -139 0 0 210 1 0 
-17 0 0 -73 0 0 -132 0 1 
16 0 0 -39 0 1 220 1 -1 
-105 0 -1 212 1 0 -52 0 1 
174 1 0 -56 0 1 -36 0 0 
-53 0 0 37 0 0 -148 0 1 
-33 0 1 157 1 1 -69 0 0 
156 1 -1 242 1 -1 -58 0 0 
83 0 0 186 1 0 235 1 0 
188 1 0 164 1 -1 181 1 0 
94 1 0 -89 0 -1 -139 0 -1 
23 0 0 221 1 0 -112 0 0 
-61 0 0 -60 0 0 181 1 -1 
-47 0 0 179 1 -1 -1 0 -1 
50 0 0 -100 0 1 79 1 0 
225 1 -1 105 1 1 -76 0 -1 
-14 0 0 -183 0 -1 304 1 1 
-131 0 0 5 0 0 -1 0 0 
29 0 -1 3 0 0 -299 -1 1 
291 1 0 163 1 -1 70 0 0 
-60 0 1 -133 0 -1 -180 0 0 
-153 0 0 -145 0 1 -43 0 -1 
-105 0 0 0 0 1 111 1 0 
-89 0 1 122 1 0 223 1 0 
-156 0 0 21 0 -1 268 1 0 
-67 0 0 97 0 1 -7 0 0 
43 0 -1 34 0 0 89 1 -1 
182 1 -1 -154 0 0 90 1 0 
25 0 -1 -227 0 -1 -62 0 -1 
-53 0 0 -143 0 0 -100 0 0 
-41 0 0 101 1 0 302 1 0 
-63 0 0 61 0 -1 -144 0 1 
261 1 -1 -212 0 0 76 0 0 
38 0 0 -126 0 1 230 1 0 
-132 0 1 42 0 0 14 0 0 
234 1 -1 -40 0 1 -91 0 0 
212 0 -1 -156 0 0 0 0 0 
-223 0 0 -156 0 0 -74 0 0 
-24 0 0 -153 0 -2 -63 0 0 
-20 0 -1 56 0 0 -332 -1 0 
-86 0 -1 -138 0 0 -88 0 0 
-142 0 0 -94 0 -1 -24 0 0 
145 1 0 -111 0 0 -125 0 -1 
-71 0 -1 -7 0 -1 46 0 0 
225 1 0 170 1 -1 245 1 0 
-37 0 0 -74 0 0 100 1 -1 
-114 0 -1 17 0 -1 -80 0 0 
136 1 -1 -32 0 -1 224 1 -1 
139 1 0 -12 0 -1 -83 0 0 
-173 0 0 -140 0 -1 -29 0 -2 
155 1 -1 98 0 -1 36 1 -1 
-47 0 -1 -91 0 -1 -169 0 0 
-23 0 -1 -43 0 0 12 0 -1 
-14 0 -1 -99 0 1 -192 0 0 
-36 0 0 -291 -1 -2 235 1 -1 
167 1 0 101 0 0 214 1 -1 
116 1 0 -27 0 0 -12 0 0 
104 0 0 -27 0 0 207 1 0 
-15 0 0 -189 -1 0 -106 0 1 
193 0 1 132 0 0 51 0 1 
98 0 1 133 0 -1 15 0 0 
-234 -1 0 6 0 0 1 0 -1 
35 0 1 -263 -1 1 -347 -1 1 
34 0 1 75 0 0 69 0 0 
33 0 1 -258 -1 0 229 0 0 
-193 -1 0 163 0 0 14 0 0 
13 0 0 94 0 -1 -120 -1 1 
50 0 1 -58 0 1 -10 0 1 
-179 -1 0 436 1 1 12 0 0 
102 0 -1 17 0 0 70 0 1 
0 0 0 -176 0 0 337 1 0 
-198 -1 0 38 0 0 -42 0 1 
-298 -1 -1 -263 -1 0 -309 -1 0 
86 0 0 -13 0 1 -301 -1 0 
-149 -1 1 115 0 0 -156 -1 1 
-16 0 1 256 0 0 70 0 0 
97 0 1 59 0 0 -6 0 1 
118 0 0 -166 -1 0 5 0 0 
-148 -1 0 102 0 -1 167 0 0 
-183 -1 0 -126 -1 1 -187 -1 0 
98 0 0 123 0 0 -24 0 1 
159 0 0 -124 -1 0 115 0 0 
-390 -1 0 -7 0 1 19 0 0 
-3 0 1 74 0 0 7 0 0 
-287 -1 0 148 0 -1 41 0 0 
17 0 0 318 1 1 -391 -1 0 
61 0 0 131 0 0 142 0 0 
189 0 1 41 0 1 -244 -1 0 
-1 0 1 -75 0 0 -229 -1 1 
-197 -1 1 287 1 1 415 1 0 
125 0 0 -193 -1 0 83 0 0 
-269 -1 0 69 0 0 -213 -1 0 
-142 -1 1 -286 -1 -1 -271 -1 1 
49 0 1 -69 -1 -1 84 0 -1 
-86 -1 1 119 0 0 -73 -1 1 
127 0 1 33 0 1 50 0 1 
128 0 1 194 0 0 -206 -1 0 
358 1 -1 79 0 0 54 0 0 
171 0 0 138 0 0 86 0 0 
39 0 -1 117 0 0 -211 -1 0 
-242 -1 0 70 0 0 -342 -1 1 
97 0 1 -227 -1 -1 -214 -1 0 
22 0 0 187 0 0 -163 -1 1 
114 0 0 -204 -1 0 -23 0 -1 
128 0 -1 -162 -1 0 -30 0 0 
112 0 0 -31 -1 0 28 0 0 
125 0 0 175 0 -1 111 0 -1 
177 0 0 -258 -1 -1 51 0 -1 
6 0 0 -113 -1 1 90 0 0 
150 0 0 -56 0 0 -27 0 -1 
-65 0 0 88 0 -1 99 0 -1 
-310 -1 0 32 0 0 207 0 1 
126 0 -1 104 0 0 264 0 0 
79 0 0 195 0 0 23 0 0 
-248 -1 1 -108 -1 1 342 1 0 
22 0 0 -327 -1 0 -159 -1 0 
86 0 -1 -3 0 0 41 0 0 
-26 0 0 146 0 -1 166 0 0 
36 0 -1 20 0 0 66 0 0 
-382 -1 -1 -156 -1 0 136 0 0 
-138 -1 0 26 0 -1 11 0 0 
466 1 0 344 1 0 103 0 0 
23 0 0 -35 -1 -1 -344 -1 -1 
66 0 0 -154 -1 -1 95 0 -1 
19 0 -1 15 0 0 77 0 -2 
-4 0 0 37 0 -1 41 0 1 
91 0 -1 16 0 0 -135 -1 -1 
-248 -1 0 74 0 0 -180 -1 0 
143 0 -2 -114 -1 0 -7 0 0 
-48 0 0 146 0 0 -59 0 1 
-194 -1 0 67 0 0 70 0 -1 
-1 0 -1 230 0 0 96 0 0 
375 1 0 67 0 0 -10 0 -1 
-16 0 -1 -214 -1 0 41 0 0 
-13 0 -1 171 0 0 -259 -1 -1 
174 0 0 22 0 0 -191 -1 -1 
24 0 -1 96 0 -1 -218 -1 0 
-169 -1 0 -246 -1 0 63 0 0 
54 0 -1 
v 3 1000 double
-277.91340435 -9.7896944747 -4.6320731584 -326.97712349 -12.500176614 10.683302163 -473.04804907 -5.6272631808 -25.706047956 
-393.60054749 -13.382193158 -29.092452073 -476.07502212 -29.057916387 6.4207383226 -228.76610809 0.34632134624 -0.082074276203 
-161.54403454 -6.8030977892 7.0706377648 -436.05295153 -19.695613445 28.445561874 -284.11258502 -7.345478525 -14.74365002 
-142.59099599 -17.120108158 -2.4797307389 -309.18947386 2.3333359654 26.09927131 -403.47897563 -33.170757428 21.494870202 
-212.83220892 -4.1813416362 1.9627422444 -218.42265441 7.0861455817 -0.0011834670288 -367.57588925 -9.7572592034 -15.177410791 
-259.69810954 0.59326413209 -2.2065445352 -302.03920998 11.481775361 0.66212615706 -328.66427117 11.422369345 21.794241857 
-492.22324525 13.450711699 0.99598285741 -257.6473527 10.130737371 1.5036783048 3.5217280115 14.375070698 24.310285133 
-361.59659232 -9.000591403 -2.4409410086 -414.60934065 15.677975849 11.94171398 -38.512218346 6.0536447861 -6.8872752226 
-468.12490384 -14.667107031 -18.532806273 -470.35343792 0.080396433248 -4.1359179252 -159.67942579 2.2748228816 -2.9932922526 
-139.18550015 -2.5635484034 1.8833286546 -482.28559102 -12.599178712 5.2183297904 -266.45604191 3.7412256671 16.723579309 
-88.164426194 6.5043729393 8.0802808907 -40.282262951 23.219378835 -0.16983774131 -4.390144241 -13.661894255 0.94061976729 
-136.56113402 19.580015186 -8.9931414147 -299.60821864 -7.4230759387 24.160570829 -389.17209645 3.9141422038 8.7439227193 
-86.886005648 12.237299303 4.6948179529 -129.82617008 5.5418522083 10.193317199 -139.37286017 -14.909874877 1.0829056756 
-176.367897 -8.7033882846 -1.2887760327 -102.39980074 15.681876622 28.734322732 8.3696382073 -17.20273989 9.8536697823 
-471.72735641 14.110781627 -13.986747324 -43.450393549 -17.832936247 0.76894866192 -156.35953525 8.0552568997 13.736087237 
-411.11005611 -10.880900986 -5.326902187 -381.58988214 14.367930879 2.5053772457 -477.97988063 -7.3623884352 -22.370322567 
-247.82920414 24.399811587 12.306180595 -119.22969235 9.7832785232 -4.8846268877 -269.26109888 19.067741755 23.925504494 
-306.37572545 13.729549052 -9.8312384558 -473.30970471 10.221558651 3.2232680877 -352.05188646 14.759204422 -3.1181112591 
-406.14195943 0.86462104468 11.949487397 -346.37037874 -4.0375252633 1.5498186635 -370.94307145 10.955012219 15.930108212 
-322.78289697 11.945231834 -12.676068297 -261.40224618 -9.6948354906 22.517156832 -244.08428525 12.380486467 0.68592695838 
-301.82070655 6.9924819473 20.373525978 -182.51737103 18.684021679 -19.360108497 -151.92855851 -17.757197642 9.9634220071 
-271.60216422 1.4543365483 -0.85656125687 -143.57221505 -31.90077193 0.86624314951 -363.60452616 7.1963293393 2.3518161716 
-474.65737947 -14.385726899 -8.4409055661 -23.91147673 -8.5992090376 -10.091884586 -231.44059817 1.0886004054 -23.42208926 
-119.14971627 -10.772311017 -7.7812691258 -43.483449679 0.83592428508 -10.705597724 -388.59419606 -25.297407513 -6.4208840176 
-401.85681436 5.9233612759 10.916782982 -303.01087926 7.3931840263 3.5631405574 -65.529229162 -6.0943673523 -12.269246612 
-474.11609419 16.486530681 0.26914846386 -299.48665058 22.090836515 -0.073121679865 -322.67035933 -24.355766402 15.999874606 
-155.54531181 -12.750595051 -1.3342183456 -421.15601347 27.812910887 7.4452095982 -231.04300594 25.887437504 -11.212547376 
-279.07096234 5.8761552888 13.091852024 -72.152836859 -7.7415610939 9.6611388115 -169.71287581 -2.1215719273 -4.1699404618 
-103.19569257 11.095216897 13.877442471 -400.13479468 -12.098312856 16.214783085 28.312575625 -11.658565565 -1.2067385474 
-500.74895894 12.179825891 10.176819651 -344.47113935 2.7393971846 1.4931064149 -303.9141659 -14.802836587 0.53629554798 
-355.52775294 -10.389587918 8.7000600168 -486.85776631 0.010838943546 -14.956199311 26.23572426 -28.151130285 -12.039166293 
-97.8835749 -5.6917080789 3.6887464721 -323.75578087 -5.3938887741 -2.9820400073 -31.212523938 -15.736075146 -0.20122701511 
-234.9903312 6.0588406159 16.398406878 -333.56354909 -1.7214035326 11.558465336 -410.41771103 -31.78483624 -9.9023469354 
-279.20151342 6.8141292141 7.3646659893 -164.83446495 17.963432359 11.098440845 -137.52108629 -17.313690452 9.1711476236 
-489.69906974 -8.0810323756 -16.499754433 -0.56640500889 -17.450486722 -13.544146284 -175.9364155 -8.7027733021 -1.2552766077 
-69.159679079 7.7289596241 3.7380185424 -306.98281287 21.622430981 -11.195380518 -321.24013151 -3.3187409609 -4.7716563707 
-235.68930747 13.278413816 10.45337595 -496.52394868 0.68625018574 -11.98148683 -408.05461274 -16.022113745 25.701456502 
-206.11628663 7.6599423085 8.1275432717 -127.45508882 0.694361196 5.5208618803 -432.50457724 -2.0618118534 -4.1750907622 
-248.24294129 3.1396297013 -18.065814277 -373.75415108 -24.799172567 -8.4186563264 -417.95586018 37.247726073 -19.023424153 
-238.89696708 -20.118677846 -8.6092607878 -256.23623656 -6.1754660671 -13.208435037 -306.40175837 -12.59559261 2.5413190207 
-276.11618795 -7.4847690499 15.553484309 -415.26410243 5.0985716196 8.2985135229 -325.32609077 -11.310675092 -0.6634848657 