# vtk DataFile Version 4.2
Generated by LIGGGHTS
ASCII
DATASET POLYDATA
POINTS 1000 float
0.417336 0.496326 0.603349 0.479868 2.26614 0.951648 1.5654 3.77769 1.57893 
4.53396 3.40742 0.72044 0.819923 2.83568 1.75423 2.00383 2.13761 0.257839 
0.365462 1.4858 0.536505 4.69305 4.4052 0.917623 1.42982 2.40311 1.02386 
1.09697 3.1793 0.566165 3.6192 0.0381287 0.905944 1.14918 0.42155 0.982569 
1.62163 4.17393 0.792326 1.79596 0.690816 1.75321 4.77481 2.94034 1.52043 
2.19901 3.11869 0.395412 2.46561 2.9481 1.77045 2.23749 1.88455 1.68915 
4.20594 2.28674 0.365927 0.290765 1.47312 1.5094 1.8522 1.25838 0.678802 
3.77441 0.69309 1.58045 3.60609 2.98128 1.2206 0.734063 3.85047 1.25239 
0.15204 3.0315 1.08921 0.288042 4.49729 1.34901 2.51265 4.1519 1.40308 
2.91543 4.85956 0.247072 1.98457 4.92228 0.339727 2.93657 1.23044 0.379786 
3.96471 2.46511 0.967121 4.75695 0.626825 1.91594 1.08763 4.8452 0.643006 
3.32713 2.03967 0.172826 0.32227 4.87532 0.0353249 0.783647 3.9637 0.247197 
3.61165 1.5492 1.11606 4.49709 1.09129 1.02781 2.76524 0.835072 1.51198 
3.25862 0.625078 0.698716 4.22714 1.56443 0.466228 4.23687 2.99466 1.96187 
4.33443 1.62609 1.59717 4.3531 0.0512239 0.894406 4.34745 4.01136 0.0461575 
4.88478 2.25463 1.17483 3.10805 0.170328 2.22469 2.78454 2.23653 3.66935 
2.52532 0.392862 2.90778 2.14769 3.76881 2.8941 4.44404 1.12416 2.34069 
1.59899 1.17345 2.42833 1.2592 2.11606 3.55397 0.101975 1.31169 3.71439 
3.51719 3.86825 3.27666 2.66387 4.5818 3.2482 0.787335 2.67985 3.97503 
2.48329 3.25723 3.65456 1.97883 2.4562 2.56974 1.57766 0.279489 3.38769 
0.721934 2.59797 2.77227 2.25258 4.35965 2.21268 -0.0160686 1.71683 2.39231 
0.517131 0.40439 2.93601 1.4937 2.99652 3.12379 3.80687 2.29753 2.396 
2.43381 0.116494 3.83262 1.97752 1.65234 3.18704 3.61681 4.66677 3.00666 
0.639776 4.49442 3.95084 0.0409671 2.23231 3.60571 0.371044 4.10286 2.25631 
4.06729 3.2186 3.33529 1.20621 3.68425 2.83312 0.0818256 3.12542 2.05672 
3.6709 1.51277 2.09086 3.63162 1.81632 3.56644 2.96968 2.37573 2.74887 
4.19286 3.76234 2.26837 4.15896 0.360351 2.95505 3.31914 3.60851 2.33737 
4.53834 4.1488 3.59364 0.559574 4.16547 3.12258 1.59354 3.06522 2.00396 
1.6649 4.72781 2.92716 4.88098 2.3433 2.22468 0.630548 3.57218 3.83568 
4.62779 4.86109 2.96957 3.58815 0.942774 2.60662 3.97195 1.22303 3.30122 
3.33034 3.13148 3.92349 4.733 1.98739 3.94643 4.84447 3.28194 2.7518 
1.47147 2.22111 5.24126 0.200669 1.07735 5.4814 2.0859 3.07507 4.71083 
1.1907 1.30446 4.91468 1.62326 3.80161 4.59273 2.26891 3.35867 5.46299 
2.76785 0.871566 4.35626 1.08664 2.94297 4.85487 0.33746 1.26529 4.53611 
3.01667 4.83945 5.97686 1.90138 0.517611 5.43151 0.273973 2.85118 5.56406 
0.262547 1.97195 5.91598 4.08662 4.22444 4.30926 2.66434 0.117367 5.36852 
2.32113 1.90338 5.60893 2.07352 4.1591 5.42989 4.09368 2.86045 5.20723 
1.25568 0.716882 5.71219 4.36441 2.31855 5.7733 2.05354 2.53105 4.21234 
4.0958 1.94473 4.8062 3.02557 3.20216 5.11638 2.47495 2.00506 4.69264 
0.551401 2.04382 4.97361 1.24048 4.87093 5.46275 4.57695 1.16684 4.85442 
0.103751 2.84305 4.40412 3.49928 4.05519 4.86582 4.16488 0.845983 4.01378 
4.68107 4.33723 5.08525 3.69211 3.56052 5.67735 3.16594 0.0378162 4.45654 
2.98474 4.36201 5.28827 3.61149 0.294609 5.18258 3.29764 1.87791 4.40941 
3.05534 4.93007 4.09546 4.5727 1.63969 5.59795 4.17465 0.835656 5.74277 
0.385943 4.6284 5.74364 3.6321 1.05905 4.73806 1.27585 3.89788 5.56593 
0.150865 4.06713 4.53838 3.02309 4.06205 4.07413 4.42762 0.150095 4.92623 
1.07793 4.37357 4.69582 0.191679 4.76157 4.92405 0.20964 3.65223 5.83046 
4.86725 0.574176 5.87956 4.92456 2.96035 4.77928 0.46953 2.65683 6.59452 
1.3388 1.43325 6.57833 2.02849 3.00831 7.04365 3.47197 4.8217 7.58736 
2.54719 4.77226 7.51293 1.64453 0.270798 6.66522 0.569189 1.50054 7.02056 
4.14313 4.11353 7.13515 2.80041 2.86913 6.00223 0.665934 0.851153 6.18043 
2.07459 2.2166 6.47269 2.33814 3.62659 6.33394 1.97365 4.45337 6.25009 
1.58254 4.98455 6.72993 1.11504 0.588818 7.95846 4.2678 4.89343 7.68583 
1.38993 2.30761 7.57341 2.05562 1.17039 6.94315 1.5221 1.39295 7.69367 
3.47819 0.175089 7.144 2.21666 0.493629 7.77155 2.42199 0.918939 6.10633 
2.47793 3.96052 7.90628 3.69054 2.55407 6.24243 1.75723 3.89083 7.06083 
0.46549 3.58492 7.63388 3.29916 3.97929 7.25023 3.96705 3.32527 6.71056 
4.67677 4.19624 7.91455 0.0347028 4.30291 6.4822 4.14575 2.67954 7.50083 
3.03048 2.94822 6.88103 4.2812 0.378783 7.00887 2.88752 1.60534 7.57314 
3.91758 0.854893 7.77039 4.4384 2.10059 6.71486 2.7239 3.32257 7.68562 
0.441552 3.41268 6.75807 2.26886 2.14141 7.65122 0.987917 4.16966 6.39064 
0.292153 4.7495 7.27221 3.24285 0.410612 6.18056 3.09238 0.914534 7.84686 
2.72392 1.81366 6.6922 3.99898 0.0642065 7.98785 3.2716 3.95414 6.37341 
1.03349 4.36869 7.93822 2.72504 0.61391 6.99832 2.70029 4.38335 6.83106 
4.81809 0.795767 7.54204 4.99438 0.147763 6.82677 0.216807 0.746115 9.74639 
2.52905 3.89413 9.91091 1.97862 3.1846 9.2178 0.237102 2.22186 8.42827 
4.87547 2.38613 9.64673 2.24593 0.931714 9.84628 1.91032 3.07214 8.24462 
2.06732 0.103177 8.65264 4.01692 2.34711 9.53233 0.835456 1.91855 9.42563 
3.88933 0.435438 8.90417 2.04176 1.27741 8.25101 2.34829 4.6415 9.35584 
1.65002 3.76353 9.85063 2.72583 0.2085 9.62318 1.02604 0.959325 8.85569 
1.77104 0.0899744 9.57078 1.62086 1.48448 9.56609 1.12053 0.110766 8.86176 
0.591357 0.0635604 9.6401 1.07769 2.85768 9.62709 3.87606 4.80038 8.5175 
0.685287 3.02246 8.16531 2.72359 1.93675 8.74937 3.15033 2.76622 8.0887 
0.0579627 4.71041 8.29661 4.34118 3.63457 8.46579 3.01556 4.04058 9.01605 
0.49407 4.6552 9.1518 2.81135 2.74007 9.37758 3.58366 3.04202 9.95988 
2.5987 0.94551 8.96596 2.99253 0.249797 8.55207 2.82198 3.38337 8.66342 
3.94984 4.08476 9.24841 4.55519 1.66658 8.07515 1.82953 4.59177 8.50278 
4.2245 0.0926543 9.94444 3.4677 1.49288 9.4255 4.09919 1.97792 8.79304 
3.53864 1.18307 8.56571 4.46648 3.14782 9.83562 2.79648 4.71038 8.46195 
0.254798 3.63904 9.07456 1.38446 4.7683 9.55612 2.64635 1.80534 9.61003 
3.3601 4.87593 9.38079 4.18929 2.89547 8.80781 4.48523 1.45096 9.38016 
4.76 0.489833 9.71497 4.80456 4.83693 8.90077 3.88359 0.780862 9.99459 
4.95933 2.69289 8.44918 4.68084 7.45836 0.854922 2.78566 6.27882 1.39033 
0.105387 7.71973 0.728376 3.27212 5.5459 1.00326 1.05039 9.51695 0.910335 
3.6762 8.33006 0.995315 0.978404 8.74333 0.432885 0.546578 9.41532 0.0718053 
3.10074 7.96048 0.0916014 2.57192 8.18341 1.87066 3.91427 5.1312 0.179092 
3.49452 9.28123 0.312695 0.124248 7.65135 1.96126 0.0917012 8.45934 0.334238 
2.81328 8.49471 0.924753 4.22959 9.26566 0.598571 3.31539 5.13034 1.91577 
2.86443 9.49629 1.57446 3.5913 7.18033 1.39913 0.264926 9.39474 1.39073 
2.59248 8.62109 0.0132848 2.68129 6.55452 0.472913 2.86103 7.29869 1.11655 
1.81411 7.28788 1.46037 1.36863 6.76515 0.37567 3.67956 7.52826 0.575052 
0.913655 5.68199 1.20826 3.25964 6.04372 0.160383 2.24467 6.6682 1.65369 
4.27027 5.03099 1.82094 2.25262 7.17662 0.0919129 2.73321 9.6066 0.445813 
3.4594 9.1518 1.2821 1.43304 6.50933 1.30501 2.44721 5.09542 1.19428 
1.66518 7.67703 0.0463634 1.8048 7.93442 1.4624 0.502332 6.18719 1.25157 
4.2594 9.03225 1.67772 0.969565 7.06671 1.02173 1.83012 8.69104 0.663572 
1.82218 9.31239 1.30611 0.947837 7.86509 0.459399 0.539286 7.65635 1.27503 
1.56359 5.56402 0.0273406 1.88381 6.35886 0.471298 1.66494 5.58703 0.978814 
0.511381 6.82749 0.158117 0.814975 5.82453 0.263676 0.314782 5.1589 0.797404 
2.23614 7.76855 0.759411 0.817292 7.1947 1.98583 1.79041 8.48856 1.59429 
1.82706 5.91562 1.91073 4.24634 8.12261 0.0232527 3.90598 9.96023 0.046887 
4.451 8.2059 1.95796 4.51765 9.01446 0.0576113 4.51319 8.63019 0.904962 
4.69918 9.91114 1.48789 0.557549 7.9192 2.76211 3.23108 7.16668 3.42834 
2.28757 6.56513 2.88785 0.92378 9.17635 2.00919 0.0865232 9.70466 2.23175 
3.31315 8.70663 3.0142 3.08663 6.29157 3.6945 3.12394 7.42933 2.03399 
0.919096 8.7445 2.83361 2.56168 7.49182 2.12169 2.39781 8.84752 2.48033 
2.99691 6.29226 2.82672 3.41536 8.32087 2.23576 3.78184 8.19341 3.38062 
3.42014 5.69732 3.39386 0.235068 7.79721 3.9097 0.0125145 5.71905 3.1972 
1.68593 9.46701 3.0024 0.974688 9.85026 2.61701 1.08997 6.05329 2.00369 
1.17593 6.42137 3.92803 4.51632 7.86878 3.16601 0.500287 9.27056 3.22977 
4.38874 7.30216 3.835 0.484527 8.61847 3.82262 2.72074 9.3638 3.59443 
2.20709 5.23824 2.10448 3.82296 6.6989 3.18358 4.27394 6.91312 2.29152 
0.0885807 7.16086 3.11461 1.458 8.67304 2.07811 3.49629 6.92048 2.34906 
1.7348 5.67055 3.65666 4.58045 5.91648 3.99114 1.92562 7.99344 3.15358 
-0.0156635 5.12899 2.25118 2.25936 6.42684 3.82938 1.32244 8.03755 2.46996 
0.333253 6.02385 2.2209 1.1874 8.46348 3.48626 3.51936 9.07939 2.15283 
0.734437 5.58727 3.79767 1.94035 7.02724 2.28406 1.30572 5.64456 2.74966 
1.41441 7.32671 2.62375 1.74107 7.08113 3.49334 3.52093 9.49183 2.99888 
0.542208 7.04503 3.83859 0.870553 6.61513 3.00631 2.86453 7.79715 3.02825 
3.27445 5.91663 2.4303 3.77514 9.89574 2.06654 3.75722 7.74628 2.67178 
4.12058 8.8252 3.86062 4.20581 5.5402 3.07678 1.02326 5.00439 3.37125 
1.93273 9.97122 2.15297 4.42168 9.54803 3.07834 4.54004 5.03836 3.87393 
4.71821 9.82506 2.28073 4.8922 6.79957 3.79794 -0.0366585 8.73583 5.69402 
3.60704 7.64296 5.82068 1.44849 9.32357 5.56537 0.786849 8.43429 5.39398 
4.21421 8.74672 5.68903 0.35459 9.20745 4.77436 3.54062 9.71976 5.76395 
3.33809 5.73506 4.34831 2.74802 6.85373 5.95125 0.762081 7.61859 4.61276 
3.03683 8.62035 4.12024 4.76234 8.22154 5.42029 2.71871 5.04754 4.99718 
3.68432 6.06126 5.08737 2.75337 5.92064 5.28973 2.81224 9.15436 5.14766 
3.7153 7.24019 4.34145 0.930191 8.49799 4.55844 1.51041 9.6017 4.6041 
4.56337 6.69681 5.31029 2.82391 6.75297 4.85351 3.71971 5.13577 4.81041 
3.67748 6.54771 4.34384 1.80918 8.85441 4.30524 0.791682 6.14794 4.75272 
1.21584 5.24478 4.4488 4.30609 9.46159 5.38106 3.13997 8.16817 5.43711 
0.787941 6.13344 5.98988 4.64755 5.46997 4.80832 1.90344 5.76232 5.05613 
0.72439 7.52463 5.54286 1.6818 5.63069 5.96669 2.20191 8.19742 5.33101 
[...]
POINT_DATA 1000
FIELD FieldData 7
id 1 1000 int
217 284 921 699 547 353 711 511 163 
268 269 958 393 440 568 687 797 557 
689 909 22 483 631 461 912 742 9 
198 971 443 465 316 438 410 587 266 
648 913 128 556 372 62 947 701 21 
509 247 702 612 228 593 232 673 823 
35 196 418 845 930 480 816 478 293 
133 598 778 416 619 810 101 806 999 
744 520 406 189 139 503 530 786 243 
562 213 307 126 91 700 153 828 142 
65 780 39 413 450 510 693 905 821 
178 608 763 369 658 961 336 40 901 
746 552 875 225 282 769 540 327 205 
785 889 357 792 938 210 931 86 923 
482 248 983 642 812 400 860 459 435 
743 917 158 366 231 611 168 484 616 
159 348 415 382 253 8 607 50 208 
667 486 446 245 756 590 672 95 200 
156 655 747 82 464 685 978 759 621 
276 766 992 910 224 661 495 264 408 
204 314 580 220 270 573 613 884 748 
188 441 770 47 390 863 904 644 283 
350 431 485 17 959 877 969 290 349 
623 300 809 853 2 134 670 550 67 
148 157 671 628 926 541 209 733 665 
115 536 391 173 31 772 773 93 402 
981 354 107 577 403 426 171 544 373 
692 162 339 460 160 529 44 221 664 
405 424 73 46 686 911 420 801 887 
170 684 741 376 632 324 567 341 839 
703 758 832 274 627 814 893 370 984 
323 847 386 343 634 946 118 83 141 
310 152 313 320 515 468 528 774 13 
856 259 997 41 429 859 574 618 335 
96 262 617 576 197 597 358 811 681 
164 451 202 442 286 187 944 29 591 
802 925 129 230 873 14 344 698 745 
888 731 679 455 26 657 779 436 238 
90 11 396 3 715 387 179 723 234 
174 409 51 444 385 560 212 941 215 
45 449 993 890 708 206 808 87 328 
271 120 788 367 233 258 784 289 117 
421 669 445 915 990 824 75 407 507 
255 330 522 398 81 59 949 639 499 
113 351 558 903 791 729 297 294 122 
166 473 583 963 458 653 72 840 776 
771 570 864 626 334 32 34 33 998 
30 501 389 688 690 363 124 265 635 
365 49 781 105 720 69 705 332 764 
467 377 676 223 531 872 15 362 852 
819 5 229 452 183 719 36 584 54 
793 649 475 474 236 457 605 622 411 
876 546 559 291 296 677 37 976 775 
355 615 239 854 678 513 805 74 242 
371 734 753 924 682 321 100 527 534 
505 846 326 57 301 111 419 60 462 
261 412 448 578 275 4 710 651 463 
345 943 517 869 130 472 960 56 309 
561 660 383 78 360 25 263 19 955 
880 833 147 630 724 1000 726 683 254 
329 891 582 954 395 497 502 899 361 
761 423 563 868 581 842 140 549 878 
735 637 524 521 347 108 214 787 974 
695 526 10 80 603 848 182 439 895 
783 697 207 850 652 79 640 712 251 
414 428 38 588 952 843 919 447 6 
939 629 620 654 104 312 980 149 641 
63 481 23 138 927 896 288 88 986 
957 267 918 566 894 956 844 333 542 
318 186 490 533 714 798 835 777 609 
161 804 337 454 656 935 58 399 614 
674 24 504 596 61 575 477 989 951 
470 295 565 908 826 548 551 782 356 
994 190 800 970 740 378 185 995 492 
76 803 364 199 222 352 272 131 624 
900 42 897 180 532 796 945 136 422 
751 249 827 338 606 815 112 988 491 
662 929 346 592 572 84 125 987 595 
610 433 675 795 7 184 862 487 43 
586 767 496 53 813 737 237 892 155 
380 102 721 311 201 879 650 278 280 
601 241 849 277 932 738 97 722 132 
479 645 646 374 281 98 554 211 694 
425 717 319 858 16 165 977 599 430 
865 922 219 167 537 106 298 305 287 
736 861 881 950 940 144 579 1 257 
404 696 768 110 916 20 368 194 874 
822 317 12 394 569 728 739 713 493 
571 825 643 285 114 135 870 216 325 
807 235 279 151 920 226 453 794 962 
882 191 906 680 636 966 427 514 659 
181 109 647 841 538 709 177 437 942 
831 820 176 902 273 68 707 434 602 
299 545 727 471 143 975 982 725 754 
857 518 466 340 760 553 633 948 401 
379 855 838 342 218 936 883 85 851 
594 704 476 519 666 964 64 506 817 
996 71 535 512 516 469 119 246 227 
417 543 121 973 169 799 829 830 306 
203 914 663 934 250 70 625 488 818 
456 260 604 871 907 375 240 600 732 
359 92 765 836 500 145 94 48 123 
308 967 866 937 175 89 985 730 749 
99 388 585 256 752 28 716 523 66 
589 304 691 968 172 564 668 154 494 
867 757 718 898 953 834 195 55 331 
638 555 192 965 790 193 885 762 77 
103 302 539 789 750 303 127 432 244 
384 150 991 508 18 252 322 52 706 
755 928 525 979 498 315 381 972 397 
27 837 292 137 933 489 392 146 886 
116 
type 1 1000 int
1 1 2 2 2 1 2 2 1 
1 1 2 1 1 2 2 2 2 
2 2 1 1 2 1 2 2 1 
1 2 1 1 1 1 1 2 1 
2 2 1 2 1 1 2 2 1 
2 1 2 2 1 2 1 2 2 
1 1 1 2 2 1 2 1 1 
1 2 2 1 2 2 1 2 2 
2 2 1 1 1 2 2 2 1 
2 1 1 1 1 2 1 2 1 
1 2 1 1 1 2 2 2 2 
1 2 2 1 2 2 1 1 2 
2 2 2 1 1 2 2 1 1 
2 2 1 2 2 1 2 1 2 
1 1 2 2 2 1 2 1 1 
2 2 1 1 1 2 1 1 2 
1 1 1 1 1 1 2 1 1 
2 1 1 1 2 2 2 1 1 
1 2 2 1 1 2 2 2 2 
1 2 2 2 1 2 1 1 1 
1 1 2 1 1 2 2 2 2 
1 1 2 1 1 2 2 2 1 
1 1 1 1 2 2 2 1 1 
2 1 2 2 1 1 2 2 1 
1 1 2 2 2 2 1 2 2 
1 2 1 1 1 2 2 1 1 
2 1 1 2 1 1 1 2 1 
2 1 1 1 1 2 1 1 2 
1 1 1 1 2 2 1 2 2 
1 2 2 1 2 1 2 1 2 
2 2 2 1 2 2 2 1 2 
1 2 1 1 2 2 1 1 1 
1 1 1 1 2 1 2 2 1 
2 1 2 1 1 2 2 2 1 
1 1 2 2 1 2 1 2 2 
1 1 1 1 1 1 2 1 2 
2 2 1 1 2 1 1 2 2 
2 2 2 1 1 2 2 1 1 
1 1 1 1 2 1 1 2 1 
1 1 1 1 1 2 1 2 1 
1 1 2 2 2 1 2 1 1 
1 1 2 1 1 1 2 1 1 
1 2 1 2 2 2 1 1 2 
1 1 2 1 1 1 2 2 1 
1 1 2 2 2 2 1 1 1 
1 1 2 2 1 2 1 2 2 
2 2 2 2 1 1 1 1 2 
1 2 1 2 2 1 1 1 2 
1 1 2 1 2 1 2 1 2 
1 1 2 1 2 2 1 1 2 
2 1 1 1 1 2 1 2 1 
2 2 1 1 1 1 2 2 1 
2 2 2 1 1 2 1 2 2 
1 2 1 2 2 2 2 1 1 
1 2 2 2 2 1 1 2 2 
2 2 1 1 1 1 1 1 1 
1 1 1 2 1 1 2 2 1 
1 2 2 2 1 1 2 1 1 
2 2 1 1 1 1 1 1 2 
2 2 1 2 2 2 2 2 1 
1 2 2 2 1 1 2 2 1 
2 1 2 2 2 2 1 2 2 
2 2 2 2 1 1 1 2 2 
2 2 1 1 2 2 1 1 2 
2 2 1 2 2 1 2 2 1 
1 1 1 2 2 2 2 1 1 
2 2 2 2 1 1 2 1 2 
1 1 1 1 2 2 1 1 2 
2 1 2 2 2 2 2 1 2 
1 1 1 2 2 2 2 2 2 
1 2 1 1 2 2 1 1 2 
2 1 2 2 1 2 1 2 2 
1 1 2 2 2 2 2 2 1 
2 1 2 2 2 1 1 2 1 
1 2 1 1 1 1 1 1 2 
2 1 2 1 2 2 2 1 1 
2 1 2 1 2 2 1 2 1 
2 2 1 2 2 1 1 2 2 
2 1 2 2 1 1 2 1 1 
2 2 1 1 2 2 1 2 1 
1 1 2 1 1 2 2 1 1 
2 1 2 1 2 2 1 2 1 
1 2 2 1 1 1 2 1 2 
1 2 1 2 1 1 2 2 1 
2 2 1 1 2 1 1 1 1 
2 2 2 2 2 1 2 1 1 
1 2 2 1 2 1 1 1 2 
2 1 1 1 2 2 2 2 1 
2 2 2 1 1 1 2 1 1 
2 1 1 1 2 1 1 2 2 
2 1 2 2 2 2 1 2 2 
1 1 2 2 2 2 1 1 2 
2 2 1 2 1 1 2 1 2 
1 2 2 1 1 2 2 2 2 
2 2 1 1 2 2 2 2 1 
1 2 2 1 1 2 2 1 2 
2 2 1 2 2 2 1 2 2 
2 1 2 2 2 1 1 1 1 
1 2 1 2 1 2 2 2 1 
1 2 2 2 1 1 2 1 2 
1 1 2 2 2 1 1 2 2 
1 1 2 2 1 1 1 1 1 
1 2 2 2 1 1 2 2 2 
1 1 2 1 2 1 2 2 1 
2 1 2 2 1 2 2 1 1 
2 2 2 2 2 2 1 1 1 
2 2 1 2 2 1 2 2 1 
1 1 2 2 2 1 1 1 1 
1 1 2 2 1 1 1 1 2 
2 2 2 2 1 1 1 2 1 
1 2 1 1 2 1 1 1 2 
1 
i 3 1000 int
-103 0 0 -122 0 0 -84 0 1 
21 0 -1 48 0 0 189 1 1 
189 1 0 -26 0 0 242 1 1 
34 0 0 -203 0 0 244 1 2 
182 1 0 -43 0 0 -93 0 0 
223 1 1 245 1 0 227 1 0 
-167 0 1 -133 0 1 211 1 0 
222 1 0 35 0 0 365 1 0 
-1 0 0 2 0 -1 356 1 0 
-13 0 1 45 0 1 179 1 0 
-42 0 1 -171 0 0 13 0 0 
-79 0 0 -10 0 1 -328 -1 0 
269 1 1 -51 0 0 105 1 1 
176 1 -1 -178 0 1 -58 0 0 
-30 0 1 141 1 0 -109 0 1 
-138 0 0 -196 0 0 269 1 0 
-64 0 1 -134 0 1 -6 0 1 
-113 0 1 202 1 -1 275 1 -1 
-148 0 1 314 1 0 -164 0 1 
-43 0 0 -71 0 0 -141 0 2 
-24 0 0 -33 0 1 -162 0 1 
189 1 1 -102 0 1 -171 0 1 
-125 0 0 -107 0 1 31 0 1 
-115 0 0 -115 0 0 -48 0 0 
237 1 0 66 0 1 -73 0 1 
254 1 0 -66 0 0 68 1 0 
-90 0 2 -188 0 1 -60 0 0 
118 0 1 346 1 1 285 1 -1 
272 1 -1 -29 0 0 182 1 1 
15 0 0 -82 0 1 -114 0 -1 
-93 0 0 -188 0 0 -118 0 0 
-69 0 0 207 1 0 -73 0 -1 
98 1 -1 -84 0 0 260 1 0 
114 1 0 -59 0 0 144 1 1 
-26 0 0 -92 0 0 -36 0 0 
87 0 0 -51 0 0 -180 0 0 
-71 0 -1 70 0 -1 -70 0 1 
-157 0 0 293 1 0 -71 0 1 
-349 -1 0 -71 0 0 -52 1 -1 
351 1 1 1 0 0 -285 0 1 
311 1 0 -6 0 -1 210 1 0 
20 0 0 -44 0 1 199 1 0 
138 1 0 -291 0 0 -29 0 -1 
-325 -1 0 1 0 1 -155 0 0 
-35 0 1 -8 0 0 60 0 -1 
-74 0 0 37 0 0 -129 0 1 
-2 0 1 -41 0 1 -55 0 0 
121 1 0 21 0 0 -62 0 0 
299 1 -1 -40 0 0 -8 0 -1 
-309 -1 -2 -232 0 0 123 1 1 
72 0 0 34 0 0 -60 0 1 
-62 0 0 288 1 1 -54 0 0 
-24 0 0 -144 0 1 -36 0 -1 
-24 0 -1 -48 0 0 -155 0 0 
97 1 0 -278 0 0 -225 0 0 
22 0 -1 9 0 0 34 0 1 
19 0 -1 -97 0 -1 -3 0 0 
-301 -1 0 -73 0 0 -147 0 0 
-66 0 1 -195 0 0 -100 0 -1 
-105 0 1 -26 0 -1 -49 0 -1 
-146 0 1 -119 0 0 263 1 -1 
376 1 0 -134 0 1 -149 0 0 
-69 0 0 107 1 0 288 1 -1 
25 0 0 21 0 0 -72 0 0 
-169 0 -1 177 1 -1 -82 0 0 
224 1 -1 397 1 0 -184 0 0 
257 1 -1 -158 0 -1 -131 0 1 
-149 0 -1 220 1 0 265 1 0 
165 1 0 238 1 0 82 0 0 
-58 0 0 164 1 -1 238 1 -1 
224 1 -1 -79 0 0 -189 0 -1 
-140 0 0 46 0 0 333 1 1 
-47 0 0 -86 0 0 -37 0 0 
43 0 1 230 1 0 265 1 -1 
-337 -1 -1 90 0 -1 197 1 0 
200 1 -1 -226 0 0 -17 0 -1 
238 1 0 219 1 0 -57 0 1 
-150 0 -1 203 1 -1 -242 0 0 
152 1 -1 -81 0 0 -307 -1 1 
253 1 -1 -9 0 -1 180 1 -2 
-14 0 -1 -29 0 0 -183 0 -1 
205 1 -1 243 1 -1 -92 0 0 
-33 0 0 103 0 0 -21 0 1 
110 0 0 100 0 1 147 0 0 
20 0 0 2 0 1 -50 -1 0 
102 0 1 91 0 -1 -323 -1 -1 
-64 -1 1 -319 -1 -1 205 0 0 
170 0 0 96 0 1 -123 0 0 
-231 -1 0 44 0 0 154 0 0 
59 0 1 20 0 0 -8 0 1 
-214 -1 0 20 0 0 27 0 0 
-288 -1 -1 8 0 0 -286 -1 2 
16 0 0 -5 0 0 246 0 1 
-318 -1 0 41 0 0 113 0 0 
-142 -1 1 112 0 -1 112 0 0 
200 0 1 184 0 0 -145 -1 1 
132 0 1 82 0 1 -228 -1 -1 
42 0 1 -288 -1 -1 5 0 1 
112 0 0 -259 -1 1 25 0 0 
-234 -1 1 -204 -1 -1 74 0 1 
-174 0 0 22 0 1 -265 -1 2 
45 0 1 -152 -1 2 -158 -1 1 
-135 -1 0 -231 -1 0 116 0 1 
131 0 0 162 0 0 -164 -1 1 
-103 -1 0 85 0 0 40 0 1 
106 0 -1 57 0 1 137 0 0 
34 0 0 108 0 1 -40 0 1 
-87 0 1 144 0 0 -369 -1 1 
98 0 1 170 0 0 -284 -1 0 
124 0 0 -246 -1 0 62 0 1 
88 0 0 114 0 -1 -100 -1 1 
467 1 1 384 1 0 8 0 0 
48 0 0 184 0 0 123 0 0 
13 0 0 71 0 0 -289 -1 0 
47 0 0 -23 0 0 9 0 1 
56 0 0 197 0 0 -261 -1 0 
126 0 0 120 0 0 -50 0 0 
108 0 -1 444 1 1 -39 -1 1 
106 0 1 -310 -1 0 70 0 0 
212 0 0 -71 -1 0 93 0 0 
140 0 1 44 0 0 34 0 1 
-85 -1 -1 -186 -1 1 -48 0 1 
61 -1 0 24 0 0 44 0 -1 
-27 0 0 -199 -1 0 135 0 0 
172 0 -1 -157 -1 0 -157 -1 1 
-43 0 1 -312 -1 -1 -222 -1 0 
239 0 -1 -349 -1 0 -51 0 0 
74 0 0 22 0 0 41 0 0 
323 1 1 63 0 0 -229 -1 0 
-223 -1 1 84 0 -1 -1 0 1 
136 0 -1 93 0 1 110 0 -1 
97 0 1 139 0 0 104 0 0 
42 0 -1 1 0 1 89 0 0 
-20 0 -1 47 0 -1 222 0 1 
135 0 -1 105 0 0 146 0 0 
102 0 -1 76 0 0 -192 -1 1 
128 0 0 45 0 0 380 1 0 
201 0 0 -6 0 0 -204 -1 0 
-195 -1 0 -329 -1 1 -15 0 1 
-89 -1 -1 112 0 0 229 0 -1 
183 0 0 309 0 0 -90 0 0 
52 0 0 262 1 0 -120 -1 -1 
-93 -1 1 177 0 -1 105 0 -1 
157 0 0 -50 0 0 -384 -1 0 
-280 -1 -1 36 0 0 205 0 0 
190 0 0 49 0 -1 -180 -1 0 
-196 -1 0 -138 0 0 -47 0 0 
409 1 0 -350 -1 1 129 0 -1 
36 0 -1 -60 0 0 11 0 0 
-192 -1 2 88 0 0 -272 -1 0 
-59 0 0 21 0 -1 -191 -1 0 
25 0 0 156 0 -2 189 0 0 
-284 -1 -1 -154 -1 0 94 0 0 
179 0 -1 76 0 0 86 0 0 
79 0 0 -242 -1 0 70 0 -1 
52 0 0 66 0 0 5 0 -1 
-132 -1 0 48 0 0 -206 -1 0 
-172 -1 0 87 0 -2 47 0 0 
-361 -1 -1 67 0 -1 -207 -1 -1 
175 0 0 183 0 -1 -326 -1 0 
53 0 -1 66 0 -1 -76 0 -1 
-171 -1 -1 -48 -1 0 -382 -1 0 
-22 0 0 -51 0 0 71 0 0 
-54 0 0 54 0 -1 -22 0 -1 
2 0 -1 2 0 -1 57 0 0 
-243 -1 0 -37 0 0 25 0 0 
173 0 0 78 0 -1 169 0 -1 
143 0 -1 55 0 0 157 0 -1 
9 0 -1 -302 -1 0 54 0 0 
140 0 -1 -208 -1 -1 -213 -1 -1 
100 0 -1 32 0 -1 196 0 0 
241 0 0 -213 -1 0 19 0 0 
30 0 0 -81 0 0 11 0 1 
234 1 1 -69 0 0 135 1 0 
108 1 0 -36 0 1 -96 0 1 
-41 0 1 -303 -1 1 -167 0 0 
-128 0 1 -167 0 0 1 0 2 
-8 0 1 -42 0 0 -146 0 0 
137 1 1 -257 0 0 -129 0 0 
193 1 0 117 1 0 -27 0 0 
-156 0 1 8 0 0 -25 0 0 
242 1 0 170 1 0 179 0 1 
-156 0 1 -173 0 0 -75 0 0 
-182 0 1 -320 -1 1 42 0 1 
-121 0 2 -35 0 1 -154 0 1 
165 1 1 -165 0 0 157 0 1 
48 0 0 -160 0 2 -111 0 2 
-124 0 1 -30 0 -1 -205 0 1 
-31 0 0 -91 0 1 448 1 0 
139 1 0 -155 0 1 -194 0 1 
-68 0 1 256 1 0 -246 0 1 
28 0 -1 -106 0 0 -119 0 0 
-110 0 1 -53 0 -1 242 1 1 
84 0 1 -63 0 1 -138 0 1 
-144 0 0 155 1 0 -94 0 0 
191 1 0 -107 0 1 -77 0 1 
116 1 1 -30 0 0 -44 0 1 
-243 -1 0 54 0 1 24 0 -1 
-61 0 0 -194 0 -1 -49 0 0 
-100 0 1 -10 0 0 -3 0 1 
230 1 2 -17 0 0 -29 0 0 
133 1 0 54 0 -1 -152 0 1 
-62 0 1 2 0 0 -25 0 -1 
-64 0 -1 60 0 0 57 0 1 
21 0 0 -197 0 0 -147 0 0 
328 1 1 6 0 0 -123 0 1 
228 1 0 -60 0 0 -245 0 1 
-105 0 1 251 1 0 -259 0 0 
353 1 0 510 2 0 -192 0 0 
-64 0 1 -220 0 -1 -55 0 0 
-12 0 1 -194 0 -1 204 1 0 
285 1 0 -129 0 1 -84 0 0 
37 0 -1 -137 0 -1 194 1 0 
-75 0 0 242 1 -1 66 0 0 
-129 0 0 -162 0 0 222 1 -1 
125 0 0 39 0 0 -55 0 0 
157 1 -1 182 1 -1 -147 0 0 
-95 0 1 348 1 0 -166 0 1 
72 1 0 56 0 -1 15 0 0 
82 0 0 -57 0 1 411 1 0 
210 0 -1 -105 0 0 -205 0 0 
-26 0 0 -157 0 1 -159 0 0 
107 0 1 295 1 0 -75 0 0 
-239 0 -1 330 1 0 -106 0 0 
-231 0 -1 145 1 0 5 0 -1 
-233 -1 0 -107 0 0 110 1 0 
-22 0 0 52 0 0 26 0 -1 
127 1 -1 -13 0 -1 -349 -1 -2 
221 1 1 -98 0 1 -68 0 0 
174 1 0 -161 0 -2 197 1 -1 
43 1 0 3 0 0 132 1 -1 
-150 0 1 -33 0 1 296 1 0 
-45 0 0 -113 0 0 97 0 0 
-371 -1 0 253 1 0 164 1 0 
44 0 -1 292 1 -1 -92 0 -1 
-104 0 -1 -98 0 0 53 0 0 
-53 0 0 -143 0 -1 -168 0 0 
331 1 0 -113 0 0 89 0 -1 
78 0 0 251 1 0 -96 0 0 
-156 0 0 54 0 -1 25 0 0 
-43 0 1 -41 0 -1 266 1 0 
-40 0 0 -91 0 0 169 0 1 
-57 0 0 264 1 -1 -170 0 0 
159 1 0 376 1 1 43 0 0 
-163 0 0 -105 0 0 264 1 0 
72 1 -1 -154 0 -1 26 0 0 
82 0 0 180 1 -1 -72 0 0 
-35 0 0 -14 0 -1 -67 0 -1 
-298 -1 -1 223 1 0 -254 0 0 
-196 0 0 -131 0 0 63 1 -1 
-7 0 -1 -157 0 0 11 0 -1 
196 1 -1 124 1 -1 -42 0 0 
-130 0 -1 21 0 0 20 0 -1 
231 1 -1 184 1 0 -82 0 -1 
-165 0 -1 63 0 -1 246 1 0 
-293 0 1 -85 0 0 -18 0 -1 
35 0 -2 -40 0 -2 29 0 -1 
-66 0 -1 -240 0 -1 -76 0 0 
26 0 1 54 0 0 -140 0 -1 
-145 -1 1 -168 -1 0 -255 -1 0 
80 0 0 -317 -1 0 148 0 0 
-168 -1 1 -2 0 1 -97 0 0 
259 1 -1 265 0 0 39 0 1 
46 0 0 -243 -1 1 240 0 0 
65 0 1 154 0 -1 53 0 2 
52 0 -1 -309 -1 -1 21 0 0 
-4 0 1 -133 0 1 169 0 -1 
-157 -1 1 51 0 0 -507 1 0 
5 0 0 -245 -1 1 -242 -1 1 
79 0 0 -30 -1 0 -200 -1 0 
0 0 1 194 0 0 130 0 1 
-220 -1 0 -216 -1 1 -105 -1 1 
-33 0 0 -139 -1 0 -175 -1 0 
169 0 0 99 0 1 -127 -1 0 
103 0 0 240 0 1 179 0 0 
52 0 1 -82 0 0 83 0 0 
72 0 0 -191 -1 0 90 0 1 
350 1 1 -235 -1 2 148 0 0 
-416 -1 0 -166 -1 0 158 0 0 
26 0 0 141 0 -1 9 0 1 
108 0 1 124 0 0 285 1 1 
103 0 -1 -12 0 -1 -153 -1 0 
-71 -1 0 -280 -1 0 149 0 0 
19 0 0 -59 0 1 -345 -1 1 
-228 -1 1 267 0 0 75 0 0 
-237 -1 0 -298 -1 0 18 0 1 
-4 0 1 9 0 0 56 0 0 
21 0 0 101 0 1 -164 0 0 
-201 -1 1 138 0 -1 -181 -1 1 
-220 -1 -1 -20 -1 0 73 0 -1 
44 0 -1 -134 -1 0 84 0 0 
-140 -1 0 126 0 0 144 0 0 
94 0 -1 -112 0 1 173 0 0 
18 0 0 237 0 0 -190 -1 1 
147 0 0 -214 -1 1 292 0 -1 
5 0 0 273 0 0 166 0 0 
-118 -1 0 389 1 -1 83 0 -1 
-208 -1 0 58 0 0 122 0 0 
83 0 -1 -49 0 1 111 0 0 
-26 0 0 -117 0 1 169 0 0 
-129 -1 0 -170 -1 0 139 0 1 
-10 0 0 -186 -1 0 266 1 -1 
-253 -1 1 -25 0 1 -352 -1 1 
11 0 0 104 0 0 329 1 0 
141 0 -1 85 0 0 177 0 0 
1 0 0 91 0 -1 -5 0 -1 
-125 -1 1 202 0 -1 54 0 -1 
-137 -1 0 54 0 -1 -199 -1 0 
118 0 0 -258 -1 -1 -268 -1 0 
-247 -1 -1 -237 -1 0 -187 -1 0 
39 0 0 43 0 -2 95 0 -1 
-20 0 -1 -184 -1 1 -143 -1 0 
122 0 0 -245 -1 0 282 1 0 
271 0 0 -215 -1 0 39 0 0 
41 0 0 -21 -1 0 58 0 -1 
70 0 0 97 0 0 -248 -1 0 
-29 0 0 100 0 -1 71 0 0 
-299 -1 1 181 0 0 -13 0 -1 
113 0 -1 -33 0 -1 48 0 0 
98 0 -1 -266 -1 0 234 0 -1 
71 0 -1 -172 -1 0 182 0 0 
44 0 0 140 0 -1 -104 0 0 
-73 0 -1 -189 -1 0 184 0 0 
-217 -1 0 72 0 0 -418 -1 -1 
-7 0 -1 143 0 -1 78 0 -1 
-367 -1 0 -43 0 0 247 1 0 
180 0 -1 204 0 0 70 0 0 
-36 0 -1 40 0 -1 -320 -1 -1 
113 0 0 234 0 0 66 0 0 
70 0 0 23 0 -1 113 0 -1 
-201 -1 0 -292 -1 -1 -408 -1 -1 
-244 -1 -1 -9 0 0 116 0 -2 
-8 0 -1 -2 0 0 402 1 -1 
76 0 0 
v 3 1000 double
-490.15797273 8.8866186743 1.0788565191 -248.51238069 -17.876140866 -7.9995692048 -94.652170041 12.446238266 8.1440865719 
-183.92797608 14.50284956 8.3138080917 -209.01575171 -14.425853148 -16.364784012 -264.38935504 -2.3235747236 -1.614814748 
-359.63985816 -17.2645867 -23.281397054 -44.070325956 -0.81816123137 -17.473352534 -234.29458312 -1.1839564451 -0.44817183994 
-191.80251006 -8.1239918096 5.7924173382 -492.55015426 -29.472910187 9.14765979 -488.53364348 37.708651364 16.453943006 
-114.98032111 9.5089082696 6.1672543256 -414.14841451 1.3686372781 -27.253160962 -197.72775822 17.927111273 9.0209313736 
-211.60367564 0.38383209275 6.5386906312 -211.47924845 18.301158123 -16.117010879 -285.07689881 -12.27684981 11.677450242 
-274.89361432 24.652223842 -14.014971211 -336.00420237 -2.4560587556 -12.002729336 -388.19939314 -2.6501187553 31.789836908 
-421.80630667 5.8250915086 5.6739862964 -194.56155933 19.182071583 13.484144497 -96.522727522 -26.712122564 -6.0599407683 
-208.82569616 15.932458553 5.1613159916 -57.017841431 -10.461454057 19.332019167 -95.989865877 0.42626006185 -1.6194048658 
-12.069502922 -3.1386196774 18.571593832 -6.2294393558 -9.8516634821 9.060283127 -392.47521548 13.054875364 -8.9996061606 
-215.99210677 -19.021958754 21.123576678 -409.96077863 2.5539141723 -9.407009953 -15.298629999 4.298089611 14.304575325 
-296.93585973 8.7372631342 -2.3290904708 -3.6220547846 -20.062163043 -3.5946247097 -124.47137613 4.5777548929 -13.849487754 
-308.48744905 -23.17665592 -15.752212107 -406.98987976 -24.250008345 17.749036068 -408.5954776 6.7423918753 -1.7503182589 
-423.6741605 -6.9858338683 -6.7588103423 -358.89282084 -9.647031571 -23.257309359 -208.56503171 -4.8527602634 29.09845207 
-321.89759762 18.771551288 19.526187638 -503.55097957 19.47141352 1.6924689462 -114.66358788 22.807577437 -15.79706472 
-255.48428753 -27.864840936 3.2459310907 -471.95480779 7.4500680245 -3.4728274367 -272.73566445 0.96019671984 -0.088770499795 
-460.51060167 12.180989515 2.1867599192 -94.421189072 -4.297532254 -5.2574969234 -365.33336937 14.305754728 23.426401164 
-357.5786899 7.7867710111 20.099012965 -247.11222902 -13.545302782 -7.2684554566 -360.26759941 -9.7525014856 -19.833076788 
-99.173820629 -11.270872183 -2.2071573362 -26.840217683 0.933684421 -7.2179832795 -225.08283872 5.2621734457 6.3994732557 
-137.00132315 -21.175844914 -5.4028575707 -219.27757217 -16.827366882 -6.9211803297 -469.06168306 12.032565227 8.1850319521 
-199.23496541 -16.75474448 -5.9441326151 -33.909988349 -11.526313468 15.818559482 -315.58897027 8.4976611866 -5.0373881023 
-454.02105853 8.282179569 22.856918772 -198.42005639 -9.097158932 24.294126915 -244.08807251 13.224225001 18.299952947 
-450.45820396 -4.4901639638 -0.12956862387 -243.76863477 -24.339575721 1.0581579705 -23.203884387 17.7970477 -15.006234574 
-109.64608661 37.490648905 10.386977322 -233.84311125 -36.666070171 4.657217757 -78.733966472 -13.445586444 30.407659626 
-144.44617134 -20.80543628 18.774105183 -94.860775655 -1.3633313458 -13.729786606 -223.7432837 8.1088883433 -11.064557808 
-350.28450858 1.9360688407 -0.79750395722 -300.11964577 23.589247611 -7.7050492465 -253.56348368 -4.0012118869 0.32896428635 
-139.78223357 40.209414964 13.303322556 -401.45330768 -18.240694147 -11.130152245 -154.19809834 1.474712387 -16.321227984 
-86.449300771 -3.9223004003 0.33409014598 -77.227198447 6.0296539666 9.2409697091 -205.76444331 8.6850912404 10.859125353 
-11.183446724 0.44686147664 4.591592707 -264.73565533 5.1116811802 17.50458914 -178.39602295 14.896891295 8.4255697639 
-5.429695005 -7.1891789543 -25.97475102 -391.41498849 -22.363543051 -0.99291118553 -353.78829565 5.5847678793 -21.270989056 
-123.40702159 -17.67972819 20.488089305 -316.68366696 19.41390142 1.6441574536 -190.76459885 -1.7202602757 30.400235193 
-268.11808083 -3.0886035488 21.832374136 -364.46994713 -8.2599758241 -6.8818826315 -173.74421424 -5.6664200901 -9.7143935556 
-389.38711662 2.2056768013 -9.7627755416 -107.08832734 1.3525459867 -3.7109129966 -139.44870398 -15.060967797 8.4526909197 
-375.88382614 10.428590774 11.302007558 -191.16976326 8.3331751454 19.587104471 -383.02536485 -6.0481910727 -2.2447591604 
-9.4281908544 2.7719389375 25.560748731 -432.88555104 -1.9719633262 -12.042228443 -235.87809285 5.3830279819 -8.0856291024 
-319.62654925 2.687241938 16.342419526 -86.54560915 7.7531430467 4.5075884068 -436.38748195 -11.211129534 0.61726334776 
-257.28042026 -14.01783506 0.5873278999 -88.462418295 23.333025189 -18.649097805 -196.38684425 8.2155756128 -17.70223085 
-432.66431029 3.7651558514 -0.420162858 -235.84725379 15.33645638 -3.8817087425 -245.25178673 -17.1360206 -29.433263704 
-293.20321964 5.2513299463 0.18264201877 -155.30917292 -5.9067085968 -4.7229512424 -267.04788567 -20.017660908 10.38567394 
-272.22864453 4.5370039908 24.532991997 -35.926250599 15.064605068 4.9551166234 -352.99895251 -12.261530892 0.13402126218 
-187.11063948 -10.403960713 4.8168142453 -72.576689519 -19.891461241 7.3357941454 -388.62866525 -1.5744692179 4.5305403789 