ITEM: TIMESTEP
20000
ITEM: NUMBER OF ATOMS
1000
ITEM: BOX BOUNDS xy xz yz pp pp pp
0 10 0
0 10 0
-0 10 0
ITEM: ATOMS id type type x y z ix iy iz vx vy vz fx fy fz omegax omegay omegaz radius 
139 1 1 2.11202 3.26844 1.58556 -22 0 1 -160.8 -6.73546 -20.6708 362.03 -102.25 -1295.27 0 0 0 0.5 
853 2 2 2.60784 0.226501 1.09474 50 1 0 -462.201 1.45353 14.4329 599.593 -1455.77 435.067 0 0 0 0.5 
538 2 2 1.99957 0.83218 0.876394 121 1 0 -385.38 -0.611331 14.369 -1130.33 654.962 198.831 0 0 0 0.5 
352 1 1 1.62581 0.398681 0.170422 -29 0 1 -451.459 15.4608 7.70328 -579.965 1107.2 1851.62 0 0 0 0.5 
316 1 1 0.556653 3.05941 1.76969 -54 0 0 -203.112 -4.12737 -13.0194 4096.32 -989.351 -263.115 0 0 0 0.5 
467 1 1 1.68214 2.63464 1.01431 129 1 1 -212.592 -13.0065 -9.97594 867.107 -435.761 602.698 0 0 0 0.5 
62 1 1 3.95534 2.95616 1.38306 -27 0 0 -170.846 -24.1012 25.7722 -2117.92 -930.236 2098.34 0 0 0 0.5 
860 2 2 4.61056 2.99747 1.03267 -9 0 1 -188.892 13.0579 7.48816 173.177 332.857 -176.65 0 0 0 0.5 
374 1 1 2.05144 4.03731 0.787871 -10 0 1 -74.0127 -25.4536 8.41238 -663.777 -153.78 53.7016 0 0 0 0.5 
16 1 1 4.00149 1.06999 0.849216 -65 0 0 -349.518 -12.9075 5.05033 33.8358 1031.57 77.6162 0 0 0 0.5 
507 2 2 2.20837 1.56075 1.35529 -47 0 0 -307.07 5.75248 18.2877 -3966.11 821.635 -62.358 0 0 0 0.5 
308 1 1 0.769093 2.42715 0.934016 -19 0 1 -219.375 -18.8276 3.34395 540.334 -780.786 -39.9807 0 0 0 0.5 
857 2 2 1.7428 4.78532 0.450018 0 0 0 -29.3368 21.3151 3.48888 2092.69 -540.619 1011.25 0 0 0 0.5 
777 2 2 0.376518 0.697199 0.140936 -68 0 0 -414.91 9.77952 -5.47528 463.826 901.506 934.883 0 0 0 0.5 
903 2 2 1.64484 3.20069 0.238162 -18 0 0 -147.017 8.66373 -0.108662 1331.25 -381.834 409.792 0 0 0 0.5 
77 1 1 0.0484981 0.222239 0.976527 77 1 1 -488.969 10.6366 9.86544 2074.61 -1319.73 1782.86 0 0 0 0.5 
266 1 1 0.628607 1.33563 0.838976 -73 0 0 -309.878 -13.3434 19.157 -293.436 -1400.06 -1430.1 0 0 0 0.5 
828 2 2 1.63038 3.8368 1.88045 -25 0 1 -156.479 -2.52845 -0.658382 -781.02 -279.037 620.347 0 0 0 0.5 
138 1 1 1.27481 3.41473 1.09474 -23 0 1 -173.616 7.75197 -3.77355 -90.1981 606.062 -159.761 0 0 0 0.5 
406 1 1 1.65626 2.32741 0.0949168 -38 0 1 -229.008 -8.94899 -9.76849 -88.6891 -733.208 -195.725 0 0 0 0.5 
126 1 1 1.32668 0.00903373 1.08705 75 1 0 -470.083 -8.47792 -10.6281 186.329 -29.5794 365.35 0 0 0 0.5 
868 2 2 0.151969 1.77865 1.47926 -47 0 1 -308.759 4.1962 6.72512 1353.27 -130.921 1338.71 0 0 0 0.5 
755 2 2 2.23595 2.36784 1.72718 -42 0 0 -237.247 2.20803 20.5574 445.07 -531.34 964.753 0 0 0 0.5 
233 1 1 1.48516 1.47827 0.476092 -35 0 1 -311.882 -2.91662 12.5428 -1110.26 2630 -1697.2 0 0 0 0.5 
246 1 1 2.55363 0.0648545 0.158653 102 1 1 -478.066 1.48416 13.2759 1428.76 -842.548 -640.171 0 0 0 0.5 
43 1 1 2.41958 1.67633 0.347144 -48 0 1 -311.651 24.2867 -7.51574 -849.49 903.969 -5.83563 0 0 0 0.5 
430 1 1 0.908006 3.5124 0.0103693 -19 0 1 -153.848 -7.04945 8.01936 -115.485 -356.522 162.081 0 0 0 0.5 
312 1 1 0.151517 2.99767 0.948542 -5 0 1 -213.207 2.53069 7.94803 -630.628 -981.679 -1847.28 0 0 0 0.5 
764 2 2 0.537337 3.91416 1.43666 -42 0 1 -152.779 33.0788 -3.77722 727.504 -243.679 819.75 0 0 0 0.5 
864 2 2 4.59595 3.85557 0.676761 -22 0 1 -79.5677 -1.80329 -18.042 -1463.63 2577.68 1872.48 0 0 0 0.5 
133 1 1 3.02171 0.19443 1.96137 62 1 1 -437.836 -7.27652 -21.5028 -990.477 2684.32 -48.8725 0 0 0 0.5 
281 1 1 2.87726 4.10594 0.460041 23 0 0 -73.9186 -6.77849 0.631802 35.295 268.277 -96.1446 0 0 0 0.5 
536 2 2 4.35474 1.1812 1.79343 -87 0 0 -323.907 -11.7404 -5.63726 -217.406 409.356 51.8375 0 0 0 0.5 
275 1 1 3.03239 0.940167 0.360896 -33 0 0 -373.52 -7.48776 4.15237 -768.432 2666.68 -230.949 0 0 0 0.5 
787 2 2 3.641 3.58004 0.77091 -33 0 1 -83.1671 -11.2754 6.19556 329.525 671.619 -882.534 0 0 0 0.5 
461 1 1 4.03293 2.02837 0.921325 106 1 0 -265.943 12.468 -9.27003 -867.955 -641.446 1210.39 0 0 0 0.5 
999 2 2 3.4925 4.42034 1.24159 -9 0 0 -64.0332 3.3304 -8.64966 -241.277 93.6018 -5.51894 0 0 0 0.5 
799 2 2 3.49504 0.191595 0.203295 85 1 0 -460.197 -3.86706 13.8165 1805.33 -2337.43 -1931.36 0 0 0 0.5 
766 2 2 4.62908 1.72142 0.254632 -34 0 1 -286.133 -9.97006 2.09746 -1085.75 1234.24 -773.956 0 0 0 0.5 
531 2 2 3.9258 1.98886 1.8957 -30 0 0 -294.539 30.6166 -0.391367 -425.484 -510.943 -812.546 0 0 0 0.5 
974 2 2 4.41656 4.43954 1.44825 171 1 1 -58.0825 0.0481664 -10.6155 383.937 3.00598 64.5005 0 0 0 0.5 
839 2 2 0.912976 4.71934 0.56948 -30 0 1 -33.0167 -9.12117 18.8667 160.742 -1423.04 -469.503 0 0 0 0.5 
551 2 2 0.158813 3.79388 0.424946 -1 0 1 -147.335 19.5216 14.3697 1481 -739.428 -734.702 0 0 0 0.5 
871 2 2 0.106351 4.69424 0.93432 -10 0 0 -27.9957 -8.08774 32.2629 -587.958 -2698.75 371.685 0 0 0 0.5 
555 2 2 4.40803 2.49065 0.101337 -14 0 0 -246.973 28.8704 -9.20967 -366.98 -102.812 967.233 0 0 0 0.5 
280 1 1 2.87445 1.20237 1.25785 -47 0 0 -354.125 4.24234 2.12108 3749.27 -1928.2 64.4327 0 0 0 0.5 
529 2 2 1.55793 4.59244 1.3437 -4 0 0 -55.0789 8.27955 3.61842 -144.243 1018.97 964.16 0 0 0 0.5 
579 2 2 2.62025 4.68377 1.57223 -21 0 0 -63.2237 5.30506 7.01769 1443.21 -2123.69 1043.04 0 0 0 0.5 
730 2 2 2.70613 3.04209 2.33272 -74 0 0 -192.21 3.47057 9.93201 -2086 2393.47 -1345.43 0 0 0 0.5 
907 2 2 1.94353 0.772415 3.29287 -29 0 0 -415.516 1.23866 21.45 0 0 0 0 0 0 0.5 
759 2 2 0.974253 3.30253 3.97127 -25 0 0 -189.282 7.468 2.79641 831.224 210.678 518.908 0 0 0 0.5 
159 1 1 1.33013 2.48363 3.06955 96 1 0 -244.43 5.59946 10.8641 -990.641 1589.55 -1098.24 0 0 0 0.5 
486 1 1 4.8569 0.559559 3.31526 68 1 1 -394.953 -24.8142 -23.5983 401.173 -2133.61 -341.625 0 0 0 0.5 
647 2 2 3.15902 1.6104 2.19642 -38 0 0 -303.597 -1.56666 11.7369 -349.102 -803.36 -87.9751 0 0 0 0.5 
908 2 2 0.748666 2.35971 2.26748 -42 0 1 -245.27 -17.8425 6.11308 1699.32 -1095.51 -278.964 0 0 0 0.5 
513 2 2 3.68131 1.67793 3.14479 -40 0 0 -305.661 1.87378 16.7746 -990.091 777.455 -490.395 0 0 0 0.5 
370 1 1 3.64717 4.98965 3.5869 -3 0 0 -49.7345 2.83532 3.90989 -326.689 -682.197 2332.97 0 0 0 0.5 
939 2 2 0.477691 2.6859 3.03842 -12 0 0 -242.322 -3.60408 7.9604 64.2932 2297.03 850.351 0 0 0 0.5 
503 2 2 2.22823 4.49981 3.31961 -21 0 0 -59.367 -10.5979 24.1731 -4119.77 951.117 -3152.14 0 0 0 0.5 
659 2 2 2.5771 2.53827 3.89196 -26 0 0 -218.166 -25.9357 1.15535 98.3193 -394.66 148.59 0 0 0 0.5 
342 1 1 3.27069 3.9868 2.15368 -16 0 1 -103.485 3.72503 -24.4885 1639.75 -586.413 -652.855 0 0 0 0.5 
748 2 2 3.62587 2.89341 3.65209 71 1 -1 -204.963 -15.8743 -4.59525 489.682 -1518.18 164.697 0 0 0 0.5 
505 2 2 0.39761 1.27072 2.72232 -58 0 0 -357.924 11.5569 -21.0097 2180.17 -2041.81 474.091 0 0 0 0.5 
962 2 2 0.0363545 0.114304 2.60841 -28 0 0 -473.373 5.93502 22.8159 2102.81 -850.344 987.713 0 0 0 0.5 
15 1 1 4.34088 1.25218 3.53061 -47 0 1 -310.997 -4.32785 -5.32684 -439.171 1643.31 155.538 0 0 0 0.5 
101 1 1 1.99923 1.88512 3.27622 -21 0 0 -294.882 4.63723 -17.2311 2200.07 -1967.96 679.523 0 0 0 0.5 
411 1 1 2.37615 3.34492 3.58826 -30 0 0 -168.757 0.0925309 -2.54808 39.6043 409.685 -399.386 0 0 0 0.5 
477 1 1 0.340023 0.700265 3.37719 45 1 0 -430.622 11.4019 7.23823 3741.25 -2351.8 -784.241 0 0 0 0.5 
392 1 1 2.47984 4.26963 2.46855 -17 0 0 -86.1259 0.577867 -22.1646 -1219.61 77.635 2405.14 0 0 0 0.5 
691 2 2 1.3136 0.403798 3.98717 48 1 0 -433.259 -19.5275 -11.4733 1225.88 -2322.26 671.927 0 0 0 0.5 
609 2 2 1.59072 4.50858 2.3285 -15 0 0 -81.6854 8.82599 19.6985 1256.92 -1206.47 -3071.21 0 0 0 0.5 
506 2 2 2.82871 0.426153 3.92157 -43 0 0 -434.297 0.837665 31.3246 -646.963 1670.8 916.874 0 0 0 0.5 
331 1 1 4.41729 4.51834 3.80553 5 0 0 -53.4347 5.0717 2.06687 791.247 -484.249 224.634 0 0 0 0.5 
890 2 2 0.781118 3.62906 3.11535 -15 0 0 -159.026 0.910328 -3.48403 99.4717 -2387.18 703.383 0 0 0 0.5 
858 2 2 0.487779 3.65767 2.36999 -6 0 0 -160.651 8.53099 -7.44404 -228.762 831.617 -449.208 0 0 0 0.5 
743 2 2 4.69732 3.29478 2.01054 -28 0 0 -155.304 1.98013 23.8941 0 0 0 0 0 0 0.5 
429 1 1 0.794048 4.1466 3.80937 -20 0 0 -114.947 20.7101 -4.09447 2979.4 56.9578 -1353.12 0 0 0 0.5 
262 1 1 1.15422 0.0114851 2.75548 -74 0 0 -529.387 11.3969 -9.05148 -454.375 177.856 -272.514 0 0 0 0.5 
456 1 1 0.695796 4.48003 2.60011 -4 0 0 -69.1652 1.30262 15.2944 1583.16 -2943.02 -1655.19 0 0 0 0.5 
7 1 1 3.27792 2.39571 2.70926 -23 0 0 -257.168 19.8307 -1.64287 1839.01 -2217.35 960.142 0 0 0 0.5 
258 1 1 2.70977 0.836224 2.11278 -38 0 1 -408.864 6.77213 5.43439 -243.619 3351.24 896.678 0 0 0 0.5 
773 2 2 4.49278 1.92724 2.63831 -25 0 0 -307.532 16.1317 9.03736 -1750.99 377.547 173.958 0 0 0 0.5 
603 2 2 3.81281 0.793937 2.72051 73 1 0 -391.277 4.23171 -4.91712 -623.355 -298.196 83.4751 0 0 0 0.5 
249 1 1 3.37654 3.66643 3.56823 -49 0 1 -150.869 7.0844 4.14063 2050.02 -1960.39 383.111 0 0 0 0.5 
893 2 2 4.41108 4.70593 2.75417 7 0 0 17.7083 -14.4907 20.145 0 0 0 0 0 0 0.5 
460 1 1 3.06429 4.22076 3.14806 -5 0 0 -87.8861 22.2155 -2.76716 1750.59 1276.06 -2573.31 0 0 0 0.5 
391 1 1 0.740674 4.91869 3.6747 -11 0 0 -13.6022 23.6556 -26.1686 1703.14 971.416 347.306 0 0 0 0.5 
958 2 2 2.91975 0.789123 3.02152 82 1 1 -407.243 -2.79997 23.7391 579.105 -44.3856 -377.394 0 0 0 0.5 
371 1 1 1.19795 2.48182 4.03507 -28 0 0 -237.635 -0.589356 13.379 524.051 634.694 -599.481 0 0 0 0.5 
445 1 1 1.90887 3.29401 4.43795 -9 0 0 -187.133 10.398 -11.8624 174.103 1006.3 860.93 0 0 0 0.5 
948 2 2 4.84612 2.30448 4.53849 99 1 0 -276.709 2.37388 -9.11763 -428.796 135.852 340.274 0 0 0 0.5 
967 2 2 1.64503 0.0500095 4.80856 71 1 -1 -463.339 -15.0393 38.2839 2943.67 -1569.46 -1478.1 0 0 0 0.5 
425 1 1 0.870324 0.264029 4.72987 -60 0 0 -436.428 -27.8345 6.32756 -3318.58 689.951 -101.741 0 0 0 0.5 
86 1 1 2.91701 4.67892 5.2851 -17 0 1 9.1651 -11.1024 -40.0689 1336.62 -586.329 -582.481 0 0 0 0.5 
761 2 2 1.54441 0.765081 5.32548 -68 0 0 -417.46 11.7971 1.74228 -552.258 993.583 -1043.71 0 0 0 0.5 
493 1 1 2.52724 1.98362 4.99133 99 1 0 -249.788 -17.6949 17.4181 972.455 -700.546 222.853 0 0 0 0.5 
39 1 1 1.28849 1.63315 5.6443 -57 0 0 -380.799 27.7397 -4.7875 61.2045 623.382 -929.65 0 0 0 0.5 
780 2 2 1.07767 1.08523 4.01077 -102 0 0 -402.304 6.27063 -11.2156 -514.772 830.909 -1264.36 0 0 0 0.5 
333 1 1 2.11598 4.19941 4.71245 5 0 0 -99.4278 27.2364 -12.1177 -264.707 -1798.37 -926.942 0 0 0 0.5 
646 2 2 0.957591 2.94764 5.55678 -30 0 0 -225.174 -1.68462 -10.7368 1543.81 -2276.35 -1659.82 0 0 0 0.5 
932 2 2 1.88784 2.44424 4.8448 -17 0 0 -252.833 2.15876 11.746 -962.946 1084.83 -406.836 0 0 0 0.5 
869 2 2 1.84701 3.64162 5.49941 -25 0 0 -138.961 -5.79068 4.5813 -25.9437 -1476.09 180.741 0 0 0 0.5 
327 1 1 1.16403 1.76131 4.32178 -10 0 0 -313.296 8.48367 18.0336 -49.4092 -1283.53 1528.23 0 0 0 0.5 
278 1 1 0.746453 1.08933 4.92139 96 1 -1 -373.182 11.4296 -12.0666 -994.856 673.563 -821.62 0 0 0 0.5 
189 1 1 0.0389601 2.31206 5.649 66 1 0 -269.784 -18.8351 -16.0703 -1945.84 -461.303 -143.783 0 0 0 0.5 
277 1 1 2.15692 2.3714 5.95481 -88 0 1 -305.535 22.8628 -5.9016 327.704 351.182 -454.07 0 0 0 0.5 
660 2 2 4.12274 4.61996 5.17698 31 0 0 -32.3603 -1.29617 -11.6446 1089.83 -3285.65 1898.82 0 0 0 0.5 
635 2 2 4.44699 3.6983 5.43553 -105 -1 0 -133.518 3.494 -17.2882 0 0 0 0 0 0 0.5 
944 2 2 2.22796 1.48471 5.80601 -51 0 0 -390.464 5.77088 -8.01304 716.66 -342.917 -13.6991 0 0 0 0.5 
658 2 2 0.578426 2.19097 5.14737 -15 0 0 -287.334 -7.88413 -42.0794 2418.06 985.462 -865.109 0 0 0 0.5 
878 2 2 0.0576338 1.31401 5.35709 68 1 0 -375.183 -11.3642 6.98529 794.088 -488.533 2043.68 0 0 0 0.5 
585 2 2 0.0383475 0.485601 4.17245 -45 0 1 -414.516 -2.35913 9.13599 73.0436 241.999 1562.73 0 0 0 0.5 
396 1 1 0.0467563 3.54249 5.05433 -20 0 0 -127.098 -1.29523 -9.75284 1534.54 -1785.48 106.382 0 0 0 0.5 
288 1 1 1.24959 4.07525 4.60811 2 0 -1 -120.378 1.02203 1.72489 658.049 598.772 -345.93 0 0 0 0.5 
451 1 1 1.66807 4.43463 5.45059 1 0 0 -64.749 17.2582 6.00877 2537.82 -448.572 -335.709 0 0 0 0.5 
298 1 1 0.130379 3.20705 4.27344 -57 0 0 -192.263 -15.2275 -7.9415 -383.543 196.905 -384.209 0 0 0 0.5 
340 1 1 0.0434826 2.96992 5.70224 -6 0 0 -199.115 -8.26845 -13.2397 -9.49306 -891.553 331.447 0 0 0 0.5 
673 2 2 2.14426 0.55818 5.98477 58 1 -1 -474.266 4.61354 -19.748 1891.63 8.08572 1743.45 0 0 0 0.5 
231 1 1 1.40383 4.94477 4.24386 -32 0 1 -45.8739 8.53834 11.9602 4710.98 -1423.79 -2111.01 0 0 0 0.5 
358 1 1 2.78824 4.2527 4.05281 -14 0 0 -104.045 11.1233 -10.5545 1141.04 470.552 3933.31 0 0 0 0.5 
137 1 1 4.51764 0.957077 4.27402 -98 0 0 -377.004 -2.93215 19.5793 -1355.03 -57.1014 1297.47 0 0 0 0.5 
653 2 2 3.247 2.95152 5.46618 112 1 0 -238.385 11.1451 1.94448 -828.384 653.669 683.913 0 0 0 0.5 
259 1 1 3.66161 0.795845 4.51376 -58 0 -1 -387.762 -3.32219 5.54349 -743.88 1241.94 -264.311 0 0 0 0.5 
725 2 2 3.8383 2.48493 4.97801 -18 0 0 -255.171 11.0786 -10.4954 745.246 123.599 -711.99 0 0 0 0.5 
240 1 1 3.87831 0.253597 4.9293 -65 0 0 -423.7 -8.08384 31.6642 -2181.6 -2620.18 1268.01 0 0 0 0.5 
792 2 2 3.60089 1.14588 5.72971 52 1 0 -380.52 21.1097 8.68148 70.432 389.694 -171.28 0 0 0 0.5 
522 2 2 0.892295 3.69564 5.41971 -10 0 0 -148.884 27.765 -9.54107 1949.34 1176.44 299.779 0 0 0 0.5 
12 1 1 3.42241 1.50763 4.1232 -54 0 0 -331.13 12.9767 -8.1844 -374.293 1113.78 -611.132 0 0 0 0.5 
56 1 1 0.131697 4.05313 4.11651 -21 0 0 -95.0177 7.44569 -14.6085 -260.367 -1318.71 2245.84 0 0 0 0.5 
596 2 2 3.81678 3.98177 4.43254 -39 0 1 -105.515 6.74116 -16.7809 0 0 0 0 0 0 0.5 
243 1 1 3.12341 3.1399 4.48694 -25 0 0 -219.138 8.28476 -12.308 0 0 0 0 0 0 0.5 
624 2 2 3.49154 4.18179 5.83165 25 0 -1 -28.2544 -16.4798 -4.00957 362.422 -313.591 344.772 0 0 0 0.5 
147 1 1 3.93082 1.61993 5.00925 -63 0 0 -319.945 -5.41458 1.3441 -104.991 -1377.57 -378.677 0 0 0 0.5 
918 2 2 4.80087 0.219285 4.94614 -37 0 0 -455.368 1.12555 -17.9184 1337.42 1471.15 1249.89 0 0 0 0.5 
741 2 2 1.05755 3.00144 7.71879 -81 0 0 -226.839 16.2924 -7.6587 3.61213 1090.32 19.1068 0 0 0 0.5 
687 2 2 0.708262 1.44224 6.28575 55 1 0 -336.263 -15.9744 19.767 2512.77 -3454.95 363.876 0 0 0 0.5 
501 2 2 1.09319 0.448096 6.0634 32 1 0 -472.092 3.88136 -19.5641 -153.919 168.081 -691.474 0 0 0 0.5 
548 2 2 1.77304 1.84004 7.6448 -53 0 0 -326.256 -1.03211 37.6898 956.792 689.216 1279.32 0 0 0 0.5 
250 1 1 1.68134 3.22315 6.94707 -22 0 0 -165.306 -1.63624 10.3416 -214.085 2577.85 -420.031 0 0 0 0.5 
482 1 1 2.50904 4.79799 7.34539 24 0 0 -1.49875 -11.6752 -11.5572 -2395.41 -917.023 -1337.11 0 0 0 0.5 
157 1 1 1.66217 2.47791 6.67365 -21 0 0 -280.81 -2.40896 28.1282 -771.06 437.059 -572.257 0 0 0 0.5 
498 1 1 1.18297 0.221025 6.90734 124 1 0 -446.655 -3.36654 -16.5759 -396.293 -2338.27 -4.60626 0 0 0 0.5 
703 2 2 0.231897 0.0749902 6.6868 -76 0 0 -450.11 -2.36245 -23.249 -1909.03 2225.55 1926.83 0 0 0 0.5 
830 2 2 2.06874 3.20105 7.80034 80 1 -1 -209.857 6.18678 11.096 650.813 -37.1231 1433.48 0 0 0 0.5 
2 1 1 0.312761 2.8542 6.5368 -1 0 0 -250.568 11.8428 7.76329 -540.676 2107.12 919.421 0 0 0 0.5 
23 1 1 4.01858 0.118305 7.29814 -51 0 0 -497.13 16.6002 4.35141 385.309 -592.296 -2294.35 0 0 0 0.5 
420 1 1 0.849492 4.63389 6.5491 5 0 0 12.9121 -7.7863 -1.67941 1738.77 -1639.84 980.942 0 0 0 0.5 
395 1 1 3.07573 0.0782521 7.2471 26 1 0 -503.053 12.9319 0.711933 2329.01 -2073.7 -90.1305 0 0 0 0.5 
968 2 2 0.190099 1.84974 6.12179 100 1 0 -307.978 -1.03119 8.54931 -2252.01 -490.771 1419.33 0 0 0 0.5 
768 2 2 2.38072 0.483219 7.16563 -73 0 -2 -448.124 7.71303 -8.02456 -2604.1 584.458 -1239.85 0 0 0 0.5 
283 1 1 1.24029 2.34882 7.69823 -76 0 0 -299.931 -4.80872 19.9656 -826.188 -117.691 455.937 0 0 0 0.5 
220 1 1 1.93627 4.16017 6.8615 118 1 0 -119.404 1.12644 -32.8642 198.596 838.479 356.753 0 0 0 0.5 
750 2 2 0.634251 1.34053 7.31532 -54 0 0 -358.31 -14.1626 15.4028 -1771.33 1079.71 -313.316 0 0 0 0.5 
260 1 1 2.04566 1.06789 7.52339 -69 0 0 -395.518 18.1376 -1.59932 340.279 -1437.52 1324.92 0 0 0 0.5 
476 1 1 2.20349 1.84222 6.93055 -10 0 0 -341.162 6.78308 18.4471 1919.7 -1266.28 266.115 0 0 0 0.5 
835 2 2 1.26672 3.70282 6.27091 -11 0 0 -150.179 15.2093 5.39012 1332.21 159.516 -1765.64 0 0 0 0.5 
399 1 1 1.12736 0.782838 7.551 -61 0 -1 -380.064 -14.8198 3.24728 9.93612 -867.372 -365.212 0 0 0 0.5 
708 2 2 0.928657 2.58631 6.38903 -68 0 0 -264.006 2.10333 -9.52673 1439.14 -621.799 -1662.38 0 0 0 0.5 
785 2 2 4.68442 4.74481 6.28812 130 1 0 0.24973 1.53738 -23.3322 2361.17 209.721 627.275 0 0 0 0.5 
65 1 1 3.13471 3.30897 7.25987 -5 0 0 -183.215 3.15296 21.6786 2375.68 -2368.75 -35.9067 0 0 0 0.5 
326 1 1 0.656403 2.07812 7.04999 -2 0 0 -258.038 -11.0926 -18.7431 181.68 156.712 717.493 0 0 0 0.5 
123 1 1 0.74207 4.49833 7.85827 -39 0 0 -66.5682 6.33066 -13.6073 -3304.56 3203.28 2201.4 0 0 0 0.5 
412 1 1 2.82955 1.37664 6.56827 -111 0 0 -371.594 0.862029 -18.7055 1159.19 -852.105 -638.223 0 0 0 0.5 
42 1 1 1.00754 3.76261 7.55346 -48 0 0 -136.39 21.9135 -8.397 4546.6 360.467 632.068 0 0 0 0.5 
671 2 2 0.124395 3.7849 7.49619 2 0 0 -134.001 6.10821 -8.02085 -1940.91 992.444 -103.408 0 0 0 0.5 
896 2 2 3.16909 4.7817 6.77532 -2 0 -1 7.74288 -12.261 -16.2112 -501.654 820.616 -1216.37 0 0 0 0.5 
829 2 2 0.640011 3.72745 6.8554 -7 0 0 -142.798 6.88366 -1.4071 82.7641 -550.251 -1540.73 0 0 0 0.5 
996 2 2 4.74972 2.17174 7.72968 3 0 -1 -286.3 8.77995 -14.5144 -593.098 -77.0849 57.0419 0 0 0 0.5 
973 2 2 3.26282 4.5188 7.6128 -29 0 0 -23.4929 -17.4531 -8.09994 2890.34 -1424.71 443.31 0 0 0 0.5 
654 2 2 1.49422 4.51438 7.97789 -56 0 1 -61.4861 21.6321 -16.3363 687.784 -1027.9 562.668 0 0 0 0.5 
568 2 2 2.73623 3.33183 6.41455 -31 0 0 -153.59 -7.1678 -13.5724 45.8052 255.585 684.238 0 0 0 0.5 
33 1 1 4.36678 1.12207 7.57593 109 1 0 -345.433 -2.54584 -20.104 -2269.07 210.242 -418.301 0 0 0 0.5 
644 2 2 0.194444 3.61611 6.11418 145 1 0 -118.291 22.4143 -6.05629 -0.822406 152.059 -1419.42 0 0 0 0.5 
206 1 1 2.52997 3.8792 7.19457 -42 0 0 -133.523 3.36222 1.45107 -396.821 -529.75 186.162 0 0 0 0.5 
171 1 1 3.99077 4.7464 6.8647 0 0 -1 18.9452 -16.3368 2.3499 28.4618 -769.108 -169.912 0 0 0 0.5 
572 2 2 0.116692 2.62031 7.34271 -35 0 0 -228.239 13.7274 -2.01864 343.555 1655.33 667.46 0 0 0 0.5 
200 1 1 3.46146 0.474917 6.06268 -86 0 0 -466.518 8.89758 31.9832 -337.683 -923.909 -73.6051 0 0 0 0.5 
257 1 1 4.89401 3.36677 6.28859 -17 0 0 -149.818 -8.2826 -7.00332 683.264 2088.02 661.273 0 0 0 0.5 
586 2 2 0.834935 3.0998 8.82261 89 1 0 -208.629 -5.53753 5.026 -260.392 -1394.16 142.737 0 0 0 0.5 
99 1 1 4.52069 0.0822823 8.21725 -42 0 -1 -456.255 -10.0746 12.0581 3832.9 -3691.55 233.75 0 0 0 0.5 
612 2 2 4.76782 4.85196 8.44951 5 0 0 -6.52362 -15.4897 4.29762 1093.31 -1290.57 -28.4567 0 0 0 0.5 
242 1 1 2.00828 4.29968 9.81328 -109 -1 0 -55.8071 -16.3925 2.88032 545.882 -1926.7 -453.095 0 0 0 0.5 
592 2 2 1.7004 3.71799 9.25128 -11 0 -1 -142.303 1.84354 -17.207 1363.93 325.412 322.696 0 0 0 0.5 
372 1 1 0.908533 0.173034 9.37228 -50 0 0 -483.011 13.1723 6.29993 595.867 1887.58 142.027 0 0 0 0.5 
134 1 1 2.39293 2.4841 8.59201 -31 0 0 -235.235 -17.877 21.8108 0 0 0 0 0 0 0.5 
224 1 1 3.8901 0.939485 9.42386 -65 0 0 -397.92 20.1376 5.33672 328.84 1405.63 -294.568 0 0 0 0.5 
495 1 1 0.750169 1.12254 8.39068 -39 0 0 -407.964 12.2244 -15.2758 -88.5855 -61.557 -147.262 0 0 0 0.5 
413 1 1 2.45668 3.38955 9.74966 -37 0 -1 -148.665 15.9827 -0.407835 605.305 -79.8059 52.826 0 0 0 0.5 
272 1 1 4.82526 0.997395 9.12589 -74 0 -1 -393.28 0.408194 18.0181 -338.292 297.946 -430.778 0 0 0 0.5 
956 2 2 0.616706 1.92854 8.85129 -42 0 0 -337.777 23.655 -6.72594 774.807 -2234.04 -245.223 0 0 0 0.5 
771 2 2 1.34788 1.01877 9.5258 -53 0 -1 -388.571 14.6589 -2.08001 -524.19 -1554.76 -1256.59 0 0 0 0.5 
800 2 2 0.201156 2.34845 9.40228 113 1 -1 -262.803 7.09306 36.2957 -1766.33 2558.55 1035.61 0 0 0 0.5 
263 1 1 3.98543 4.09789 8.933 -18 0 0 -57.6921 -23.2127 -19.4688 539.895 -714.006 -461.27 0 0 0 0.5 
345 1 1 2.41684 0.311867 8.22626 66 1 0 -464.748 21.6677 7.6009 2844.98 -621.163 -1389.62 0 0 0 0.5 
790 2 2 1.53728 0.559206 8.31316 -62 0 0 -415.921 2.65901 -8.98588 -1969.06 101.142 2623.56 0 0 0 0.5 
201 1 1 0.777132 1.58328 9.57634 -48 0 0 -391.377 33.6031 28.6048 4859.27 -3117.13 2928.73 0 0 0 0.5 
226 1 1 0.370865 2.12147 8.04956 -48 0 0 -304.409 -14.7603 -14.1141 2817.69 -4307.55 -697.781 0 0 0 0.5 
204 1 1 1.39826 2.67361 9.05282 -83 0 0 -215.498 -10.8004 26.3027 1780.65 -1347.17 727.675 0 0 0 0.5 
446 1 1 3.88752 3.05355 9.15444 -21 0 0 -176.563 1.86165 6.50974 -218.189 257.115 -699.242 0 0 0 0.5 
688 2 2 2.37335 4.86604 8.73159 8 0 0 -17.8609 -24.9802 18.512 117.471 65.1598 713.028 0 0 0 0.5 
559 2 2 4.32326 1.8622 9.34501 -74 0 0 -299.901 9.06954 7.55654 446.323 1734.44 -291.227 0 0 0 0.5 
69 1 1 0.328154 2.88403 8.25907 -35 0 0 -219.22 -8.01636 -5.25647 1052.98 -182.648 -679.999 0 0 0 0.5 
866 2 2 3.456 4.62852 9.13702 8 0 -1 -59.1267 -2.16151 10.6588 63.4044 -1024.59 502.22 0 0 0 0.5 
343 1 1 0.0406028 4.82809 8.70821 -11 0 0 -29.2048 4.95429 -7.61968 -1341.63 1598.64 589.644 0 0 0 0.5 
598 2 2 4.61853 2.80568 9.19913 -21 0 0 -191.371 11.2029 18.0669 -1863.46 -1260.01 -83.681 0 0 0 0.5 
11 1 1 0.508044 4.84352 9.71685 -20 0 -1 -28.1226 5.5262 8.19542 590.667 1319.14 -150.344 0 0 0 0.5 
51 1 1 0.372479 3.67736 8.23716 6 0 0 -136.234 18.998 -5.7064 538.431 684.759 -328.543 0 0 0 0.5 
898 2 2 0.828195 3.73577 9.06711 -29 0 -1 -136.784 8.99287 6.98695 2268.83 -174.591 -72.6333 0 0 0 0.5 
414 1 1 4.33115 0.382533 9.83525 55 1 -1 -451.103 12.2941 22.0461 1558.35 -899.63 647.869 0 0 0 0.5 
95 1 1 4.57171 4.17776 9.68466 -8 0 -1 -67.6256 -4.645 -9.29938 -617.844 936.091 -1085.73 0 0 0 0.5 
697 2 2 3.61708 4.10779 9.92193 -26 0 -1 -68.0138 -14.8393 -0.140172 615.243 -426.146 307.034 0 0 0 0.5 
229 1 1 2.86643 0.18215 9.04762 -37 0 0 -467.224 -11.4785 -12.5318 -3911.35 3937.06 2966.38 0 0 0 0.5 
91 1 1 4.3456 4.94665 9.99371 -5 0 -1 -15.064 5.26662 16.0821 370.363 1073.41 -17.3094 0 0 0 0.5 
282 1 1 4.42917 1.52366 8.48325 91 1 -1 -369.357 14.216 -15.4857 -2252.15 484.758 1076.24 0 0 0 0.5 
881 2 2 0.880396 4.29281 9.68076 -5 0 -1 -64.2242 4.60513 9.83319 1983.46 -1664.02 -220.394 0 0 0 0.5 
61 1 1 4.37902 2.38053 8.39836 -78 0 0 -280.311 27.0852 -4.16341 231.873 2127.4 2465.97 0 0 0 0.5 
992 2 2 3.93241 0.329807 8.14078 -84 0 0 -429.579 -17.1844 -15.1058 -3683.79 606.743 1073.86 0 0 0 0.5 
566 2 2 3.58076 3.06397 9.9769 108 1 0 -151.458 -11.8098 0.295586 -701.371 23.3856 1879.6 0 0 0 0.5 
587 2 2 0.281408 4.16362 8.91284 -18 0 0 -103.522 -7.26434 17.1285 -1650.13 1782.3 1533.71 0 0 0 0.5 
142 1 1 3.4149 0.0922771 9.14658 -53 0 -1 -459.828 24.4957 17.5145 3077.27 1011.51 -17.9515 0 0 0 0.5 
468 1 1 0.988591 4.66948 8.7528 11 0 0 -76.537 30.7671 12.3613 2595.32 -4099.95 286.11 0 0 0 0.5 
910 2 2 0.0849161 3.26696 9.61393 -16 0 0 -144.251 -9.46821 10.7356 -214.468 1454.94 1215.23 0 0 0 0.5 
565 2 2 3.09511 1.10832 9.26553 -25 0 0 -395.31 7.05924 -13.3089 -1657.3 488.719 1304.32 0 0 0 0.5 
613 2 2 3.08855 3.95166 8.21619 -21 0 0 -119.015 -2.8697 0.601213 -390.232 548.264 -278.151 0 0 0 0.5 
339 1 1 3.17653 1.47544 8.02662 -24 0 0 -355.05 19.1503 -34.0561 -35.5207 45.6174 -36.5646 0 0 0 0.5 
584 2 2 3.29036 2.25066 9.28159 -35 0 0 -238.341 15.3814 -31.5874 85.2669 -672.343 928.28 0 0 0 0.5 
497 1 1 3.35469 1.74345 9.98188 99 1 0 -300.685 1.86009 22.6971 -988.602 -1550.23 -2360.32 0 0 0 0.5 
783 2 2 3.25425 3.27791 8.72943 -18 0 0 -167.465 -16.5308 0.786312 -1779.94 -291.353 -591.916 0 0 0 0.5 
775 2 2 3.63533 0.886228 8.4989 -67 0 -1 -370.92 5.52931 3.26497 -1018.95 1852.26 477.841 0 0 0 0.5 
740 2 2 4.93696 3.34128 9.99619 -42 0 0 -148.82 5.27151 -1.1088 1312.27 -2598.9 -1099.53 0 0 0 0.5 
37 1 1 3.90813 6.22247 1.18287 -139 -1 0 105.678 -8.38275 2.50331 -2320.38 -1262.79 -1670.24 0 0 0 0.5 
601 2 2 -0.0744797 7.66274 1.86129 27 0 0 252.555 2.25364 -0.460143 -870.331 890.426 354.295 0 0 0 0.5 
850 2 2 0.0327526 7.82531 0.70436 50 0 1 256.081 12.6356 15.1796 720.339 663.126 -59.5089 0 0 0 0.5 
820 2 2 3.37466 9.47549 1.73965 -44 -1 0 474.106 -3.33178 15.4815 -2600.44 1193.94 2643.45 0 0 0 0.5 
887 2 2 4.26643 9.6307 0.353286 52 0 0 487.143 -4.06432 -1.17197 -1048.54 -2752.61 290.966 0 0 0 0.5 
462 1 1 3.78345 8.7648 0.236029 81 0 0 391.129 1.84642 -13.0299 504.124 2032.89 1335.1 0 0 0 0.5 
904 2 2 0.422992 8.61182 1.16152 28 0 0 328.404 13.2269 -9.12791 -329.83 -664.756 -386.391 0 0 0 0.5 
195 1 1 3.21139 8.51325 1.02308 -66 -1 1 322.419 9.0156 -12.9389 3119.62 -168.186 2317.44 0 0 0 0.5 
447 1 1 2.43738 7.67047 0.199734 37 0 1 217.266 31.4584 -27.5723 -26.7948 -13.0411 14.3216 0 0 0 0.5 
470 1 1 1.15499 7.4942 1.15783 39 0 0 238.939 10.5133 9.28962 -688.046 1152.31 -472.849 0 0 0 0.5 
631 2 2 2.27093 5.3778 1.02514 10 0 0 55.1851 -10.751 11.7492 -1152.55 2264.35 -1799.79 0 0 0 0.5 
85 1 1 3.15818 7.64871 1.22379 53 0 1 229.671 3.18582 -14.1975 -1014.86 1434.98 -817.557 0 0 0 0.5 
55 1 1 2.04558 7.34102 1.4794 41 0 0 212.742 24.0081 -16.3003 1495.39 991.483 699.354 0 0 0 0.5 
457 1 1 2.73348 6.11302 1.39822 5 0 0 141.394 -17.9807 1.43868 -247.854 -1755.76 -939.178 0 0 0 0.5 
500 1 1 4.79874 5.8415 0.0570464 5 0 1 71.0942 -12.345 34.9813 1269.38 -2944.48 -3189.35 0 0 0 0.5 
747 2 2 0.641534 9.429 0.519968 -91 -1 1 498.219 -6.346 8.36328 -53.0607 15.5779 -23.4324 0 0 0 0.5 
706 2 2 3.3017 6.7262 0.673566 40 0 1 130.991 24.112 1.83829 2187.85 311.198 -2050.41 0 0 0 0.5 
525 2 2 0.893769 8.00348 0.266191 -85 -1 0 245.553 10.9294 -9.07165 92.6752 19.1772 -47.1622 0 0 0 0.5 
160 1 1 3.5043 6.96359 1.55335 44 0 0 177.745 0.250613 -0.22455 171.023 -82.884 2333.69 0 0 0 0.5 
749 2 2 1.65731 9.94067 1.93142 -100 -1 1 539.078 -1.84569 4.62138 -1971.29 1837.07 203.56 0 0 0 0.5 
955 2 2 3.54147 5.05229 0.454917 9 0 1 -10.1807 -16.3686 29.5202 248.428 -1094.38 1049.18 0 0 0 0.5 
196 1 1 2.80868 8.69363 0.216587 107 0 0 371.71 -2.26639 -11.5697 1691.23 -1409.02 733.533 0 0 0 0.5 
398 1 1 2.8643 8.53875 1.85744 28 0 0 342.976 -1.74666 31.9848 391.172 -55.7867 -710.641 0 0 0 0.5 
155 1 1 3.89937 8.96191 1.33159 12 0 1 311.717 41.0219 6.13538 3945.73 -3856.62 -2934.47 0 0 0 0.5 
176 1 1 1.68629 7.3049 0.60119 24 0 1 210.955 6.22516 -28.8386 386.224 1480.55 -111.144 0 0 0 0.5 
927 2 2 2.44052 5.74954 0.158226 9 0 1 55.7184 2.8352 18.7841 1581.64 -1953.26 1178.12 0 0 0 0.5 
385 1 1 3.13271 9.74734 0.911749 -101 -1 0 514.495 -16.9676 -13.9136 920.843 -1908.97 612.348 0 0 0 0.5 
983 2 2 1.57156 5.70248 0.66537 13 0 0 57.0469 12.2654 -13.9702 17.0819 1308.43 -595.04 0 0 0 0.5 
796 2 2 1.30875 6.03447 1.46769 8 0 0 125.45 3.46838 -4.90621 -401.124 653.15 1758.38 0 0 0 0.5 
208 1 1 0.705676 5.59751 0.66124 8 0 0 36.6114 0.466418 -1.11197 120.888 571.731 1187.83 0 0 0 0.5 
639 2 2 3.38613 5.9227 0.329648 31 0 1 80.0765 -5.03519 10.3312 -1029 554.795 -152.85 0 0 0 0.5 
614 2 2 2.42387 6.74376 1.10678 39 0 1 170.615 6.30375 -35.9428 -2064.15 -226.594 581.261 0 0 0 0.5 
354 1 1 1.87347 5.27011 1.99421 -14 0 1 14.3748 -0.295725 -6.84922 -605.119 -1063.45 324.331 0 0 0 0.5 
589 2 2 1.99799 6.56738 0.251362 25 0 1 149.674 -2.05902 -21.9864 -1010.95 1098.79 -856.85 0 0 0 0.5 
273 1 1 2.26168 9.32868 1.73879 -77 -1 1 468.688 -25.0225 -21.0304 1784.97 -1807.49 -568.91 0 0 0 0.5 
179 1 1 4.27816 7.31453 0.355516 59 0 0 242.975 -7.25149 16.0731 -2000 2458.74 671.06 0 0 0 0.5 
664 2 2 0.496571 7.38576 1.38148 26 0 0 237.178 -24.2886 5.90395 -487.284 -1520.53 -116.754 0 0 0 0.5 
136 1 1 0.839952 5.10012 1.89457 -15 0 0 -1.18993 2.91125 13.6959 -24.0493 -103.448 117.704 0 0 0 0.5 
6 1 1 0.413104 6.27573 1.57827 -6 0 0 110.292 5.92322 -14.1832 109.122 138.308 235.411 0 0 0 0.5 
578 2 2 2.27878 8.53286 1.02391 40 0 0 362.237 -11.8693 -9.34826 -2683.04 96.792 -187.147 0 0 0 0.5 
452 1 1 4.52726 6.09273 1.75364 14 0 0 88.0557 15.7843 -2.76968 3537.66 664.581 196.493 0 0 0 0.5 
723 2 2 4.54165 8.57499 0.957739 44 0 0 283.388 26.933 -13.2327 932.828 -76.5591 -750.997 0 0 0 0.5 
976 2 2 4.77334 7.12564 1.36068 39 0 0 211.949 -7.13496 9.53738 462.085 284.478 -588.28 0 0 0 0.5 
279 1 1 4.75629 6.05174 0.884843 176 1 0 84.9987 -8.23636 3.50187 992.885 262.052 1400.39 0 0 0 0.5 
162 1 1 0.512321 8.77071 2.21408 45 0 0 349.812 13.276 -11.2725 948.506 453.207 -1078.33 0 0 0 0.5 
458 1 1 4.28685 7.50333 2.40358 23 0 0 274.449 -2.42142 -18.6266 3333.25 -2056.63 921.332 0 0 0 0.5 
931 2 2 2.65593 6.55215 2.76806 15 0 0 137.302 0.139637 13.984 -1220.85 276.652 -420.695 0 0 0 0.5 
81 1 1 4.14403 6.58291 2.44316 20 0 1 184.842 -21.1239 -2.31524 -1184.12 3106.9 2738.56 0 0 0 0.5 
222 1 1 1.68162 9.4495 3.9942 116 0 0 475.528 -9.05242 19.9091 657.685 -196.518 113.863 0 0 0 0.5 
604 2 2 3.76304 8.19508 2.05497 35 0 1 351.881 -8.39516 4.25814 -1988.04 2748.51 -1331.6 0 0 0 0.5 
838 2 2 4.77894 5.53117 2.16451 3 0 1 36.7634 3.9613 29.595 -1253.83 572.396 1870.14 0 0 0 0.5 
700 2 2 4.05917 6.89921 3.39121 39 0 0 256.786 -23.447 -21.468 512.391 -303.99 480.671 0 0 0 0.5 
841 2 2 3.04939 6.19056 3.38317 32 0 0 115.399 -9.93055 18.0878 -759.981 -1234.62 1008.62 0 0 0 0.5 
884 2 2 1.27195 5.9119 3.26552 29 0 0 87.8411 24.7299 16.789 102.879 2838.69 -1943.26 0 0 0 0.5 
815 2 2 3.03076 9.71266 3.42998 53 0 0 458.867 7.65142 -1.58715 -1325.94 -351.554 343.758 0 0 0 0.5 
774 2 2 3.89192 9.49655 3.29479 -49 -1 1 438.994 6.35531 -24.3885 1760.67 -441.841 -276.417 0 0 0 0.5 
763 2 2 4.55452 5.90493 3.20948 8 0 1 127.629 -0.346531 -14.1837 258.405 -198.986 -367.073 0 0 0 0.5 
995 2 2 0.00443443 9.75418 3.54047 -54 -1 1 476.151 -1.55594 22.2121 390.136 909.739 -1131.39 0 0 0 0.5 
802 2 2 3.6957 5.78388 3.35315 -6 0 1 116.213 -10.5988 -1.71762 1596.66 455.42 -524.651 0 0 0 0.5 
105 1 1 3.06547 9.78431 2.55284 42 0 0 470.374 4.73118 14.0003 681.697 -789.414 436.255 0 0 0 0.5 
341 1 1 1.18334 6.39681 2.39666 21 0 0 125.118 8.95169 -4.30105 -20.3983 -451.505 824.687 0 0 0 0.5 
934 2 2 1.91693 6.03781 2.23628 15 0 0 115.793 20.261 14.3734 1560.62 -784.273 -648.944 0 0 0 0.5 
54 1 1 2.97237 7.08874 3.59185 14 0 1 277.371 -12.3276 0.465756 680.211 1272.76 725.608 0 0 0 0.5 
218 1 1 1.3644 5.1894 2.84279 21 0 0 -16.3664 -8.54385 -11.7678 -352.271 3049.88 2094.25 0 0 0 0.5 
68 1 1 3.2511 8.93932 3.97928 50 0 0 409.965 -5.43608 -29.5925 -153.548 -1576.89 2889.71 0 0 0 0.5 