# vtk DataFile Version 4.2
Generated by LIGGGHTS
ASCII
DATASET POLYDATA
POINTS 1000 float
1.65922 1.64229 0.155807 0.436634 2.58603 0.0409111 2.01447 4.06226 1.64738 
1.57973 2.05561 1.17999 0.541845 0.246328 1.20359 2.47371 1.80978 0.183133 
1.03669 0.596642 0.441734 1.78193 0.608416 0.830455 1.54087 3.60956 0.064643 
0.762234 3.1357 0.828982 1.32081 0.293759 1.79101 2.21383 1.35156 1.44048 
1.35677 1.1043 1.2658 2.42932 2.22128 1.22493 4.61326 4.31493 1.79868 
1.40797 0.0680267 0.107571 0.495152 1.80439 1.59587 0.0035144 1.67026 0.613922 
0.403058 0.448735 0.212337 2.27136 4.04977 0.683626 4.14792 2.17326 1.21932 
1.94583 3.18283 0.346816 4.05094 0.6643 1.98803 1.36362 2.93551 1.26949 
0.83298 1.42357 0.681457 3.01748 0.372453 0.620105 0.459018 0.938361 1.57249 
3.29376 1.42947 0.423171 4.57143 3.30495 0.465287 2.53802 0.834884 0.956847 
4.0357 3.51035 1.29139 3.88583 0.0104511 0.51277 0.0255731 4.61498 0.163602 
4.84727 0.714148 1.06876 3.14688 4.36942 0.887007 2.91908 0.420752 1.63148 
0.216294 4.69407 1.07973 0.455912 3.17481 1.70003 4.01188 2.67614 1.89939 
4.19243 2.42343 0.423851 2.05056 4.81156 1.23752 4.21504 1.22334 0.51567 
2.63962 3.11064 0.777669 3.74905 1.44731 1.77291 4.08486 4.18152 0.155325 
0.548159 4.23756 1.77074 1.30414 4.39724 0.335937 3.26746 2.06919 1.1577 
3.31273 2.59227 0.368531 4.75037 1.44605 1.63041 4.78502 2.06817 0.203374 
4.83925 4.22387 0.554083 4.84962 3.20252 1.33874 1.74796 3.37588 3.94613 
1.80236 2.66206 2.08836 4.85135 3.21739 2.21042 3.16138 1.54976 3.03274 
3.70554 0.638783 3.87364 0.929582 3.44259 3.02996 2.33026 1.56666 2.77343 
2.0466 3.64045 2.87646 0.894362 2.25353 2.36606 2.0601 0.873972 3.26475 
2.34964 0.321033 3.59783 2.69595 2.60607 2.45039 2.3375 4.3231 3.8497 
2.46371 1.0219 2.17671 1.5465 1.50216 2.9414 0.218507 2.53436 3.32473 
2.54212 1.74507 3.71395 4.33279 2.16802 2.80533 1.45157 0.0517803 2.77314 
0.495332 1.48915 3.81539 2.47684 3.56112 2.01313 1.09042 2.49454 3.12645 
1.98333 2.37142 3.34503 3.31161 4.49951 2.30455 3.82834 3.52475 2.28225 
1.57445 4.13113 2.47936 4.19554 0.815972 3.0254 1.58911 4.18882 3.38323 
3.07026 0.0227187 2.94936 0.124469 3.66211 2.43059 3.74536 2.83643 3.04409 
3.42009 0.881698 2.63185 3.84928 1.57582 3.98405 1.64563 4.92315 2.92987 
3.00334 1.90317 2.07145 4.6655 0.797962 3.80225 2.70633 0.531904 2.43319 
0.272301 4.57192 2.84878 4.05148 4.25467 3.00258 2.99863 0.704946 3.58228 
2.57679 3.27784 3.43231 1.74229 4.83456 2.07149 0.278901 3.36953 3.68539 
3.00401 4.23004 3.26686 0.115752 4.06902 3.58947 3.73554 3.83924 3.72851 
4.75912 3.09636 3.29875 1.82306 1.6578 2.02627 4.5809 1.55094 3.752 
4.69595 3.89836 2.76821 4.92526 2.17248 3.31189 4.94981 1.61419 2.47931 
4.19741 3.41306 4.0658 0.782979 3.04703 4.08065 0.110252 1.68814 5.16507 
0.0542217 2.34102 5.77143 1.23518 3.17356 4.79568 3.51208 0.702913 4.83711 
1.28647 2.52258 5.41213 0.847758 1.27607 5.09774 4.30788 0.542692 5.1138 
4.06463 4.0252 4.72936 1.73404 1.63143 5.53256 2.63638 0.791646 4.49315 
3.64258 0.0196828 4.43151 2.30929 0.858677 5.48499 2.11641 0.0128856 4.86846 
2.29021 2.76793 5.26932 2.40703 2.68092 4.29471 4.73364 2.09266 4.65906 
1.41851 2.37719 4.38483 2.02286 3.87519 5.667 0.419153 0.278771 4.68554 
1.30929 0.985916 4.01538 2.52198 4.88173 4.52281 2.32435 3.96357 4.75866 
1.53739 0.0318291 5.39958 2.00398 1.75405 4.66869 1.35068 4.83168 4.33387 
2.29977 4.79514 5.50313 4.49546 1.16526 4.56824 0.567281 3.17057 5.09217 
3.70345 3.81833 5.69922 0.0821671 3.24062 5.69616 1.01829 4.00967 5.02238 
2.98417 1.98205 4.72902 0.489351 4.87991 5.60016 4.29526 2.65253 4.22387 
1.13487 4.20755 5.89913 1.47914 3.97695 4.23695 3.51097 4.47377 4.14625 
4.43179 3.47867 5.23421 0.194884 4.01494 5.89445 4.34486 1.43548 5.46159 
3.56608 2.70426 5.30825 3.97331 2.11581 4.98603 4.64944 0.495789 5.79067 
4.60069 4.66745 5.49467 0.52861 1.7356 6.08301 0.655171 3.97488 6.80847 
1.98215 1.76974 6.66993 4.51973 0.451253 6.68973 1.43293 0.143846 7.76726 
3.75327 3.15404 6.10907 1.70616 1.83759 7.60841 2.08524 3.3218 7.06638 
4.5458 3.20329 6.48198 1.16185 2.60318 7.5688 4.86016 0.571258 7.53369 
0.227889 0.85501 7.66956 4.01773 4.98058 7.54352 2.70179 1.5637 6.1459 
1.48901 0.5715 6.77557 0.632274 0.538621 6.08664 2.33608 3.27659 6.12455 
2.65545 1.9728 7.60858 0.767376 0.432475 7.60488 1.11741 2.1057 6.78818 
2.3131 1.11525 7.21456 2.68402 4.50263 6.70892 1.49311 3.72529 7.25131 
1.88449 2.38514 6.0446 3.67909 4.15604 7.96433 2.22724 3.14163 7.91754 
1.58483 2.87958 6.3129 1.3016 3.53978 6.35282 1.9523 4.50876 7.65053 
3.98522 1.45316 6.8921 3.21652 0.4932 7.17545 0.55955 4.67585 6.53735 
3.91247 3.47899 6.99986 3.09891 2.4415 6.81631 0.76729 3.30147 7.24858 
4.24361 1.16142 6.26778 2.96405 3.32387 6.585 2.3904 0.0262672 7.90036 
4.29972 4.46673 6.47215 1.7459 4.51583 6.57371 3.43356 4.37239 6.22664 
3.79534 2.79892 7.72922 3.3261 1.5086 7.44441 3.08938 3.28498 7.46351 
3.53061 1.78895 8.50346 2.41983 1.16749 9.1842 2.50095 4.53957 9.81059 
2.46855 0.964859 8.03448 3.22931 0.954678 9.12473 2.54683 0.439448 8.70851 
1.74849 0.91781 9.8629 1.6889 0.586273 8.59774 3.88763 3.37993 9.82543 
0.981035 2.8363 8.49268 4.19542 2.74195 8.60463 2.09421 1.68946 8.97602 
0.0382885 1.44595 8.99936 1.35884 3.7256 8.24596 1.88454 2.44896 9.60331 
0.50851 1.53044 8.27573 3.21472 1.85545 9.41377 4.55716 0.35853 8.45845 
4.67705 0.334502 9.85422 4.77987 3.52552 9.0233 0.927738 0.839369 9.46011 
2.68066 2.69329 8.18424 1.1896 1.6702 8.97788 4.52038 1.90616 8.69442 
2.22277 3.66569 9.30303 3.84285 0.66303 9.88472 0.984874 3.59136 9.31499 
3.69352 1.19547 8.23876 4.37793 4.48815 8.65865 4.29684 3.60423 8.20733 
0.268097 3.82395 8.39002 0.817956 4.67108 8.30679 4.41924 4.13233 9.35678 
-0.00347354 2.88823 8.19802 2.93093 3.47231 9.30544 2.58018 0.731215 9.92423 
2.99347 2.62401 9.24188 4.01127 2.60422 9.52354 2.81439 4.371 8.68059 
0.618906 4.42137 9.57155 3.18838 2.30074 8.45611 3.7895 0.417188 8.94607 
3.89802 4.60819 9.63056 4.34565 1.33074 9.34207 4.93563 1.43261 9.69982 
4.95024 2.91754 9.7341 0.622684 9.53692 1.26699 1.04624 6.6656 0.791053 
1.72348 9.57434 0.0355939 -0.0939057 9.62541 0.260326 1.75866 9.62674 0.8978 
3.36659 7.75765 1.99758 3.98364 9.12008 0.492264 0.922655 8.55887 0.564658 
0.216879 9.04117 0.182882 2.7068 9.11836 1.86192 0.236502 8.85636 1.61677 
3.27006 7.04166 1.30009 2.90566 5.19039 1.24784 3.59093 9.30821 1.72768 
1.93937 9.98229 1.63067 2.1465 7.31617 1.05157 0.505381 6.37682 0.0512149 
1.03249 9.39505 0.859556 0.51347 7.79352 0.908621 3.64795 7.93835 0.516539 
3.62647 6.16902 1.23082 0.171869 8.01862 1.21119 3.9608 7.05009 0.533381 
0.116174 8.33219 0.0357047 2.91508 8.68963 1.12503 3.10434 9.76944 1.19857 
2.74026 5.94748 1.45449 4.40339 6.44988 0.387723 1.48383 5.40023 1.72331 
0.729144 5.52167 1.95671 1.22284 5.35477 0.339242 1.1787 5.86541 1.18491 
2.53335 8.79463 0.292779 0.846396 7.30503 0.523271 1.81051 6.54847 1.58667 
0.0583733 7.47308 1.92421 2.32921 6.44585 0.77344 0.465862 5.5316 0.733552 
1.75954 8.70971 0.643028 3.39079 7.03753 0.0202902 0.211099 7.17305 0.589821 
0.108487 5.68425 1.4956 0.633064 7.20062 1.60729 0.384748 6.41581 1.71208 
1.95567 5.52266 0.774381 1.61869 7.91789 1.23637 1.72153 8.80101 1.55296 
3.16461 6.06336 0.564138 4.8347 8.85073 0.338633 1.98627 9.56812 3.07739 
3.54998 8.20841 3.05623 0.0455997 9.78894 3.54838 0.995495 8.82667 2.67815 
2.40807 9.71455 2.22993 2.52281 9.49522 3.70211 3.2719 6.61931 2.02272 
3.10323 8.57744 2.51373 0.458486 9.32507 2.46004 3.4262 7.37495 3.28719 
3.16048 5.20425 3.1322 1.43483 9.80801 3.96666 2.4324 5.40763 2.59444 
1.48181 9.37529 2.11679 3.1075 6.77126 2.83304 3.7095 5.85151 2.09329 
2.42752 6.10833 3.29133 3.89906 8.82529 3.89658 4.62819 6.66734 3.55374 
0.937089 8.68719 3.94383 3.9459 6.70394 2.67682 4.38427 5.22632 2.02984 
2.45848 6.32813 2.12314 0.817613 9.31841 3.34526 2.772 5.5994 3.92663 
4.28819 5.85594 3.78101 3.39213 6.15567 3.50496 0.991316 6.3084 3.56497 
1.9857 8.82471 2.49404 1.16272 7.86843 2.47412 3.49805 7.9114 3.95383 
1.12085 5.14826 3.52993 0.976657 6.34899 2.36541 0.332897 5.30433 3.43409 
0.779565 7.44495 3.55783 4.78984 6.21253 2.81972 1.99854 6.71919 3.68307 
1.37101 7.10564 2.6914 1.00627 5.34086 2.68556 4.40084 8.33984 3.45613 
0.553651 8.2569 2.08217 2.09851 8.5584 3.39661 1.71654 5.8377 2.55937 
1.30012 8.21053 3.23552 2.26708 7.10644 2.36996 2.65042 7.68268 3.52954 
3.01102 8.86729 3.47086 4.19231 9.04967 3.03302 4.20906 9.86278 2.96775 
4.22091 8.96176 2.05605 4.54829 8.42688 2.44112 4.78748 9.79131 2.14993 
4.87526 7.48099 3.43047 1.13377 8.56623 5.84007 1.19015 8.64601 4.89511 
2.74047 7.79653 4.59373 3.6343 5.13132 5.05774 3.71745 8.88479 5.74118 
4.55117 6.69898 5.86077 3.75254 7.06943 5.8693 2.39801 6.22885 4.42809 
3.59308 5.35071 4.14366 4.27315 7.77199 4.25551 0.0464523 8.00342 4.12121 
3.54315 7.52012 4.81683 1.68056 5.08308 5.16641 4.48436 5.74636 5.61833 
3.26854 9.09521 4.41558 3.85455 9.70447 5.27297 2.90223 7.26336 5.57301 
0.220593 7.68301 5.64435 0.119777 8.87368 5.9409 4.22726 5.95663 4.69877 
3.13909 5.17213 5.95093 4.4682 7.29812 5.12284 3.28467 8.16613 5.34128 
1.86336 9.10904 4.31444 1.36433 8.09762 4.18828 1.22267 7.10882 4.07275 
3.09717 6.37274 5.47569 0.00983798 5.86391 5.2981 4.21637 8.26073 4.92843 
0.915875 5.2961 4.92278 0.999732 5.88151 5.65051 1.61607 7.76 4.97526 
2.06097 7.89011 4.09438 4.79713 8.81003 5.53511 4.12289 9.67924 4.24943 
1.32861 7.00712 5.3366 -0.0505248 6.21327 4.28161 1.15344 6.38238 4.62889 
2.48578 8.59066 4.70622 0.700847 5.60998 4.22093 2.14833 8.10334 5.52366 
2.83689 9.17037 5.37802 2.75539 9.81891 4.85437 2.73693 5.5941 5.06529 
3.30495 6.88574 4.15463 3.8299 8.83626 4.82447 3.77562 6.48208 4.9186 
4.06986 6.87353 4.02127 4.86657 9.70142 5.22749 4.89235 6.93795 4.47784 
4.90711 5.36006 4.5497 1.47466 9.21575 7.82297 2.86603 6.28612 6.40239 
-0.0560126 9.61368 7.44366 2.45329 8.77049 6.20949 2.40503 9.68627 6.05558 
0.65498 5.13279 7.53023 2.83874 7.45978 7.421 4.55181 6.5189 7.0712 
[...]
POINT_DATA 1000
FIELD FieldData 7
id 1 1000 int
35 646 857 158 226 768 487 536 478 
416 865 212 786 783 201 162 876 759 
225 902 905 947 469 67 585 776 159 
121 833 127 374 316 408 259 566 859 
467 787 612 623 881 260 49 597 149 
495 161 130 598 263 548 858 358 228 
354 333 647 538 12 456 461 819 282 
72 380 460 966 807 25 339 584 258 
967 908 939 7 100 688 95 211 600 
172 679 264 367 389 812 662 615 278 
529 707 618 288 886 406 9 951 62 
641 731 147 446 619 603 722 350 509 
277 513 47 232 665 189 516 918 378 
633 375 781 868 439 572 361 514 421 
325 792 896 247 626 64 672 692 39 
472 660 154 506 73 410 544 527 862 
741 988 290 200 346 145 929 502 940 
794 267 901 654 863 364 257 762 269 
115 104 111 708 856 208 754 606 675 
480 169 245 501 384 465 220 880 239 
352 771 810 547 187 321 687 972 402 
148 753 284 17 996 86 291 431 764 
702 721 89 717 141 40 974 644 656 
923 311 674 43 968 777 769 138 283 
74 383 861 582 797 944 960 139 420 
106 51 651 935 348 492 616 956 442 
716 2 594 983 126 526 61 680 447 
181 690 738 209 477 334 497 822 179 
570 175 108 204 841 534 365 571 462 
448 170 490 946 48 977 392 638 482 
990 156 864 54 720 973 934 451 697 
210 698 178 503 305 942 554 357 710 
639 133 763 994 24 825 216 700 928 
275 542 630 677 203 760 664 401 342 
391 471 256 505 81 976 893 20 838 
244 894 564 248 682 336 359 109 725 
376 871 363 699 840 528 788 607 405 
255 985 53 90 558 659 518 444 272 
714 388 676 643 681 93 423 88 991 
770 873 695 449 5 13 360 493 382 
309 262 757 605 362 959 713 349 669 
989 112 949 489 593 953 562 879 724 
525 119 546 221 950 642 657 583 481 
732 101 897 667 970 634 933 747 432 
273 114 602 621 751 540 817 604 393 
435 207 588 729 379 310 706 900 302 
97 878 182 253 498 26 390 479 752 
355 963 366 166 344 299 412 535 36 
176 229 320 891 122 11 397 285 76 
463 377 292 99 233 57 128 252 414 
368 387 136 711 552 537 686 118 37 
381 403 793 836 135 964 719 709 962 
723 194 337 52 422 468 816 696 936 
411 152 892 811 77 736 500 852 981 
685 484 180 578 508 969 125 63 153 
222 909 772 91 767 190 157 765 16 
954 142 400 941 1000 38 250 171 995 
531 372 298 386 219 341 883 587 549 
984 327 872 775 839 820 313 648 586 
614 898 999 670 18 661 186 636 596 
601 916 79 331 213 217 183 987 541 
828 745 206 243 803 308 907 653 214 
851 193 691 853 427 98 265 241 609 
533 347 930 78 370 332 846 666 955 
921 445 784 351 231 21 322 19 102 
33 196 843 925 110 394 345 395 756 
524 137 780 249 932 778 173 437 433 
625 293 650 744 83 773 748 910 895 
742 961 789 580 96 483 326 827 46 
743 632 75 428 875 15 620 847 120 
703 860 890 821 579 146 671 307 734 
227 434 750 952 399 845 592 652 242 
992 948 80 396 539 798 823 800 635 
287 56 937 829 658 569 958 251 488 
496 343 608 926 270 870 30 511 806 
192 23 415 476 795 425 303 913 567 
613 205 746 568 188 573 611 165 105 
813 454 844 485 835 167 66 998 521 
766 335 4 301 805 65 523 826 450 
591 590 903 424 281 530 761 640 637 
318 581 261 218 323 740 668 912 737 
785 565 830 486 869 418 440 510 234 
975 42 438 904 369 314 69 522 132 
824 924 577 965 129 455 804 555 849 
84 842 430 927 419 979 103 329 911 
919 701 684 645 385 589 850 815 545 
266 993 576 319 107 683 986 889 595 
832 452 563 727 328 312 749 413 235 
295 296 507 678 796 520 628 622 931 
3 443 404 68 739 289 561 409 197 
730 280 117 617 160 185 123 855 943 
693 473 457 802 627 274 971 131 195 
238 14 143 254 356 945 304 458 574 
215 779 340 712 884 494 324 44 874 
799 230 818 808 464 917 715 735 466 
866 782 163 504 915 557 1 151 728 
174 407 837 300 22 980 271 610 631 
177 276 58 553 885 315 10 150 426 
45 831 436 882 429 834 814 55 515 
733 94 624 155 31 134 559 673 543 
887 663 50 801 519 575 532 191 920 
441 694 629 353 459 848 982 338 550 
92 168 491 470 184 888 474 517 60 
70 914 82 705 475 140 224 560 704 
240 6 417 978 294 371 286 499 899 
246 124 87 790 726 27 71 199 202 
373 599 556 34 113 997 59 41 689 
297 32 223 279 906 29 809 938 164 
28 453 317 755 268 649 236 237 957 
758 512 306 398 867 854 655 718 144 
85 116 8 198 551 330 922 791 774 
877 
type 1 1000 int
1 2 2 1 1 2 1 2 1 
1 2 1 2 2 1 1 2 2 
1 2 2 2 1 1 2 2 1 
1 2 1 1 1 1 1 2 2 
1 2 2 2 2 1 1 2 1 
1 1 1 2 1 2 2 1 1 
1 1 2 2 1 1 1 2 1 
1 1 1 2 2 1 1 2 1 
2 2 2 1 1 2 1 1 2 
1 2 1 1 1 2 2 2 1 
2 2 2 1 2 1 1 2 1 
2 2 1 1 2 2 2 1 2 
1 2 1 1 2 1 2 2 1 
2 1 2 2 1 2 1 2 1 
1 2 2 1 2 1 2 2 1 
1 2 1 2 1 1 2 2 2 
2 2 1 1 1 1 2 2 2 
2 1 2 2 2 1 1 2 1 
1 1 1 2 2 1 2 2 2 
1 1 1 2 1 1 1 2 1 
1 2 2 2 1 1 2 2 1 
1 2 1 1 2 1 1 1 2 
2 2 1 2 1 1 2 2 2 
2 1 2 1 2 2 2 1 1 
1 1 2 2 2 2 2 1 1 
1 1 2 2 1 1 2 2 1 
2 1 2 2 1 2 1 2 1 
1 2 2 1 1 1 1 2 1 
2 1 1 1 2 2 1 2 1 
1 1 1 2 1 2 1 2 1 
2 1 2 1 2 2 2 1 2 
1 2 1 2 1 2 2 1 2 
2 1 2 2 1 2 1 2 2 
1 2 2 2 1 2 2 1 1 
1 1 1 2 1 2 2 1 2 
1 2 2 1 2 1 1 1 2 
1 2 1 2 2 2 2 2 1 
1 2 1 1 2 2 2 1 1 
2 1 2 2 2 1 1 1 2 
2 2 2 1 1 1 1 1 1 
1 1 2 2 1 2 2 1 2 
2 1 2 1 2 2 2 2 2 
2 1 2 1 2 2 2 2 1 
2 1 2 2 2 2 2 2 1 
1 1 2 2 2 2 2 2 1 
1 1 2 2 1 1 2 2 1 
1 2 1 1 1 1 1 1 2 
1 2 1 1 1 1 1 2 1 
1 1 1 2 1 1 1 1 1 
1 1 1 1 1 1 1 1 1 
1 1 1 2 2 2 2 1 1 
1 1 2 2 1 2 2 2 2 
2 1 1 1 1 1 2 2 2 
1 1 2 2 1 2 1 2 2 
2 1 1 2 2 2 1 1 1 
1 2 2 1 2 1 1 2 1 
2 1 1 2 2 1 1 1 2 
2 1 1 1 1 1 2 2 2 
2 1 2 2 2 2 1 2 2 
2 2 2 2 1 2 1 2 2 
2 2 1 1 1 1 1 2 2 
2 2 1 1 2 1 2 2 1 
2 1 2 2 1 1 1 1 2 
2 1 2 1 1 1 2 2 2 
2 1 2 1 1 1 1 1 1 
1 1 2 2 1 1 1 1 2 
2 1 2 1 2 2 1 1 1 
2 1 2 2 1 2 2 2 2 
2 2 2 2 1 1 1 2 1 
2 2 1 1 2 1 2 2 1 
2 2 2 2 2 1 2 1 2 
1 1 2 2 1 2 2 2 1 
2 2 1 1 2 2 2 2 2 
1 1 2 2 2 2 2 1 1 
1 1 2 2 1 2 1 2 2 
1 1 1 1 2 1 1 2 2 
2 1 2 2 1 2 2 1 1 
2 1 2 1 2 1 1 2 2 
2 1 1 1 2 1 2 2 1 
2 2 2 1 1 2 2 2 2 
1 2 1 1 1 2 2 2 2 
2 2 2 1 2 1 1 2 1 
2 1 1 2 1 1 1 2 1 
2 2 2 2 1 1 2 2 2 
1 2 1 2 1 2 1 1 2 
2 2 2 2 1 2 2 2 2 
1 2 2 1 1 2 2 2 2 
2 1 2 2 1 1 2 1 1 
1 1 2 2 2 2 2 2 2 
1 1 1 1 2 1 2 1 1 
2 1 1 2 1 1 1 2 2 
2 1 1 2 2 1 2 1 1 
1 1 1 1 1 2 1 1 2 
1 2 1 2 2 1 1 1 2 
2 1 2 2 1 2 2 2 1 
2 2 1 2 2 2 1 1 2 
1 1 2 1 1 2 1 2 2 
1 1 1 2 2 1 1 1 1 
1 2 1 2 1 2 2 1 2 
2 1 2 1 1 1 2 2 2 
2 2 1 2 2 2 2 1 2 
1 2 2 1 1 2 2 1 2 
1 1 1 1 1 2 1 2 1 
1 2 1 2 1 1 1 2 2 
1 1 1 2 1 1 1 1 2 
1 1 1 2 2 1 1 1 1 
1 2 2 1 1 2 1 1 2 
1 1 1 1 2 1 2 2 1 
1 1 1 2 1 2 1 1 2 
2 2 1 1 2 2 2 2 1 
1 1 1 1 2 1 2 2 2 
2 
i 3 1000 int
-99 0 2 -40 0 1 -4 0 0 
-3 0 1 -73 0 1 -102 0 -1 
-82 0 0 -115 0 0 1 0 1 
-69 0 0 -54 0 -1 143 1 0 
-97 0 1 -31 0 1 -67 0 1 
80 1 0 -35 0 1 -40 0 0 
-52 0 1 145 1 1 -32 0 0 
18 0 1 105 1 0 162 1 1 
-75 0 1 -80 0 1 149 1 0 
140 1 0 14 0 0 -70 0 1 
-19 0 1 -81 0 0 -4 0 0 
-87 0 -1 174 1 1 -125 0 1 
194 1 1 -42 0 1 0 0 1 
-43 0 1 -10 0 0 -96 0 1 
-9 0 1 -60 0 1 -7 0 0 
-55 0 1 -1 0 1 -24 0 0 
-32 0 1 -30 0 1 -77 0 1 
-12 0 0 -24 0 0 -82 0 1 
-21 0 1 -8 0 0 -64 0 0 
165 1 0 -78 0 0 -20 0 0 
165 1 0 -40 0 1 139 1 0 
123 1 0 -36 0 1 -9 0 0 
-41 0 1 -40 0 0 -92 0 0 
-46 0 1 -51 0 1 -69 0 1 
112 1 -1 -59 0 1 -30 0 0 
-44 0 0 -10 0 0 -2 0 1 
-11 0 0 84 1 0 -27 0 1 
-126 0 0 -24 0 0 -16 0 0 
68 1 -1 -41 0 0 39 0 1 
-42 0 1 113 1 0 136 1 -1 
-8 0 0 -239 -1 0 -40 0 1 
-10 0 -1 187 1 0 -57 0 1 
166 1 0 -34 0 0 -40 0 0 
-14 0 0 219 1 0 -88 0 0 
-33 0 1 -38 0 1 123 1 0 
-84 0 0 90 1 0 -66 0 0 
-110 0 1 -61 0 0 -66 0 0 
-56 0 1 71 1 1 118 1 0 
-85 0 1 -69 0 0 -106 0 0 
-111 0 1 97 1 -1 106 1 0 
-67 0 1 -27 0 0 -57 0 0 
-27 0 0 -52 0 0 111 1 0 
72 1 -1 115 1 0 -9 0 -1 
-121 0 0 -25 0 -1 56 0 -1 
-22 0 -1 117 1 0 -76 0 0 
17 0 0 25 0 0 5 0 0 
-70 0 0 49 0 0 -29 0 0 
12 0 0 24 0 0 -33 0 0 
-92 0 0 34 0 0 110 1 0 
-115 0 0 137 1 0 110 1 0 
-15 0 1 -101 0 0 22 0 -1 
42 0 0 -114 0 0 -74 0 -1 
-63 0 1 -29 0 0 -32 0 0 
-31 0 0 -79 0 0 -104 0 0 
63 1 -1 2 0 0 71 1 0 
-94 0 0 -113 0 0 0 0 0 
-71 0 0 -97 0 -1 -33 0 0 
-69 0 1 138 1 0 -40 0 0 
88 1 0 -37 0 0 -6 0 0 
189 1 0 25 0 0 -184 -1 0 
-58 0 0 -86 0 0 47 0 0 
63 0 0 -71 0 0 4 0 -1 
104 1 0 22 0 -1 -123 0 0 
-17 0 0 63 0 0 -90 0 0 
-74 0 0 -17 0 -1 -23 0 1 
-78 0 0 -65 0 -1 -45 0 0 
122 1 0 126 1 0 -61 0 0 
-50 0 0 -20 0 0 -13 0 0 
242 1 0 203 1 0 -64 0 0 
92 1 -1 -13 0 0 -25 0 -1 
-76 0 0 152 1 0 -106 0 -1 
-1 0 0 -38 0 0 -106 0 0 
27 0 0 -45 0 0 -20 0 0 
7 0 -1 132 1 -1 -73 0 0 
132 1 0 -30 0 0 5 0 0 
-38 0 -1 3 0 0 31 0 -1 
-33 0 0 -11 0 0 -114 0 0 
-25 0 0 -65 0 0 9 0 -1 
-43 0 -1 -16 0 0 -77 0 0 
15 0 -1 119 1 -1 -78 0 0 
-100 0 0 -90 -1 0 56 0 1 
58 0 0 67 0 0 155 0 1 
-150 -1 0 82 0 0 44 0 0 
142 0 1 -47 -1 1 90 0 0 
-155 -1 1 10 0 0 -103 -1 1 
-108 -1 1 42 0 0 34 0 1 
-116 -1 0 31 0 1 112 0 0 
-3 0 1 95 0 0 -110 -1 0 
46 0 0 58 0 0 70 0 0 
-14 0 0 23 0 -1 17 0 0 
7 0 0 25 0 1 -25 0 1 
37 0 1 20 0 0 -28 0 1 
26 0 0 6 0 1 -26 0 0 
106 0 0 43 0 0 21 0 0 
-19 0 0 59 0 0 15 0 0 
-102 -1 0 -170 -1 1 81 0 0 
43 0 1 100 0 1 31 0 1 
52 0 0 118 0 -1 82 0 -1 
-84 -1 1 60 0 0 0 0 0 
-71 -1 0 -156 -1 1 63 0 0 
-19 0 1 -108 -1 0 -51 0 1 
46 0 0 54 0 0 -20 0 1 
-12 0 0 58 0 0 -13 0 0 
-97 -1 0 28 0 1 51 0 0 
7 0 0 -147 -1 0 8 0 1 
-225 -1 0 9 0 0 7 0 0 
-169 -1 0 1 0 0 80 0 0 
-29 0 0 22 0 0 -29 0 0 
-105 -1 0 -8 0 0 20 0 -1 
30 0 -1 -15 0 1 43 0 -1 
45 0 0 59 0 1 6 0 0 
-71 -1 1 48 0 0 13 0 0 
37 0 0 34 0 0 -60 -1 0 
-124 -1 0 35 0 1 -106 -1 0 
236 1 0 -111 -1 0 99 0 -1 
-17 0 1 21 0 0 74 0 -1 
-132 -1 0 52 0 0 61 0 0 
-44 0 0 -95 -1 0 49 0 0 
-3 0 0 29 0 -1 10 0 -1 
-122 -1 0 146 0 0 -113 -1 -1 
37 0 0 -115 -1 0 60 0 0 
15 0 0 26 0 0 95 0 0 
-139 -1 1 47 0 0 -185 -1 0 
65 0 0 -7 0 0 80 0 1 
71 0 -1 28 0 1 69 0 0 
104 0 1 120 0 1 -143 -1 0 
-140 -1 -1 -6 0 0 17 0 0 
63 0 0 19 0 -1 -150 -1 0 
55 0 0 -68 -1 1 71 0 -1 
-162 -1 1 -59 -1 0 25 0 0 
-46 0 0 142 0 -1 62 0 -1 
-16 0 0 -135 -1 0 32 0 0 
-122 -1 1 -166 -1 -1 110 0 0 
6 0 0 113 0 0 -146 -1 0 
25 0 -1 62 0 1 32 0 -1 
31 0 -1 122 0 1 37 0 0 
127 0 1 -86 -1 0 13 0 0 
54 0 0 -81 -1 0 86 0 0 
6 0 0 105 0 0 55 0 -1 
-141 -1 0 155 0 0 112 0 -1 
60 0 -1 54 0 0 6 0 -1 
91 0 0 61 0 0 -14 0 0 
17 0 -1 47 0 0 -13 0 0 
-150 -1 0 91 0 0 -131 -1 -1 
49 0 0 -76 -1 0 36 0 0 
29 0 -1 67 0 0 -19 0 -1 
59 0 -1 87 0 -1 82 0 0 
114 0 0 -159 -1 1 -200 -1 -1 
-90 -1 -1 -64 -1 0 104 0 0 
30 0 0 103 0 0 93 0 -1 
-8 0 -1 -125 -1 -1 -6 0 -1 
60 0 -1 63 0 -1 89 0 0 
30 0 -1 119 0 0 -203 -1 -1 
28 0 0 0 0 -1 110 0 -1 
116 0 -1 -3 0 -1 52 0 -1 
116 0 0 79 0 0 -72 -1 -1 
75 0 -1 -168 -1 -1 102 0 -1 
143 0 0 -184 -1 -2 12 0 0 
-4 0 0 26 0 -1 5 0 0 
-29 0 -1 20 0 0 41 0 -1 
11 0 0 110 0 0 -170 -1 1 
18 0 0 -111 -1 0 57 0 -1 
26 0 0 28 0 0 24 0 0 
64 0 -1 -177 -1 0 78 0 -1 
-145 -1 0 59 0 -1 28 0 0 
157 1 1 -36 0 1 -55 0 1 
-8 0 0 -56 0 1 -26 0 1 
-39 0 1 137 1 0 -90 0 0 
127 1 0 -77 0 0 -89 0 0 
-7 0 0 -77 0 0 -60 0 1 
-40 0 1 -18 0 0 -92 0 1 
-49 0 0 -81 0 1 -82 0 0 
58 1 0 15 0 0 24 0 0 
-2 0 0 -31 0 1 -107 0 0 
114 1 1 -33 0 0 -3 0 0 
-94 0 0 -35 0 1 -76 0 0 
-98 0 0 143 1 1 147 1 1 
65 1 1 -42 0 0 -25 0 0 
-26 0 1 -27 0 1 -42 0 0 
85 1 0 -85 0 0 -47 0 1 
58 1 0 -56 0 0 -65 0 1 
1 0 0 141 1 1 -27 0 0 
63 1 -1 103 1 0 89 1 0 
-35 0 1 -8 0 1 -52 0 1 
-47 0 0 119 1 0 -42 0 1 
-58 0 0 168 1 0 2 0 0 
-114 0 0 120 1 0 93 1 0 
97 1 0 -11 0 0 -23 0 0 
-50 0 1 194 1 1 -33 0 0 
200 1 0 -10 0 0 -16 0 0 
9 0 1 -15 0 0 -108 0 0 
-44 0 1 23 0 0 10 0 1 
-54 0 1 -18 0 0 -63 0 1 
-22 0 1 -34 0 1 -90 0 1 
51 1 0 -60 0 0 0 0 -1 
160 1 0 149 1 0 -9 0 1 
56 1 0 -40 0 1 83 1 -1 
117 1 0 62 1 0 -46 0 1 
-31 0 1 -127 0 0 -123 0 0 
-65 0 1 -42 0 0 -119 0 1 
101 1 0 -77 0 0 105 1 -1 
-11 0 0 -98 0 0 -28 0 0 
88 1 0 108 1 0 -51 0 0 
127 1 -1 -26 0 1 -71 0 0 
6 0 -1 -2 0 0 -73 0 0 
119 1 0 -66 0 0 88 1 0 
-19 0 0 -39 0 0 89 0 0 
-44 0 0 22 0 -1 117 1 1 
-53 0 1 -8 0 1 -66 0 1 
1 0 0 22 0 0 -106 0 -1 
-112 0 0 -19 0 1 -24 0 0 
120 1 0 -24 0 0 -8 0 0 
-5 0 0 135 1 -1 -45 0 0 
-79 0 0 -65 0 0 -84 0 0 
35 0 0 -88 0 -1 -22 0 0 
-20 0 -1 -1 0 0 -187 -1 0 
-112 0 0 154 1 0 -28 0 0 
-30 0 0 -83 0 0 -122 0 0 
153 1 -1 178 1 -1 -188 -1 0 
117 1 0 -32 0 0 -26 0 0 
-22 0 0 -30 0 0 156 1 -1 
126 1 1 -31 0 0 -86 0 1 
94 0 0 -23 0 0 -32 0 0 
58 1 0 -65 0 0 11 0 0 
12 0 0 -19 0 -1 -70 0 0 
24 0 0 -82 0 0 1 0 -1 
-35 0 0 -63 0 0 -96 0 0 
110 1 0 -1 0 0 17 0 0 
-34 0 0 -112 0 -1 -12 0 0 
-41 0 0 21 0 0 -79 0 0 
-28 0 0 55 0 -1 80 1 0 
133 1 0 128 1 0 85 1 0 
-79 0 1 -24 0 0 112 1 -1 
-29 0 0 -128 0 0 -33 0 0 
-58 0 0 -55 0 0 -116 0 -1 
68 0 -1 -78 0 -1 -26 0 0 
-77 0 1 174 1 -1 68 1 -1 
-162 -1 0 2 0 -1 -32 0 -1 
-4 0 0 9 0 -1 -41 0 1 
-97 0 0 -94 0 0 -57 0 1 
-56 0 0 -11 0 0 -8 0 0 
25 0 -1 -142 -1 -1 -48 0 0 
-7 0 0 18 0 -1 -36 0 0 
198 1 0 -54 0 0 149 1 -1 
110 1 0 -32 0 0 -80 0 0 
21 0 0 -37 0 -1 -65 0 -1 
125 1 1 -58 0 0 24 0 -1 
63 1 -1 -35 0 0 -60 0 0 
-54 0 0 -13 0 0 64 0 0 
8 0 0 -43 0 0 105 1 -1 
29 0 -1 -106 -1 0 11 0 0 
-111 -1 0 -23 0 0 12 0 1 
98 0 1 -79 -1 1 -21 0 1 
16 0 1 67 0 0 68 0 1 
9 0 0 -77 -1 1 -135 -1 -1 
-58 -1 0 50 0 0 47 0 0 
59 0 0 -139 -1 0 41 0 1 
73 0 1 87 0 0 90 0 -1 
-113 -1 0 25 0 1 62 0 0 
-2 0 0 -134 -1 1 21 0 0 
45 0 1 1 0 0 82 0 1 
-29 0 0 25 0 0 11 0 1 
-44 0 1 36 0 0 -8 0 1 
-135 -1 1 -41 0 0 -17 0 0 
72 0 0 37 0 -1 -82 -1 0 
-1 0 0 18 0 0 58 0 0 
28 0 1 28 0 0 26 0 0 
47 0 0 62 0 0 7 0 0 
76 0 0 8 0 0 -137 -1 -1 
49 0 0 219 1 1 59 0 0 
-99 -1 0 -79 -1 0 -107 -1 0 
52 0 1 68 0 0 11 0 0 
-36 0 0 -163 -1 0 -60 -1 0 
33 0 0 17 0 0 13 0 0 
4 0 1 -17 0 0 -123 -1 -1 
51 0 0 55 0 0 -116 -1 1 
-150 -1 0 9 0 1 59 0 0 
4 0 0 29 0 0 57 0 0 
-81 -1 0 38 0 0 -9 0 1 
51 0 0 -17 0 0 -14 0 0 
65 0 0 36 0 0 11 0 0 
76 0 0 36 0 -1 65 0 0 
107 0 0 83 0 0 104 0 0 
74 0 0 21 0 0 25 0 0 
106 0 0 34 0 0 57 0 0 
16 0 -1 72 0 -1 110 0 0 
43 0 0 43 0 0 98 0 0 
-146 -1 -1 -27 0 0 22 0 0 
56 0 -1 21 0 0 -136 -1 0 
75 0 -1 77 0 0 105 0 1 
-49 0 0 40 0 -1 20 0 0 
52 0 0 -118 -1 0 42 0 -1 
-182 -1 1 24 0 0 26 0 0 
-104 -1 1 64 0 -1 66 0 -1 
63 0 0 58 0 0 48 0 0 
-18 0 0 -18 0 0 40 0 0 
-121 -1 1 68 0 0 -139 -1 -1 
106 0 -1 -16 0 0 25 0 -1 
36 0 0 98 0 0 -65 -1 0 
-101 -1 0 92 0 -1 -92 -1 0 
89 0 -1 51 0 0 18 0 0 
-157 -1 -1 -66 -1 -1 85 0 -1 
31 0 -1 93 0 0 -123 -1 0 
41 0 0 -162 -1 0 -115 -1 -1 
75 0 0 18 0 0 -137 -1 1 
9 0 -1 51 0 0 42 0 0 
23 0 0 13 0 0 58 0 -1 
59 0 -1 49 0 0 231 1 0 
49 0 0 -19 0 0 30 0 0 
57 0 0 8 0 0 37 0 -1 
-77 -1 0 23 0 0 86 0 0 
-101 -1 0 39 0 0 84 0 -1 
-102 -1 0 6 0 -1 64 0 0 
27 0 -1 69 0 0 -35 0 0 
66 0 0 29 0 0 -97 -1 -1 
138 0 0 92 0 0 5 0 0 
-107 -1 0 94 0 -1 -77 -1 0 
53 0 0 -170 -1 -1 76 0 -1 
-86 -1 -1 45 0 -1 76 0 -1 
125 0 0 36 0 -1 24 0 0 
48 0 -1 -125 -1 -1 -65 -1 0 
104 0 -1 143 0 -1 -8 0 -1 
263 1 -1 62 0 -1 77 0 -1 
114 0 -1 16 0 -1 36 0 -1 
36 0 -1 42 0 -1 -10 0 0 
-48 0 -1 32 0 -1 21 0 0 
-84 -1 0 -58 -1 0 47 0 -1 
-12 0 -1 36 0 -1 77 0 -1 
59 0 -1 8 0 -1 2 0 -1 
-156 -1 0 -125 -1 0 10 0 -1 
64 0 0 16 0 0 39 0 0 
-17 0 0 -1 0 0 47 0 -1 
31 0 0 37 0 -1 -93 -1 0 
143 0 0 
v 3 1000 double
-342.13912633 11.470651288 25.052650365 -250.39381432 13.965759958 6.6631097242 -104.57373215 -10.726186455 -12.492316226 
-285.0327644 -14.457797464 -4.8108165161 -435.75956789 5.7708821681 2.3817939109 -318.55835048 16.486143773 10.773053454 
-438.21960131 13.087094098 9.4291913363 -425.33053024 -16.02003847 -4.978747792 -109.19284367 -11.209236715 -26.667754957 
-183.72142389 -2.2742417634 -32.596502044 -478.34955553 5.7865515038 15.545349348 -369.07567182 16.856587486 -6.4050724723 
-384.94104637 8.9594179591 18.561352601 -281.74299814 18.994287469 11.718610657 -91.761657242 2.8503251013 13.566004806 
-498.18508658 3.0398564068 -11.215474236 -291.01173941 19.759512649 14.65245842 -352.02301323 14.831015614 3.6578935819 
-423.01546957 -15.900752222 -13.322359451 -71.670781573 -14.383445657 -18.873837833 -260.12472926 -2.3137895632 -6.0109370471 
-147.23736749 -25.509241459 0.13288417151 -440.32679567 -3.2550484147 -11.697703494 -216.32397506 19.117656919 18.78541707 
-357.67873838 20.869161481 -3.5281814881 -487.54167833 11.741854974 -40.237065953 -383.42519208 7.5254646389 20.341754184 
-321.31226706 -5.8728340405 -10.67844678 -165.09834831 12.049334801 -9.7117308533 -438.59690794 23.304936309 -22.390034044 
-177.58497764 16.324668327 -2.5381106371 -514.04376486 8.9444357698 4.4304470957 -25.085374087 0.10779836143 -2.6850617344 
-412.48887332 -25.042309344 27.04261043 -56.967905089 -10.500521222 -25.765891582 -465.35110262 7.4382568141 -11.377305157 
-49.511081985 0.70693905348 -8.9702791561 -156.21943493 -16.96954009 -12.22843175 -205.12245432 0.78608132088 25.414167786 
-231.88854044 6.1155965398 -1.1406570067 -30.486175506 -5.3205678406 -1.2767103718 -342.81919828 -7.895958355 22.90776882 
-193.78152279 18.009441185 21.291655236 -352.93663921 8.7926559769 -11.454426282 -91.656162376 6.1919091541 32.060936976 
-62.084873993 -4.1224741393 3.3250465019 -38.301383251 -2.7446670439 -4.1530197961 -276.58173882 -4.0905244319 7.9457945903 
-226.49768858 3.5823692572 -0.96622497305 -372.67071102 7.8864927317 18.895212718 -253.11744199 14.324490165 -4.5789602805 
-84.020950127 37.136904135 6.5638237757 -188.94489681 0.77201024778 4.2174761736 -154.97017479 -25.176160198 -34.330499257 
-225.91196397 -4.6430558178 10.417607326 -187.52806283 10.139529421 -1.2063193209 -372.62732364 35.746622094 26.811672724 
-439.28728421 20.392570868 -17.463722017 -170.02895405 12.078956177 -14.513403082 -330.68295771 27.658387729 21.06117302 
-101.57992497 -38.033815359 26.767723538 -230.00878525 -14.38750337 2.732352139 -408.21638374 -3.1415669555 6.4342631334 
-452.10126757 -30.587696765 29.64393942 -215.4722985 16.811594377 14.643543751 -69.725364083 -11.224821191 11.67900359 
-394.12225017 10.895317483 -4.3225321532 -349.33243864 -3.0674746366 29.87694391 -262.71491875 -4.3348289808 -18.483266272 
-317.7784558 -5.1988882101 25.013947707 -274.14199366 -6.8491073322 -17.293328727 -469.40441085 -1.0632925248 8.8442471525 
-374.1619971 -0.21807664965 -9.6252544471 -117.98125897 -18.382074536 12.058548495 -275.75750301 9.40368854 6.8779291248 
-288.86743701 19.034768277 -3.5312046749 -41.572188679 -19.718976758 -7.8018910271 -172.50415099 12.870220564 13.091213139 
-100.29195987 -26.701908026 -0.3361493564 -436.75346744 5.0807707786 -20.340120964 -80.203100831 -14.88543279 -0.71856584855 
-507.99064249 -13.956261383 5.061130259 -123.02967089 0.60881069484 3.5129179702 -166.50967307 -18.702882333 5.6634506691 
-440.21633329 10.352749663 -7.2363636165 -340.07352586 1.1442532846 5.94466149 -5.7539065449 9.2448050521 -7.6359575331 
-276.02889621 -14.10929858 14.417447501 -462.9888126 -3.277692236 0.64232095105 -447.55637829 -13.966728746 21.936161855 
-58.566372432 13.274212458 -1.5428722883 -140.49119219 36.089130851 -18.087359694 -456.40220504 26.177975671 -5.2391634711 
-182.84606109 5.4857202369 -8.1513668219 -22.950162767 -7.6261158043 5.5975682799 -177.18947745 -8.3539405196 -1.530396367 
-75.878165271 -1.8796269705 -12.544808312 -110.90324833 23.037173169 0.61892054807 -117.413605 -9.7074957904 -23.03971981 
-203.10377722 7.3276202905 -1.8196160896 -318.63124331 7.7059740507 27.811182691 -353.2738997 18.759726659 -8.6300591963 
-128.1626641 19.196767334 -9.7335064787 -262.39412187 9.0037818942 -0.0042068591515 -326.59537306 -6.8532862313 -15.757776961 
-128.7267864 -4.6149447509 7.4980023448 -169.00486794 -15.56887286 -9.3993565596 -313.66505985 -8.6607532155 6.0842358488 
-258.06815269 17.643160224 21.55218146 -152.42698019 15.72377326 -19.134626265 -419.95746357 9.2002630688 -7.8154984783 
-231.12990473 -10.659883536 -5.664557281 -322.0243338 -18.000002278 -11.700990386 -413.9045431 -14.006355278 -17.321721701 
-74.737864629 17.476134439 -4.6967204784 -331.61210819 -14.509223324 -10.92257303 -395.60770368 3.1570869902 16.233986249 
-518.50523448 -10.600109594 -0.24911650484 -336.28151882 -21.426201286 1.7068340855 -505.89584822 6.1741878418 -9.1571700975 
-240.27235114 8.8048984048 0.28951513472 -237.8947852 5.8479495501 3.8793846747 -300.71503257 20.573161256 0.099657569054 
-243.53999012 -11.305272332 -16.586372236 -73.764757944 5.8562603554 3.4139359705 -514.07126707 15.690744854 21.827878967 
-383.42088625 -17.709031057 -22.264157662 -10.473195325 -4.2665453711 21.808259759 -44.431955872 -8.1600180174 10.311470217 
-504.82105266 4.4582835488 -8.2882526109 -278.82286238 -22.468201656 -11.759323641 3.467488 -3.4804866084 -6.806043811 