ITEM: TIMESTEP
22500
ITEM: NUMBER OF ATOMS
1000
ITEM: BOX BOUNDS xy xz yz pp pp pp
0 10 0
0 10 0
-0 10 0
ITEM: ATOMS id type type x y z ix iy iz vx vy vz fx fy fz omegax omegay omegaz radius 
269 1 1 2.62945 0.0979726 0.580892 -84 0 1 -418.393 -20.1344 -0.0432914 16.5801 -141.71 187.325 0 0 0 0.5 
280 1 1 2.54076 0.86994 1.90019 -56 0 0 -384.608 10.4271 -14.1306 -256.039 -1030.82 2925.59 0 0 0 0.5 
716 2 2 2.18951 4.9791 0.736364 -43 0 0 -52.605 10.2769 10.4137 816.871 -927.038 489.972 0 0 0 0.5 
921 2 2 1.68794 3.50507 1.93719 -48 0 1 -163.36 1.79995 4.99533 477.931 59.6921 -452.964 0 0 0 0.5 
484 1 1 2.86115 4.62748 0.104751 26 0 1 -48.739 23.2617 17.2416 2329.35 -1440.93 2108.88 0 0 0 0.5 
266 1 1 4.12092 0.380064 0.104146 -83 0 0 -417.983 -17.0816 -1.86886 -309.692 -1444.71 885.827 0 0 0 0.5 
204 1 1 0.235165 1.70133 1.68831 -90 0 1 -275.386 -23.1529 8.44164 1519.76 227.343 -1726.48 0 0 0 0.5 
999 2 2 2.25841 3.52858 0.821242 -12 0 0 -164.404 -3.55341 16.415 -2868.42 -143.638 1381.46 0 0 0 0.5 
772 2 2 0.812706 3.16145 0.740847 -46 0 1 -180.764 5.28317 0.387007 984.84 -1378.99 -476.346 0 0 0 0.5 
142 1 1 0.192543 1.26997 0.886101 -63 0 0 -316.295 -32.9196 -1.30174 -1957.1 737.289 -2697.95 0 0 0 0.5 
909 2 2 0.706091 0.799886 1.51898 -17 0 1 -412.199 -1.72388 -7.42592 2202.6 -2328.33 2580.6 0 0 0 0.5 
342 1 1 1.75118 4.24605 1.36521 -19 0 1 -96.1843 17.0818 13.6839 522.702 -58.152 427.181 0 0 0 0.5 
680 2 2 1.64448 0.418046 1.30249 -67 0 0 -398.307 -15.3451 20.9291 -399.252 -45.257 368.964 0 0 0 0.5 
661 2 2 0.442616 2.39287 0.423407 -30 0 0 -282.614 17.0255 19.2538 791.791 2880.51 1280.69 0 0 0 0.5 
956 2 2 1.46439 1.22008 0.0249136 -51 0 1 -344.356 21.7499 -11.834 -491.113 1009.28 -1646.27 0 0 0 0.5 
282 1 1 2.1318 0.739023 0.194811 108 1 0 -411.977 10.664 -0.519566 2361.49 -743.248 1134.83 0 0 0 0.5 
228 1 1 0.737203 1.60764 0.264788 -70 0 1 -312.242 4.0668 14.7796 -1490.04 580.062 247.481 0 0 0 0.5 
15 1 1 0.571926 2.51884 1.89737 -55 0 1 -215.936 0.584726 -0.813318 -322.938 -309.878 266.419 0 0 0 0.5 
477 1 1 3.83268 0.0451153 1.57332 58 1 0 -469.374 0.578547 -1.44891 1176.16 -355.051 156.698 0 0 0 0.5 
246 1 1 0.463597 0.026924 0.459278 115 1 1 -479.104 2.59757 7.75072 -115.536 521.077 1296.72 0 0 0 0.5 
822 2 2 1.27701 0.923543 0.773788 -21 0 1 -384.82 11.0355 5.69934 -318.804 409.589 -391.619 0 0 0 0.5 
555 2 2 4.9046 2.91189 1.88675 -20 0 0 -208.837 27.0033 -10.1332 1672.9 -1687.87 1507.9 0 0 0 0.5 
609 2 2 2.43865 1.75449 1.49426 -18 0 0 -265.491 -7.12891 23.1051 -896.297 2216.36 -692.162 0 0 0 0.5 
548 2 2 4.49611 0.745027 0.964068 -62 0 1 -390.524 15.9713 -12.4184 162.049 1569.7 -1481.91 0 0 0 0.5 
842 2 2 2.19563 1.72019 0.552264 -58 0 1 -314.41 -7.15482 21.6907 -49.3854 -338.841 1177.94 0 0 0 0.5 
446 1 1 2.87162 3.82575 1.55331 -25 0 1 -141.534 12.1495 13.2665 -189.806 622.498 689.452 0 0 0 0.5 
551 2 2 1.02533 4.94647 1.43895 -3 0 1 -27.452 -6.16878 1.88986 1523.59 -2416.16 499.451 0 0 0 0.5 
461 1 1 3.59083 1.57045 1.35219 125 1 0 -308.364 -4.49317 -4.03244 -1589.98 684.231 999.018 0 0 0 0.5 
468 1 1 0.710267 4.94747 0.345315 11 0 1 -15.4566 25.4635 -33.8965 -315.484 482.646 -1565.71 0 0 0 0.5 
582 2 2 1.07878 4.34478 0.79574 11 0 0 -87.0788 -12.6136 -15.5596 93.0264 -1199.89 -65.3792 0 0 0 0.5 
857 2 2 2.07443 4.16994 0.151997 0 0 0 -69.0113 -5.82909 31.4908 -1985.1 3139.66 -2747.52 0 0 0 0.5 
584 2 2 3.99452 2.72837 1.2875 -40 0 1 -231.521 26.17 -5.65451 -219.625 1620.41 -601.543 0 0 0 0.5 
754 2 2 4.89423 1.26234 0.0942914 -53 0 1 -337.551 -22.4162 -8.2795 1134.52 -1620.75 -201.009 0 0 0 0.5 
497 1 1 4.83842 1.6536 0.748631 116 1 1 -316.258 10.4893 -11.6714 -953.848 -1150.09 -773.027 0 0 0 0.5 
312 1 1 4.29238 3.49246 1.84491 -9 0 1 -151.29 7.7517 -10.805 -3419.91 2089.29 -110.424 0 0 0 0.5 
27 1 1 2.94758 1.2935 0.726476 -53 0 1 -317.415 -15.7377 -0.41631 448.892 -712.838 1511.21 0 0 0 0.5 
376 1 1 4.60506 0.0506437 1.1068 -75 0 0 -460.245 -0.481119 18.6393 -1066.69 -2814.75 223.133 0 0 0 0.5 
335 1 1 3.53333 2.27561 0.563387 -50 0 1 -288.093 -1.27058 21.9261 989.282 -61.2319 1293.21 0 0 0 0.5 
929 2 2 3.42163 4.70489 0.830813 -16 0 1 -45.6279 7.49443 35.0353 170.51 -1071.65 692.336 0 0 0 0.5 
216 1 1 4.35807 0.966547 1.90295 -61 0 1 -379.176 3.97951 -2.77588 449.173 569.817 -1504.84 0 0 0 0.5 
526 2 2 3.26315 0.550565 1.44898 -60 0 1 -400.344 9.04806 -18.0179 -2220.56 2475.94 -1441.04 0 0 0 0.5 
598 2 2 3.06192 3.2016 0.862032 -25 0 1 -206.642 4.65887 13.5821 3251.95 -1318.96 -1321.25 0 0 0 0.5 
905 2 2 0.767592 3.42179 1.6074 -21 0 0 -157.109 6.21339 1.71715 586.098 -1089.93 -601.516 0 0 0 0.5 
138 1 1 4.46982 2.22772 0.182084 -29 0 1 -304.226 10.3193 -6.53007 1714.26 757.24 80.5195 0 0 0 0.5 
549 2 2 3.27589 2.6077 1.59882 -87 0 0 -214.187 -8.41323 -13.7563 -2037.09 -1023.64 270.732 0 0 0 0.5 
670 2 2 0.219387 3.54267 0.326331 -12 0 1 -184.712 3.11662 -6.31755 558.969 2314.96 -1902.32 0 0 0 0.5 
804 2 2 4.42243 1.50319 1.36506 -90 0 0 -323.992 13.3554 -9.98484 -1260.24 2037.89 -806.429 0 0 0 0.5 
858 2 2 4.37154 4.29944 1.58622 -9 0 0 -68.3512 14.6603 -15.2581 -130.11 773.056 331.506 0 0 0 0.5 
864 2 2 4.65042 4.07837 0.723917 -24 0 1 -82.7531 -9.77728 -15.0679 -884.769 27.3485 -167.266 0 0 0 0.5 
760 2 2 4.70163 2.36053 1.16203 -43 0 1 -261.398 8.85485 -6.81722 -42.0368 905.314 -392.119 0 0 0 0.5 
258 1 1 1.58424 0.0132424 3.81498 -48 0 1 -494.217 1.1572 17.8546 -201.786 132.037 213.703 0 0 0 0.5 
416 1 1 1.31977 0.222124 2.86764 -54 0 0 -416.342 -5.85048 11.3082 -220.474 445.704 -267.703 0 0 0 0.5 
507 2 2 0.787313 1.01157 3.31367 -56 0 0 -407.789 -3.42442 -3.87504 311.879 1137.73 -75.8904 0 0 0 0.5 
943 2 2 1.71579 1.79869 3.73621 -37 0 0 -329.619 3.46249 -19.3623 187.135 111.718 -326.577 0 0 0 0.5 
133 1 1 4.2085 0.43531 2.97372 76 1 1 -451.942 16.9005 -4.57822 4127.83 -1515.87 2231.09 0 0 0 0.5 
275 1 1 2.62191 0.148776 2.44927 -43 0 0 -443.141 -15.8342 2.37463 -1231.66 391.564 -265.343 0 0 0 0.5 
731 2 2 1.93716 2.71342 2.49708 182 1 0 -168.863 -19.8313 -15.2856 344.332 -768.745 -420.381 0 0 0 0.5 
784 2 2 2.7431 2.98371 3.05656 -60 0 1 -173.74 6.65363 -17.4003 -1742.92 854.216 184.684 0 0 0 0.5 
72 1 1 1.0166 1.94546 3.45762 92 1 0 -323.876 6.86719 -24.5717 -436.923 -1558.6 -477.971 0 0 0 0.5 
370 1 1 1.60974 3.4444 2.89681 -5 0 0 -138.954 -12.5556 1.04313 -280.601 1186.94 1382.01 0 0 0 0.5 
364 1 1 0.204135 2.31776 3.20985 -23 0 0 -289.043 13.6792 -10.9179 -1654.23 1141.75 -779.414 0 0 0 0.5 
597 2 2 0.285611 1.6386 2.51924 -44 0 1 -322.31 -1.29403 3.14687 -2430.09 2102.95 2390.49 0 0 0 0.5 
78 1 1 1.81816 4.07744 3.35373 14 0 1 -42.5688 -4.24497 31.2136 641.505 -1580.53 -136.015 0 0 0 0.5 
456 1 1 0.862492 2.88164 2.65486 -7 0 0 -154.623 -16.513 27.5279 -91.0996 -257.324 -2192.96 0 0 0 0.5 
647 2 2 0.931491 1.00706 2.39619 -46 0 0 -389.952 7.95193 -11.5781 3042.72 -2845.19 89.6452 0 0 0 0.5 
406 1 1 1.89951 1.70065 2.32191 -44 0 1 -299.241 7.3864 26.1736 518.945 51.8288 -796.648 0 0 0 0.5 
346 1 1 3.7228 1.02508 2.43496 104 1 0 -376.016 13.8712 9.80344 679.371 -662.841 -1867.67 0 0 0 0.5 
966 2 2 2.6935 0.790668 3.23434 -23 0 1 -392.161 -5.41059 4.56908 -445.904 -74.5915 -45.0722 0 0 0 0.5 
327 1 1 -0.00633992 0.707928 2.2952 -18 0 0 -392.375 7.38918 8.46048 1771.53 697.91 1676.91 0 0 0 0.5 
625 2 2 4.23165 3.5615 3.02952 -1 0 0 -126.786 -7.7574 -25.3652 -2344.86 1817.68 -629.735 0 0 0 0.5 
828 2 2 1.93843 4.42501 2.41352 -27 0 1 -35.854 -20.9312 11.6109 540.512 -680.771 47.0034 0 0 0 0.5 
298 1 1 0.631102 3.1749 3.53198 -61 0 0 -163.599 -18.4595 6.04219 1321.05 -1097.1 2796.79 0 0 0 0.5 
692 2 2 4.48082 1.71254 2.9768 87 1 0 -289.098 -3.7494 16.0612 -59.9326 200.49 -793.624 0 0 0 0.5 
743 2 2 4.20969 1.88957 2.04007 -33 0 0 -278.699 6.82399 3.95472 -551.931 -68.2078 -312.101 0 0 0 0.5 
730 2 2 3.33311 2.07349 3.19157 -78 0 0 -274.857 -25.3505 25.0604 -2357.52 522.114 1467.3 0 0 0 0.5 
937 2 2 0.223742 4.57314 2.4557 -14 0 0 -36.0696 -7.49963 26.8989 -836.679 2174.91 910.551 0 0 0 0.5 
359 1 1 4.42989 3.01698 3.67437 -22 0 0 -180.912 -8.69598 7.09911 -929.117 -64.8876 1645.04 0 0 0 0.5 
906 2 2 3.50438 0.125119 2.443 39 1 0 -442.805 5.28419 8.38954 -102.888 1243.66 -32.129 0 0 0 0.5 
429 1 1 1.36319 4.69234 3.22902 -20 0 0 -47.0338 7.54844 -0.266918 -837.048 491.596 149.373 0 0 0 0.5 
12 1 1 3.62657 0.946753 3.32865 -63 0 0 -395.974 15.8492 13.4721 -1937.71 1422.2 1312.74 0 0 0 0.5 
529 2 2 3.25692 4.10518 3.35816 -5 0 0 -44.3462 -11.5774 -14.7959 -3944.7 913.247 478.875 0 0 0 0.5 
839 2 2 3.47605 4.08939 2.42096 -31 0 1 -67.7429 -5.79447 5.29001 386.35 -27.8373 -1652.36 0 0 0 0.5 
667 2 2 0.711649 4.8678 3.98019 -51 0 0 -73.2354 27.9414 -7.58606 712.025 676.984 214.479 0 0 0 0.5 
795 2 2 0.115241 3.71362 3.13587 -50 0 0 -120.285 -5.3798 14.8719 -1929.97 547.892 -1551.56 0 0 0 0.5 
851 2 2 3.50623 0.107646 3.74929 -89 0 0 -489.001 -13.0874 -24.8124 -422.794 460.229 -663.73 0 0 0 0.5 
737 2 2 4.36698 1.65896 3.9751 -21 0 0 -296.553 -5.03826 29.3691 -90.6774 1319.55 -259.131 0 0 0 0.5 
725 2 2 3.14384 2.58483 2.38997 -24 0 0 -175.18 -16.3979 -1.14439 -2144.89 -1073.33 950.929 0 0 0 0.5 
773 2 2 2.4764 1.63819 3.94917 -33 0 0 -344.199 -3.53932 -28.0727 1823.82 -559.357 56.3379 0 0 0 0.5 
217 1 1 0.526102 3.66661 2.39513 -18 0 0 -132.109 18.0399 -3.32457 1216.22 -3063.99 729.925 0 0 0 0.5 
427 1 1 0.0363302 4.38726 3.66628 -2 0 0 -60.3031 12.3996 -7.60532 -313.477 1032.28 673.874 0 0 0 0.5 
762 2 2 4.06903 2.23772 3.78603 -68 0 0 -256.206 -1.21787 11.3323 5.68178 1393.2 -632.942 0 0 0 0.5 
789 2 2 2.90829 1.58125 2.4729 -64 0 0 -293.26 -1.34831 -2.73129 -3804.33 1535.98 -327.302 0 0 0 0.5 
600 2 2 3.46076 2.8476 3.61009 -20 0 1 -205.137 12.7079 6.63449 105.278 1009.47 251.812 0 0 0 0.5 
889 2 2 3.90849 3.90627 3.59435 3 0 0 -78.7821 5.71813 22.6734 598.839 243.603 375.196 0 0 0 0.5 
243 1 1 3.90416 2.03798 2.81306 -30 0 0 -276.368 2.30017 6.60934 -1214.51 1685 -890.554 0 0 0 0.5 
650 2 2 4.03552 2.71181 2.27177 -17 0 0 -210.755 15.6258 4.185 2056.99 2072.54 -905.119 0 0 0 0.5 
865 2 2 2.54347 2.6378 3.95163 -40 0 -1 -228.856 -0.128394 -28.8291 -1305.85 235.315 -1782.76 0 0 0 0.5 
919 2 2 4.35412 0.256703 3.83359 -34 0 0 -483.683 3.7172 -0.225212 -274.56 540.252 776.734 0 0 0 0.5 
469 1 1 4.55676 0.435867 2.16186 78 1 0 -448.183 -30.444 3.62926 -2104.5 430.416 996.387 0 0 0 0.5 
509 2 2 4.59869 1.07378 3.63231 -49 0 0 -372.19 -15.7487 -1.92144 1906.69 -2572.08 -507.991 0 0 0 0.5 
807 2 2 4.79481 2.78359 2.87453 -27 0 0 -211.378 -16.2424 1.2698 220.429 179.998 924.095 0 0 0 0.5 
764 2 2 4.7608 4.3494 2.47163 -45 0 1 -70.72 12.2052 -8.22578 -372.497 -360.591 -1074.51 0 0 0 0.5 
627 2 2 4.91009 3.61741 2.7131 -15 0 0 -100.406 2.92537 -17.4228 1597.89 -2413.36 173.705 0 0 0 0.5 
967 2 2 0.433558 1.19011 5.54976 85 1 -1 -382.116 -3.81923 6.86576 2308.32 -1484.23 472.812 0 0 0 0.5 
437 1 1 0.864284 2.9384 4.73755 -67 0 0 -214.255 12.5839 -38.9442 -1704.45 -724.429 -1007.63 0 0 0 0.5 
624 2 2 3.51484 4.76881 4.05681 24 0 -1 -30.4487 0.000433885 -26.3115 139.442 -517.489 1236.45 0 0 0 0.5 
396 1 1 4.3944 3.71097 4.1872 -24 0 0 -132.322 7.36659 34.5157 5.12832 -1347.33 3128.75 0 0 0 0.5 
585 2 2 0.620076 0.893632 4.27443 -55 0 1 -393.679 -0.467074 -5.79665 -397.122 -485.642 456.105 0 0 0 0.5 
284 1 1 1.25265 2.53277 5.40876 -79 0 0 -308.997 -18.6651 -6.71795 -1316.08 3561 1841.97 0 0 0 0.5 
19 1 1 1.04936 1.73911 4.41971 -45 0 0 -326.101 3.04526 -23.2346 -561.357 -1598.17 -272.585 0 0 0 0.5 
56 1 1 1.82197 3.81138 5.864 -24 0 0 -123.113 15.3485 -20.0464 -2085.54 774.277 -1362.71 0 0 0 0.5 
679 2 2 1.83412 2.9888 4.50352 -18 0 0 -217.32 4.52245 -20.8698 132.17 127.547 17.5009 0 0 0 0.5 
480 1 1 3.71362 0.951051 4.25095 -49 0 1 -392.825 -5.46621 8.56212 1312.27 -1039.47 629.57 0 0 0 0.5 
895 2 2 4.00793 3.48464 5.22679 -63 0 0 -202.514 21.5407 3.54929 -74.1883 -89.9604 75.2672 0 0 0 0.5 
665 2 2 1.92366 0.898469 5.28089 36 1 1 -388.539 0.925729 9.94451 448.17 -280.625 -697.922 0 0 0 0.5 
47 1 1 4.49714 1.64925 5.43025 -47 0 0 -404.558 26.6638 9.67669 -31.466 133.782 229.469 0 0 0 0.5 
434 1 1 2.04353 2.64294 5.53538 -50 0 0 -295.761 32.5587 -12.3385 388.748 -1304.78 1642.81 0 0 0 0.5 
635 2 2 1.44143 3.34056 5.34421 -134 -1 0 -217.36 24.1941 -31.3673 -683.935 1410.97 -78.3099 0 0 0 0.5 
942 2 2 3.20021 4.98879 4.92746 13 0 0 7.4648 -6.32956 -3.11241 1151.55 -1129.71 -214.768 0 0 0 0.5 
433 1 1 0.122225 0.0312994 4.19319 75 1 -1 -446.54 -8.70394 -1.1006 2514.17 1040.4 -1271.07 0 0 0 0.5 
913 2 2 3.74815 4.61486 5.46213 9 0 0 -8.35017 -34.8313 11.7128 -170.224 -942.916 1561.14 0 0 0 0.5 
98 1 1 0.548413 2.10372 4.82133 -6 0 0 -328.293 13.8014 23.9465 523.308 1881.74 448.993 0 0 0 0.5 
803 2 2 1.69604 1.84211 5.01874 89 1 0 -334.133 13.8339 9.53083 1741.08 -2446.04 -1251.7 0 0 0 0.5 
425 1 1 1.97222 0.0799289 5.7571 -72 0 0 -468.312 -27.1606 -5.89949 -1175.99 -209.867 355.719 0 0 0 0.5 
249 1 1 3.94014 2.73135 4.63908 -54 0 1 -246.456 8.07744 8.13457 946.877 374.759 333.682 0 0 0 0.5 
968 2 2 0.0670975 2.43746 5.74578 117 1 0 -294.66 15.0993 -4.10827 4837.39 -2639.13 -50.2464 0 0 0 0.5 
975 2 2 4.60952 1.17142 4.61066 96 1 1 -390.565 -0.519657 23.39 698.701 -2342.13 1055.94 0 0 0 0.5 
259 1 1 3.30812 1.0394 5.07752 -68 0 -1 -421.276 8.10915 7.82547 -927.771 1016.17 -1442.52 0 0 0 0.5 
326 1 1 2.91383 2.86865 5.87965 -10 0 0 -318.926 22.2792 19.972 3188.19 -2906.52 -1087.99 0 0 0 0.5 
371 1 1 0.581423 4.16819 5.1039 -34 0 0 -116.052 7.82847 0.576338 619.635 -2261.58 921.53 0 0 0 0.5 
611 2 2 0.454967 3.2681 5.45763 -16 0 0 -182.887 5.84818 8.69769 -1530.37 -809.189 -1775.49 0 0 0 0.5 
583 2 2 3.81538 0.601587 5.34379 -46 0 1 -483.159 -3.36949 21.2259 503.755 -1705.79 2312.03 0 0 0 0.5 
568 2 2 1.34673 4.81107 4.62328 -35 0 0 -66.2106 15.6333 1.64718 99.4557 -2757.7 769.832 0 0 0 0.5 
659 2 2 2.03626 0.00961866 4.7393 -34 0 0 -475.924 3.2575 8.89366 -507.657 -83.4663 -140.106 0 0 0 0.5 
340 1 1 0.608601 3.8866 4.15582 -11 0 0 -124.553 2.58489 6.68912 2869.71 -2022.33 101.056 0 0 0 0.5 
240 1 1 4.58493 0.670282 5.81683 -77 0 0 -471.708 19.6124 -8.42901 509.08 641.318 -389.885 0 0 0 0.5 
147 1 1 3.13538 1.68951 4.52831 -72 0 0 -351.926 3.07855 -13.1661 -227.245 229.447 256.115 0 0 0 0.5 
193 1 1 2.75036 0.204742 5.36381 92 1 0 -477.142 22.9338 -1.68772 -272.776 2756.45 -434.972 0 0 0 0.5 
771 2 2 2.6878 0.792116 4.38 -63 0 0 -410.603 -0.969356 19.2688 -724.617 -961.072 -1057.16 0 0 0 0.5 
493 1 1 3.42096 2.43161 5.75592 115 1 0 -331.323 15.6459 -25.2902 1719.53 -800.058 -1682.09 0 0 0 0.5 
896 2 2 2.99198 3.90534 5.43517 -4 0 -1 -161.048 17.6284 11.2539 1379.18 -1144.64 -2017.34 0 0 0 0.5 
299 1 1 3.36076 3.6402 4.32987 -15 0 0 -118.667 1.30548 17.0601 336.723 163.567 -452.164 0 0 0 0.5 
231 1 1 4.29679 4.62397 4.27592 -33 0 1 -14.383 14.2841 -1.47955 -1308.73 2375.81 -1613.04 0 0 0 0.5 
958 2 2 2.77034 1.38032 5.72604 97 1 1 -399.739 0.377386 -4.04829 610.28 -488.838 -373.524 0 0 0 0.5 
361 1 1 2.87317 3.11152 5.04078 -19 0 0 -214.975 10.8741 9.35401 -310.574 721.774 -558.965 0 0 0 0.5 
187 1 1 2.66121 2.09168 5.21877 -55 0 0 -349.542 17.4727 -4.36806 2466.65 -304.865 -2669.06 0 0 0 0.5 
724 2 2 4.3399 0.232361 4.9039 -115 0 0 -497.053 11.3181 0.0464413 169.604 1445.74 -1137.25 0 0 0 0.5 
806 2 2 3.06449 2.50669 4.43827 -62 0 0 -238.898 7.75612 -2.3255 57.6981 -1.15737 1729.26 0 0 0 0.5 
660 2 2 4.85208 4.25201 4.8505 30 0 0 -99.4935 8.94651 26.0499 633.971 531.633 1872.28 0 0 0 0.5 
421 1 1 4.98147 0.198342 4.33209 85 1 0 -460.906 21.2446 14.059 -540.998 -3456.68 -1642.21 0 0 0 0.5 
944 2 2 2.24647 1.8637 6.04204 -60 0 0 -359.253 0.92788 2.20256 -550.963 -60.4046 -1737.53 0 0 0 0.5 
719 2 2 1.88552 0.0239972 7.89495 93 1 0 -490.238 -9.3322 18.6916 754.759 49.1203 647.014 0 0 0 0.5 
345 1 1 0.496784 0.622957 7.50419 80 1 0 -445.154 32.9782 -7.57743 2837.46 -1272.54 -1631.23 0 0 0 0.5 
134 1 1 1.45205 1.08801 6.08936 -40 0 0 -434.16 21.5687 -31.3504 -898.846 618.86 307.671 0 0 0 0.5 
418 1 1 1.97112 1.1316 7.87332 -58 0 0 -390.06 -4.65121 -4.01008 -1444.91 -1219.08 -1316.85 0 0 0 0.5 
412 1 1 4.25046 0.791953 7.01837 -122 0 0 -431.665 -11.0944 4.43327 340.312 1078.17 765.04 0 0 0 0.5 
454 1 1 1.29166 1.57811 6.97915 99 1 0 -343.618 -5.2795 -5.37155 1088.86 -55.5146 -1038.93 0 0 0 0.5 
881 2 2 4.31269 4.21895 7.94379 -7 0 -1 -49.5748 10.4232 -14.2017 663.365 -240.915 672.025 0 0 0 0.5 
918 2 2 0.317845 0.00133532 6.62627 -48 0 0 -466.181 -0.562042 -8.19177 -2080.82 935.676 -1040.81 0 0 0 0.5 
485 1 1 3.64069 1.94542 6.23879 -62 0 1 -378.633 -1.73415 10.5221 48.8836 1854.3 138.835 0 0 0 0.5 
395 1 1 3.1069 0.217028 7.49781 38 1 0 -487.48 -21.247 -23.5908 -657.745 -1778.87 -2464.16 0 0 0 0.5 
66 1 1 1.25949 3.47886 7.78864 -13 0 0 -144.217 11.7698 -13.9886 -578.116 364.768 -918.165 0 0 0 0.5 
236 1 1 2.14267 2.06971 7.02877 -65 0 0 -346.724 13.8718 20.6831 -175.205 -3103.67 1465.34 0 0 0 0.5 
225 1 1 1.55885 1.81376 7.93516 -34 0 0 -336.928 16.6052 11.1903 2987.23 -870.088 -391.108 0 0 0 0.5 
350 1 1 4.44209 1.88661 6.49421 51 1 0 -369.652 18.5327 4.81611 1228.46 -90.1464 391.523 0 0 0 0.5 
783 2 2 2.2536 3.34443 7.73892 -22 0 0 -143.453 -2.02236 5.74094 510.197 -1865.39 -362.529 0 0 0 0.5 
251 1 1 0.780627 2.7823 6.85373 -20 0 0 -173.224 -18.6331 4.01084 1043.03 -976.379 487.906 0 0 0 0.5 
935 2 2 4.6248 2.8026 7.01117 -25 0 0 -241.418 0.305541 25.9349 1073.03 -2996.05 -1862.3 0 0 0 0.5 
543 2 2 3.00966 0.719046 6.15499 -70 0 0 -447.024 -4.34062 11.4674 -736.727 -590.371 1082 0 0 0 0.5 
339 1 1 0.7638 1.70081 7.63707 -32 0 0 -315.238 -16.8301 22.4599 -1292.46 -1287.37 -1228.97 0 0 0 0.5 
239 1 1 2.39231 4.51868 6.99351 -130 -1 0 -21.1273 -2.59502 -6.73309 -582.697 -423.421 777.316 0 0 0 0.5 
878 2 2 2.06966 0.00383516 6.99615 82 1 0 -477.074 -28.4496 22.7113 -1135.42 -1282.61 -697.201 0 0 0 0.5 
652 2 2 1.5239 3.18458 6.43817 9 0 0 -183.708 6.90743 -11.8986 -841.511 2029.47 -1351.21 0 0 0 0.5 
141 1 1 0.475775 2.60929 7.76705 -7 0 0 -221.642 -8.67821 -12.8478 -2269.7 -317.111 -1063.84 0 0 0 0.5 
207 1 1 0.477733 0.999323 6.5719 93 1 1 -390.753 0.649181 12.2048 1549.85 -2683.88 420.739 0 0 0 0.5 
23 1 1 1.92819 0.628119 6.55859 -62 0 0 -432.053 -1.9468 -19.7611 312.776 -224.911 319.843 0 0 0 0.5 
781 2 2 0.8881 2.05784 6.17503 75 1 0 -312.741 -25.1304 -16.5627 -237.098 -103.686 463.374 0 0 0 0.5 
829 2 2 1.87831 2.76613 7.11316 -11 0 0 -220.178 12.9434 28.8858 -1880.86 3296.42 -631.596 0 0 0 0.5 
375 1 1 3.89145 1.06465 6.15812 66 1 -1 -453.209 18.1112 16.0853 -113.261 -1836.75 529.553 0 0 0 0.5 
640 2 2 0.10116 1.98997 7.18133 -79 0 0 -295.86 3.22682 -11.5855 -727.457 656.184 585.309 0 0 0 0.5 
996 2 2 2.89432 2.81335 7.14564 -3 0 -1 -198.551 0.249629 -3.68669 -0.652996 0.311636 -0.335869 0 0 0 0.5 
722 2 2 1.73863 2.3647 6.34838 -74 0 0 -308.786 2.92533 -11.4395 -2401.29 1065.4 1767.41 0 0 0 0.5 
608 2 2 2.44483 3.36668 6.20346 -22 0 0 -186.56 12.2124 15.2168 -1329.78 3157.53 4235.51 0 0 0 0.5 
689 2 2 2.23891 1.22988 7.10956 -42 0 0 -380.421 5.50479 -25.4122 691.071 -1116.23 -271.955 0 0 0 0.5 
192 1 1 3.63051 4.15441 7.22545 23 0 0 -49.2481 9.46232 -17.072 898.34 3153.23 1303.15 0 0 0 0.5 
154 1 1 1.62803 4.52727 6.2468 3 0 0 -88.395 24.6222 15.3209 -839.467 799.509 458.701 0 0 0 0.5 
547 2 2 2.55424 4.37102 6.14064 67 0 0 -95.5098 9.80905 -5.07197 -965.8 508.212 -200.916 0 0 0 0.5 
869 2 2 0.129093 4.13444 6.05076 -28 0 0 -115.337 16.7092 22.5008 11.3009 65.5974 -1.27168 0 0 0 0.5 
972 2 2 2.10547 4.18816 7.98459 27 0 -1 -56.3958 -5.09517 -7.94326 -1341.08 359.884 -1002.2 0 0 0 0.5 
761 2 2 3.25391 1.12294 7.00981 -78 0 0 -395.685 0.0882969 8.64586 320.106 -460.304 -506.548 0 0 0 0.5 
424 1 1 2.77941 4.07943 7.3045 7 0 0 -42.6855 -31.2136 3.68646 256.379 -1993.06 1349.09 0 0 0 0.5 
687 2 2 2.83861 1.88762 6.67834 70 1 0 -363.165 20.6554 3.99262 1111.27 -438.903 737.154 0 0 0 0.5 
156 1 1 0.288012 4.24749 7.68466 26 0 0 -42.0112 24.9736 16.3128 713.162 421.653 -2422.22 0 0 0 0.5 
478 1 1 0.262779 3.24244 6.38114 10 0 0 -147.675 -9.04829 -15.9076 -1400.33 788.853 1330.53 0 0 0 0.5 
805 2 2 4.11315 2.89675 6.64953 -66 0 -1 -235.678 -10.5169 -16.3782 -2167.04 839.668 -1057.63 0 0 0 0.5 
35 1 1 2.74304 0.888385 7.77439 -83 0 1 -395.063 -0.695291 11.5854 579.796 1698.49 229.238 0 0 0 0.5 
97 1 1 1.85705 4.95067 7.99667 4 0 0 33.1036 11.4342 -0.0632323 899.985 2059.32 -920.969 0 0 0 0.5 
613 2 2 0.234799 3.28905 7.86625 -24 0 0 -164.786 21.3433 17.1463 -244.3 2784.7 -569.264 0 0 0 0.5 
739 2 2 4.16692 4.88666 6.85688 4 0 0 50.8472 -12.816 -3.51065 522.286 -2109.03 -507.088 0 0 0 0.5 
348 1 1 1.23613 3.89679 6.91981 -7 0 0 -90.1217 25.5442 -14.3585 1255.4 1692.67 313.089 0 0 0 0.5 
89 1 1 4.48998 1.53044 7.55759 -42 0 0 -321.93 0.610254 3.48892 -309.791 -1219.32 -594.337 0 0 0 0.5 
746 2 2 4.17331 3.46569 7.31567 -2 0 0 -122.126 1.38509 10.9685 -780.865 995.853 1551.04 0 0 0 0.5 
439 1 1 0.499558 3.7973 7.14386 -17 0 0 -94.3526 -11.1694 -22.7166 -1907.75 -1305.71 715.031 0 0 0 0.5 
673 2 2 3.59682 0.0406373 6.34311 71 1 -1 -467.821 -5.65192 14.4572 1194.1 -1250.49 157.396 0 0 0 0.5 
198 1 1 3.42584 4.38678 6.3481 -21 0 0 -84.1401 25.4266 25.0721 -609.508 2094.05 -2357.01 0 0 0 0.5 
861 2 2 3.71162 2.4233 7.56602 -7 0 0 -194.451 -4.61859 -15.8446 -290.264 1027.63 -2190.36 0 0 0 0.5 
646 2 2 3.66534 3.64104 6.13375 -35 0 0 -167.251 -6.2722 29.0266 567.735 -1599.09 -619.367 0 0 0 0.5 
843 2 2 4.92196 2.63641 7.84955 5 0 0 -248.35 23.6324 11.4302 2192.99 -1251.5 -1580.62 0 0 0 0.5 
365 1 1 2.76503 0.389524 9.77775 -92 0 -1 -419.61 6.73645 -8.97714 514.034 -741.647 327.963 0 0 0 0.5 
270 1 1 3.62344 3.24472 8.15531 -53 0 0 -178.584 2.04624 -6.46758 472.465 -572.118 661.216 0 0 0 0.5 
984 2 2 1.15803 0.766113 9.02883 79 1 0 -392.935 -0.758518 -7.56083 -360.301 632.988 -719.198 0 0 0 0.5 
372 1 1 1.26789 0.738441 8.24663 -61 0 0 -435.32 9.77105 -30.7127 -8.33177 -624.689 -917.493 0 0 0 0.5 
690 2 2 1.15521 0.301675 9.72322 42 1 -1 -413.858 -13.3999 24.0426 1360.04 -1770.87 235.711 0 0 0 0.5 
49 1 1 1.00096 2.30883 9.18358 1 0 0 -232.477 2.81407 28.8794 1352.03 713.134 -362.042 0 0 0 0.5 
916 2 2 0.288017 2.30024 8.64928 -41 0 -1 -220.197 -6.37425 1.13694 244.243 18.2457 -132.929 0 0 0 0.5 
158 1 1 2.64444 3.95389 8.51741 6 0 0 -75.362 -14.0787 -4.15322 482.702 -716.599 380.782 0 0 0 0.5 
721 2 2 2.17901 1.06054 8.6595 97 1 0 -414.438 22.538 3.22279 285.681 -277.936 1915.14 0 0 0 0.5 
126 1 1 1.9796 0.362858 9.24469 88 1 -1 -425.728 -12.719 -15.9732 1684.32 -684.717 351.1 0 0 0 0.5 
226 1 1 0.113913 1.38997 9.37998 -55 0 0 -351.77 -5.859 -1.84015 -2324.58 1392.62 -1314.28 0 0 0 0.5 
947 2 2 4.5821 3.94231 8.86551 22 0 0 -93.737 2.35949 14.4992 -95.5289 787.192 -877.732 0 0 0 0.5 
157 1 1 1.78015 2.44016 8.69839 -27 0 0 -240.234 9.67538 -4.3298 -1379.49 -2703.49 189.815 0 0 0 0.5 
227 1 1 0.139854 0.408839 8.43953 -57 0 0 -432.972 -4.15016 8.67486 1336.33 235.942 1462.96 0 0 0 0.5 
65 1 1 0.169843 2.27663 9.57884 -10 0 0 -219.16 -3.96506 21.092 -127.077 -214.347 -1397.48 0 0 0 0.5 
242 1 1 2.67377 4.95733 8.61579 -135 -1 0 -0.876181 11.138 -2.25263 -847.247 341.53 -703.542 0 0 0 0.5 
800 2 2 0.886739 3.1646 8.87659 133 1 -1 -184.895 2.50425 -21.3536 464.341 -627.428 -695.674 0 0 0 0.5 
283 1 1 0.726586 1.01135 9.59457 -84 0 0 -368.101 -6.59635 7.35523 -581.254 1121.41 2174.9 0 0 0 0.5 
572 2 2 1.19628 2.54662 8.0548 -41 0 0 -238.024 21.4964 2.07185 -61.0859 3185.43 580.323 0 0 0 0.5 
898 2 2 0.739451 3.04908 9.76432 -34 0 -1 -173.897 -7.6259 -5.70657 -1612.23 550.374 2392.3 0 0 0 0.5 
61 1 1 0.445273 1.31189 8.49213 -85 0 0 -349.59 5.91077 -21.0838 -120.777 -1622.96 3121.6 0 0 0 0.5 
43 1 1 1.31369 1.62522 8.8824 -56 0 0 -331.623 6.84248 -7.31065 2096.24 -1135.41 -798.033 0 0 0 0.5 
674 2 2 1.92533 2.90175 9.49763 -14 0 -1 -202.565 -8.43169 0.684708 -1712.99 3500.1 1118.95 0 0 0 0.5 
139 1 1 2.00601 3.74071 9.27165 -26 0 0 -124.576 18.6933 -10.2902 302.277 392.522 2133.9 0 0 0 0.5 
233 1 1 3.00759 2.59342 9.94798 -42 0 0 -262.936 5.95808 -2.14521 -657.754 -521.199 754.359 0 0 0 0.5 
616 2 2 1.71499 3.32445 8.51145 -17 0 0 -165.087 17.4902 4.7925 521.636 387.191 -45.8125 0 0 0 0.5 
314 1 1 2.53199 2.23416 9.17455 -46 0 0 -263.386 6.15699 -1.50593 1334.89 -193.052 69.1896 0 0 0 0.5 
559 2 2 2.56521 1.51888 9.74469 -81 0 0 -330.935 -18.7556 -18.3419 -558.271 -2312.76 81.4855 0 0 0 0.5 
265 1 1 1.9215 2.06191 9.87262 -39 0 0 -271.169 -11.7831 2.7979 -3213.34 2641.46 -940.623 0 0 0 0.5 
40 1 1 3.49441 4.24884 8.19654 -10 0 0 -68.5121 -14.7724 -9.74014 -271.278 561.935 -102.063 0 0 0 0.5 
180 1 1 4.04039 4.93314 9.08099 23 0 0 -14.4099 -9.12739 4.6236 -44.1113 2554.79 712.121 0 0 0 0.5 
264 1 1 0.565839 4.18912 8.43498 -10 0 -1 -91.2206 13.5556 -6.39008 1510.15 123.312 3670.13 0 0 0 0.5 
886 2 2 2.76173 3.72711 9.95822 142 1 -1 -111.607 -18.7254 4.84004 1585.11 2047.58 1690.37 0 0 0 0.5 
702 2 2 3.0376 0.833868 9.07686 93 1 0 -417.759 -5.5966 -5.93227 -1524.6 2040.53 -583.813 0 0 0 0.5 
830 2 2 3.18153 3.94045 9.1158 101 1 -1 -87.9338 11.034 13.2317 1215.27 -676.254 1105.91 0 0 0 0.5 
960 2 2 2.82956 1.79376 8.07862 96 1 0 -326.511 12.0606 -25.6588 -1253.12 1399.93 -300.996 0 0 0 0.5 
18 1 1 4.49127 3.07921 8.49553 -18 0 0 -161.368 -9.53602 10.6613 -2117 2757.55 3057.55 0 0 0 0.5 
403 1 1 3.18335 4.74222 9.22565 -1 0 -1 -12.5707 17.3903 18.7803 -428.885 859.715 1456.86 0 0 0 0.5 
241 1 1 4.04269 3.39326 9.5911 150 1 0 -173.209 16.5622 13.8066 153.596 431.963 29.5126 0 0 0 0.5 
492 1 1 3.27921 1.29474 9.84413 -96 0 0 -339.848 -4.91326 9.60692 544.904 -822.827 -2710.06 0 0 0 0.5 
343 1 1 3.07926 3.15109 9.21885 -14 0 0 -186.192 5.09166 25.4074 195.137 212.579 -1951.25 0 0 0 0.5 
237 1 1 4.04474 1.21797 9.87866 -39 0 0 -339.073 1.60399 -4.35551 896.787 -283.161 266.97 0 0 0 0.5 
399 1 1 3.8124 2.06721 8.32491 -71 0 -1 -284.193 -6.50353 -23.0204 788.662 -3232.79 903.49 0 0 0 0.5 
677 2 2 0.562001 4.27988 9.92867 -15 0 0 -73.6789 3.23829 -33.3597 -503.256 -1048.02 1740.96 0 0 0 0.5 
127 1 1 4.18517 1.88473 9.20577 -52 0 0 -330.866 -16.194 -6.70441 -744.036 -1234.95 -1235.88 0 0 0 0.5 
26 1 1 3.7648 0.0979573 8.08216 87 1 -1 -535.52 13.1686 0.153551 1950.98 341.252 971.112 0 0 0 0.5 
581 2 2 0.384763 3.75881 9.25793 -4 0 0 -166.822 16.1955 -14.9129 -892.912 -490.209 -155.398 0 0 0 0.5 
384 1 1 2.19189 4.77034 9.42682 -33 0 0 25.5655 -13.9138 11.3998 329.452 -3434.84 -2452.99 0 0 0 0.5 
21 1 1 3.32078 2.56838 8.76156 -79 0 0 -251.179 7.35803 -5.07753 -308.816 -469.59 -743.987 0 0 0 0.5 
586 2 2 3.95629 2.51447 9.53557 108 1 0 -264.821 12.6601 1.36195 -2320.12 2286.61 -1117.02 0 0 0 0.5 
675 2 2 3.09195 1.68556 8.96824 -19 0 0 -300.655 0.484977 -18.0704 522.368 406.144 2708.41 0 0 0 0.5 
573 2 2 2.66696 0.200529 8.43223 -57 0 0 -484.015 5.90396 3.86518 388.146 -155.56 869.59 0 0 0 0.5 
523 2 2 3.44187 1.15852 8.29791 -55 0 1 -378.132 1.56733 8.99869 3359.11 -1987.74 -2086.29 0 0 0 0.5 
486 1 1 3.80472 0.265027 9.15772 81 1 0 -463.147 6.3302 -12.6047 1922.2 -2251.97 -75.6612 0 0 0 0.5 
222 1 1 4.64133 0.946224 8.30837 129 1 0 -390.03 -9.91179 23.7492 -1901.19 918.144 -885.029 0 0 0 0.5 
67 1 1 4.81346 2.06783 8.58272 123 1 0 -327.064 19.0264 -1.45092 1004.37 -427.134 -648.709 0 0 0 0.5 
14 1 1 4.76916 4.89935 8.97557 11 0 0 -3.37851 11.1958 -19.1267 1110.42 572.514 -1199.77 0 0 0 0.5 
453 1 1 1.67994 7.07477 0.64478 34 0 0 236.756 4.82911 21.7389 1373.24 777.167 -1255.85 0 0 0 0.5 
307 1 1 1.53462 9.37245 0.730093 109 0 0 462.686 2.25851 -2.24129 -964.504 282.386 440.137 0 0 0 0.5 
262 1 1 -0.0653661 9.21065 1.2085 -86 -1 0 458.712 -13.1615 27.0932 59.8309 -13.0702 -45.2245 0 0 0 0.5 
103 1 1 3.30901 5.4639 0.351496 7 0 0 41.1352 11.4494 32.682 1217.46 -929.155 676.229 0 0 0 0.5 
645 2 2 2.86588 7.11385 0.992157 44 0 0 182.645 -6.31824 -3.02716 223.208 -64.155 385.878 0 0 0 0.5 
409 1 1 2.36315 5.10815 1.79912 170 1 1 -39.9193 -6.37153 9.62141 2111.88 -4437.35 935.366 0 0 0 0.5 
176 1 1 4.13486 7.81351 0.354369 30 0 1 289.084 -12.3294 20.0646 407.897 -757.341 384.321 0 0 0 0.5 
612 2 2 1.58223 5.56432 0.634001 4 0 1 -34.4132 27.4805 11.1821 39.6792 2855.83 -2388.94 0 0 0 0.5 
419 1 1 4.08035 9.44727 1.77921 45 0 0 479.077 -26.9453 -13.4265 383.854 -2153.18 -1452.85 0 0 0 0.5 
525 2 2 1.2687 8.32561 0.504588 -103 -1 0 282.654 22.5357 -7.96671 3579.35 -5618.84 -767.015 0 0 0 0.5 
212 1 1 4.51602 9.41492 0.67395 114 0 0 493.946 -8.62096 -15.0893 1577.21 -273.576 -383.412 0 0 0 0.5 
711 2 2 3.86169 7.76544 1.69182 42 0 0 233.28 19.4273 -14.0077 1654.55 -1207.46 -392.549 0 0 0 0.5 
297 1 1 1.21072 9.14521 1.76988 87 0 0 469.919 -13.1239 9.89631 -5211.7 5537.23 -1937.88 0 0 0 0.5 
463 1 1 3.3606 8.86611 0.243238 94 0 1 440.921 -11.3169 -9.57159 -1957.83 2768.87 2536.71 0 0 0 0.5 
368 1 1 0.904599 6.18288 1.21392 -18 0 0 110.885 -12.5266 -3.10358 152.693 -1342.21 -242.103 0 0 0 0.5 
979 2 2 0.319967 7.50417 0.191683 56 0 1 264.952 -2.21812 -25.2767 -995.523 433.67 -1255.36 0 0 0 0.5 
32 1 1 0.682507 9.04728 0.643203 124 0 0 450.595 -16.5224 0.236187 -4799.54 5784.07 1424.05 0 0 0 0.5 
981 2 2 2.43607 7.93733 0.732302 38 0 0 244.027 23.4543 -6.91132 3261.72 -650.754 1686.32 0 0 0 0.5 
668 2 2 1.95372 6.37598 0.347391 -13 0 1 179.676 -13.9006 -22.811 -149.308 -3165.45 1633.95 0 0 0 0.5 
599 2 2 3.70216 9.69919 0.716372 26 0 0 495.532 -14.8416 -1.72857 806.153 1978.98 -62.2129 0 0 0 0.5 
398 1 1 0.527759 8.30915 1.96612 37 0 0 334.326 9.55142 4.88347 984.246 517.363 597.334 0 0 0 0.5 
589 2 2 4.43344 7.13883 1.68068 28 0 1 213.74 -18.5138 -9.95181 495.527 -543.077 -9.65557 0 0 0 0.5 
811 2 2 0.478378 6.20369 0.0665285 7 0 1 163.248 -25.0869 15.4273 -366.25 -7.36222 167.302 0 0 0 0.5 
328 1 1 2.28645 9.11011 0.352051 18 0 0 467.986 -9.96261 9.99334 837.203 -561.001 -532.678 0 0 0 0.5 
252 1 1 0.819354 7.28662 0.821414 89 0 1 244.443 -5.05226 -9.26105 -1269.39 -1112.08 2417.03 0 0 0 0.5 
946 2 2 1.65027 7.94257 0.92446 28 0 0 256.811 3.31663 -13.0492 928.389 -927.072 1018.34 0 0 0 0.5 
563 2 2 0.484403 6.69351 1.33865 5 0 1 120.39 11.8452 19.6586 -948.769 2815.36 -412.83 0 0 0 0.5 