ITEM: TIMESTEP
42500
ITEM: NUMBER OF ATOMS
1000
ITEM: BOX BOUNDS xy xz yz pp pp pp
0 10 0
0 10 0
-0 10 0
ITEM: ATOMS id type type x y z ix iy iz vx vy vz fx fy fz omegax omegay omegaz radius 
690 2 2 1.38769 0.0470466 0.655046 148 1 0 -468.257 -0.219073 19.4967 -640.083 1409.09 1577.44 0 0 0 0.5 
593 2 2 4.68588 1.77405 0.73949 10 0 1 -327.266 -9.58556 -0.447541 -1540.88 1334.48 -678.365 0 0 0 0.5 
952 2 2 2.11764 0.89052 0.909767 -8 0 0 -375.074 -9.68281 -3.05542 -759.516 364.31 -127.367 0 0 0 0.5 
181 1 1 0.541537 0.0889085 0.676834 142 1 0 -467.096 2.71821 8.7227 -224.004 1359.71 -698.428 0 0 0 0.5 
186 1 1 4.78445 3.76902 0.282261 199 1 0 -134.844 -3.11453 -14.8088 1094.47 -660.547 -257.082 0 0 0 0.5 
25 1 1 3.54834 0.518018 1.2078 -141 0 0 -442.61 12.9931 -17.7686 1503.2 -1328.75 1156.74 0 0 0 0.5 
700 2 2 4.53858 2.66645 0.791524 135 1 1 -265.602 17.7389 9.3001 445.559 -1105.33 -1019.34 0 0 0 0.5 
339 1 1 1.53343 3.14202 1.74972 -75 0 1 -201.21 5.46945 -24.9203 -1368.67 2885.33 928.678 0 0 0 0.5 
877 2 2 1.35139 0.40989 1.63951 226 1 1 -443.626 -3.81345 -3.54418 -241.672 456.578 -890.742 0 0 0 0.5 
842 2 2 1.58461 1.24382 1.25013 -137 0 1 -373.957 -4.90114 -10.5629 -810.057 -61.4861 1743.58 0 0 0 0.5 
527 2 2 2.03383 4.41178 1.83793 1 0 0 -38.5588 -24.2847 -7.63169 2047.05 -1305.57 730.308 0 0 0 0.5 
809 2 2 2.08389 0.0840992 1.35431 204 1 0 -426.107 -18.4228 6.97973 -1849.08 360.196 -1215.19 0 0 0 0.5 
654 2 2 2.07566 3.66685 1.15995 -83 0 1 -179.137 31.4468 -1.36991 -383.111 -293.73 -50.3602 0 0 0 0.5 
207 1 1 0.749813 1.00718 0.803078 205 1 1 -361.582 -11.6633 14.3007 -709.211 -1094.05 98.9789 0 0 0 0.5 
321 1 1 1.87305 2.98542 0.0413615 -16 0 0 -241.706 21.5167 -7.07512 -70.5905 17.8557 -614.662 0 0 0 0.5 
606 2 2 2.41627 2.14083 1.22778 -143 0 -1 -260.846 -18.9029 -9.66165 418.612 -889.179 -979.227 0 0 0 0.5 
717 2 2 2.45617 0.993732 0.103677 -104 0 1 -380.046 1.60982 -12.7559 771.664 -60.285 -324.995 0 0 0 0.5 
311 1 1 0.264439 2.68246 0.0841485 -27 0 1 -277.509 19.3975 9.86738 3305.37 -4142.15 -2290.68 0 0 0 0.5 
905 2 2 2.02617 2.79569 0.97331 -73 0 0 -248.987 11.1735 -9.07743 704.037 193.113 -1604.76 0 0 0 0.5 
568 2 2 1.51279 1.5757 1.93537 -77 0 0 -328.569 -6.09702 23.0298 -1175.4 -154.463 -1769.31 0 0 0 0.5 
148 1 1 0.950663 3.04981 0.989893 -35 0 1 -183.87 -12.2102 -30.3231 -614.365 285.144 -755.185 0 0 0 0.5 
860 2 2 4.08955 4.8656 1.63404 -31 0 1 -52.1718 -14.0077 12.5918 -2152.82 -425.193 -392.605 0 0 0 0.5 
738 2 2 4.3317 0.139277 0.905313 229 1 1 -460.068 -3.43359 -15.7817 -2710.12 390.326 -748.46 0 0 0 0.5 
46 1 1 4.04652 4.51242 0.218525 94 0 1 -25.7785 -0.607493 -20.1121 1671.67 -198.566 -121.38 0 0 0 0.5 
993 2 2 4.48136 4.41767 0.875197 37 0 1 -52.2968 2.02102 12.8563 -341.46 -1557.65 1426.18 0 0 0 0.5 
984 2 2 0.465158 1.7797 0.530415 211 1 1 -299.595 10.7832 -7.48377 -155.996 836.244 -320.462 0 0 0 0.5 
533 2 2 1.33002 3.72321 0.443507 304 1 0 -145.461 2.09832 9.12235 880.458 -944.186 -337.593 0 0 0 0.5 
930 2 2 1.96513 1.62956 0.314204 -55 0 0 -335.454 7.66057 4.26328 1625.15 184.126 -496.814 0 0 0 0.5 
794 2 2 1.11816 2.25403 1.52815 -7 0 0 -269.87 9.41514 8.11612 -888.563 910.943 574.077 0 0 0 0.5 
354 1 1 1.36084 1.94752 0.77123 -65 0 1 -303.098 17.5085 -13.9027 -1726.63 1943.5 485.153 0 0 0 0.5 
579 2 2 4.77986 2.50438 1.74226 -55 0 0 -287.186 -0.700366 -10.8766 -172.345 -105.662 2877.71 0 0 0 0.5 
894 2 2 2.44481 4.89092 0.365376 15 0 0 -5.53985 -6.92661 1.71536 -1280.37 363.602 -111.135 0 0 0 0.5 
226 1 1 0.84399 4.47313 0.639429 -183 -1 1 -100.996 19.1132 -0.273375 6102.97 -2752.96 828.784 0 0 0 0.5 
247 1 1 3.33604 2.28457 1.9618 -176 0 0 -299.23 6.30258 -14.127 -886.746 1948.67 -2179.88 0 0 0 0.5 
173 1 1 3.34561 1.29859 0.507005 195 1 1 -385.289 13.4639 27.4474 697.192 1598.02 -2769.7 0 0 0 0.5 
744 2 2 3.34453 2.97817 1.92802 188 1 0 -191.637 14.0443 22.7002 1751.76 931.351 1079.95 0 0 0 0.5 
831 2 2 4.87957 4.77418 1.61573 72 0 0 -44.7041 26.9008 7.40114 1328.27 857.32 60.9049 0 0 0 0.5 
465 1 1 3.80725 2.46896 0.331503 -28 0 1 -261.397 -1.71059 -10.1369 -1532.62 9.471 -716.754 0 0 0 0.5 
1000 2 2 3.84271 2.05213 1.1862 -109 0 0 -295.398 9.30484 -21.8732 -1421.78 -232.136 2205.25 0 0 0 0.5 
566 2 2 4.3609 3.17378 1.30712 279 1 1 -227.518 13.5655 19.6322 1118.29 305.783 2131.84 0 0 0 0.5 
177 1 1 0.146207 4.62662 1.26837 52 0 1 -30.8078 -6.24956 1.1818 -3123.25 3420.76 2506.15 0 0 0 0.5 
851 2 2 4.01274 3.6122 1.15591 -164 0 0 -187.073 24.982 -4.48907 -1920.17 5145.17 -1780.22 0 0 0 0.5 
62 1 1 0.322663 3.69091 1.23904 -48 0 0 -170.181 9.96386 -11.5839 1301.7 -3000.39 -263.69 0 0 0 0.5 
966 2 2 3.82199 0.568564 0.276727 -80 0 1 -432.869 3.46145 -8.41307 -1391.32 812.574 -554.214 0 0 0 0.5 
999 2 2 3.09859 3.56296 0.752686 -45 0 0 -139.962 16.1291 15.5861 146.353 -2462.75 -2180.91 0 0 0 0.5 
787 2 2 2.95604 1.25135 1.26432 -73 0 1 -380.611 15.8194 -2.63761 -2847.67 1871.19 1443.64 0 0 0 0.5 
962 2 2 3.73135 0.103878 1.93535 -162 0 0 -516.305 -18.7961 14.6543 731.991 -656.183 1085.91 0 0 0 0.5 
986 2 2 3.09885 4.28475 1.37961 60 0 1 -62.4401 0.574467 -33.6125 -227.785 -153.513 1820.26 0 0 0 0.5 
713 2 2 2.81991 0.360991 0.814942 -213 0 1 -431.679 -9.38888 -36.311 -508.338 -4122.76 -1146.4 0 0 0 0.5 
482 1 1 3.07809 2.7062 0.712986 89 1 0 -263.877 -14.7466 12.0557 -840.057 649.032 461.447 0 0 0 0.5 
293 1 1 2.89067 3.43619 1.60863 -147 0 1 -189.685 11.7702 12.5059 -1471.9 2180.53 -640.601 0 0 0 0.5 
382 1 1 3.31049 4.64509 0.440515 -249 -1 -1 -12.5993 -4.57893 7.29476 -1245.88 -1577.95 -863.543 0 0 0 0.5 
443 1 1 2.86092 0.264581 1.90865 146 1 0 -464.139 -8.12477 -17.5212 -1924.87 3804.01 2356.77 0 0 0 0.5 
147 1 1 4.7168 2.4552 0.00209414 -129 0 0 -288.853 15.6562 9.75398 1710.67 -83.146 -947.381 0 0 0 0.5 
395 1 1 4.995 0.45435 0.33489 133 1 0 -465.907 15.6227 -1.64524 -1827.18 82.5091 777.812 0 0 0 0.5 
309 1 1 1.25715 0.399153 2.51972 99 1 0 -456.244 -2.4423 -1.63758 -173.149 -1601.36 -1161.88 0 0 0 0.5 
164 1 1 1.99403 0.0864329 2.65883 81 1 -1 -458.126 -16.0634 -0.924009 500.701 -970.116 -350.319 0 0 0 0.5 
782 2 2 1.97767 2.09812 2.99294 75 0 -1 -258.505 -8.23433 -2.44973 -1944.05 -2742 639.896 0 0 0 0.5 
185 1 1 2.35449 1.36871 3.69317 -2 0 0 -348.756 -1.91867 18.4247 1156.5 1291.78 754.238 0 0 0 0.5 
300 1 1 3.98159 0.79887 2.98978 131 1 -1 -462.879 6.57834 34.2878 1165.69 -2681.59 -998.68 0 0 0 0.5 
418 1 1 1.14532 2.12012 2.48373 -148 0 1 -244.953 -32.7689 5.8636 -3139.8 1500.47 2840.24 0 0 0 0.5 
414 1 1 0.291466 0.344456 2.34276 157 1 0 -460.57 14.5647 -10.4811 561.51 -927.376 -951.65 0 0 0 0.5 
478 1 1 1.80133 2.47865 2.20002 -27 0 1 -253.172 15.5877 -7.66694 -1986.04 -1450.85 557.763 0 0 0 0.5 
356 1 1 2.39586 2.96631 3.44493 29 0 0 -198.921 31.8144 -16.6331 -3586.32 2081.94 71.7786 0 0 0 0.5 
413 1 1 2.46149 2.19436 2.12647 -53 0 0 -275.553 -9.10822 -15.4058 -178.317 -2536.25 126.46 0 0 0 0.5 
792 2 2 3.68086 4.66395 3.75801 260 1 0 -2.16333 -8.18768 -28.7377 -2981.47 1335.18 -228.289 0 0 0 0.5 
197 1 1 0.24597 0.610959 3.898 131 1 0 -427.908 -4.95796 -3.63067 -232.308 -53.3062 1184.57 0 0 0 0.5 
741 2 2 2.29842 3.44722 2.53008 -118 0 0 -197.481 15.4284 7.65608 3596.6 -2446.17 269.836 0 0 0 0.5 
76 1 1 2.34366 4.42121 2.66315 115 0 1 -32.8337 -11.1103 -1.55617 -1909.66 1384.19 575.251 0 0 0 0.5 
742 2 2 1.96585 4.15491 3.52976 3 0 -1 -96.6912 11.9595 -8.42575 -2074.93 979.985 -991.881 0 0 0 0.5 
833 2 2 1.64463 1.54778 3.58593 -27 0 0 -339.057 2.35949 0.274356 -824.225 -282.292 -530.57 0 0 0 0.5 
548 2 2 4.26212 1.95017 2.78863 -147 0 1 -369.976 20.9443 -15.7326 2053.47 -837.737 193.343 0 0 0 0.5 
273 1 1 0.806798 0.133303 3.56827 -205 0 2 -461.749 -14.8579 -22.095 -638.063 1093.12 -1488.24 0 0 0 0.5 
808 2 2 4.51326 3.33159 2.86629 84 0 0 -166.346 -20.6983 6.88181 -2161.4 84.3551 -2335.39 0 0 0 0.5 
786 2 2 0.88536 0.93432 2.95769 -165 0 1 -406.679 7.47481 -9.89654 -419.889 -75.0002 983.877 0 0 0 0.5 
658 2 2 0.769324 1.47781 3.50368 -69 0 0 -326.345 10.5732 -8.24529 -2358.32 2460.06 626.889 0 0 0 0.5 
333 1 1 3.39008 1.198 2.90361 -36 0 0 -425.202 28.381 -11.1008 -46.2287 2151.12 -742.783 0 0 0 0.5 
666 2 2 2.42142 1.01566 2.91021 6 0 0 -404.522 10.9177 -9.74611 -1879.21 1359.13 459.581 0 0 0 0.5 
913 2 2 2.14454 1.25685 2.04332 -26 0 0 -366.967 -6.87376 -11.9902 869.399 -71.5348 -826.669 0 0 0 0.5 
835 2 2 0.706432 2.87293 2.57984 -54 0 1 -201.229 -8.88153 -1.04227 1423.76 -1552.59 -286.129 0 0 0 0.5 
526 2 2 0.149472 1.69062 2.96056 -138 0 1 -316.18 4.01158 -22.3397 -1122.29 -1128.22 282.083 0 0 0 0.5 
191 1 1 1.72431 0.510332 3.59428 168 1 0 -475.225 14.9563 -14.9549 1119.71 -1796.61 -2182.03 0 0 0 0.5 
530 2 2 1.4018 3.75094 2.4233 -81 0 2 -131.644 8.71792 9.91119 -3169.99 1225.98 -408.953 0 0 0 0.5 
769 2 2 0.400027 1.22863 2.27776 -52 0 1 -378.769 28.5923 -15.8335 2465.81 -1532.28 -2106.86 0 0 0 0.5 
812 2 2 2.42744 2.31919 3.90133 16 0 1 -281.397 -1.85552 3.8616 -3100.96 2461.52 -1390.45 0 0 0 0.5 
399 1 1 1.54018 2.83235 3.2012 -128 0 -1 -189.463 -3.65015 -29.6365 -2456.88 2375.41 76.2158 0 0 0 0.5 
760 2 2 3.20815 4.42167 3.0141 -56 0 1 -65.3864 4.39643 -2.11954 1265.65 1469.96 361.944 0 0 0 0.5 
340 1 1 3.13706 4.68207 2.17275 17 0 0 -36.6919 -1.92942 -21.3623 -2395.91 1293.95 731.654 0 0 0 0.5 
251 1 1 3.86562 2.49622 3.59396 -85 0 0 -267.146 20.5351 -11.4075 2791.13 -1308.59 279.976 0 0 0 0.5 
67 1 1 2.67763 3.86719 3.71738 276 1 1 -107.327 12.6631 1.83689 44.3981 44.5664 -237.573 0 0 0 0.5 
3 1 1 -0.000577987 4.00477 2.93547 58 0 0 -114.22 1.98678 2.35345 -351 -746.829 -287.919 0 0 0 0.5 
459 1 1 2.85086 2.07571 2.88589 8 0 0 -321.488 -6.23561 8.68029 1975.81 -676.887 1543.05 0 0 0 0.5 
481 1 1 3.18218 2.75285 3.48655 63 0 -1 -263.967 12.1261 -15.4519 -122.366 -454.741 1428.8 0 0 0 0.5 
702 2 2 3.13195 1.28256 3.70064 226 1 0 -357.007 -4.77175 -5.19224 1269.16 -733.849 861.449 0 0 0 0.5 
138 1 1 0.71226 4.54458 2.13719 -52 0 1 -23.5817 -15.7674 -23.9446 334.511 290.593 -514.888 0 0 0 0.5 
826 2 2 0.0860525 3.09704 3.23997 305 1 0 -145.011 -14.6661 14.701 -2211.57 -480.803 1790.91 0 0 0 0.5 
243 1 1 0.391623 4.417 3.61503 -57 0 0 -11.0247 -21.0005 -32.7886 3231.41 -862.837 520.363 0 0 0 0.5 
770 2 2 4.62926 3.35929 3.78932 -65 0 0 -156.325 10.2748 -20.5722 340.513 950.18 -157.709 0 0 0 0.5 
133 1 1 4.49894 0.526126 2.44184 154 1 1 -508.648 10.4664 -15.1839 1234.44 -188.237 -711.218 0 0 0 0.5 
416 1 1 0.476633 3.62411 2.20647 -106 0 0 -123.596 -13.1704 -4.4548 59.1727 2332.48 -1641.21 0 0 0 0.5 
312 1 1 3.34821 3.56009 3.27071 5 0 1 -131.482 10.2401 -9.65892 1910.59 -2191.78 -596.932 0 0 0 0.5 
503 2 2 2.88316 1.15343 2.16649 28 1 0 -387.427 16.4409 -12.4996 -692.998 249.219 -34.9238 0 0 0 0.5 
655 2 2 2.74173 0.31987 3.12337 -248 0 1 -469.08 -6.53195 -1.51452 -1108.15 1066.99 1542.96 0 0 0 0.5 
439 1 1 3.63715 0.898842 2.08176 -81 0 0 -432.041 -0.394782 -12.4598 4100.91 -968.094 1287.75 0 0 0 0.5 
232 1 1 3.54704 2.2338 2.77838 -94 0 1 -346.328 34.4596 -0.513184 2112.48 -319.706 -2094.69 0 0 0 0.5 
161 1 1 3.64955 4.0576 2.07216 -1 0 1 -96.2372 -17.8117 13.0204 375.003 -2565.44 -930.512 0 0 0 0.5 
172 1 1 3.69406 1.69234 2.019 -187 0 0 -365.713 9.88136 -11.7798 2027.75 -3062.99 389.202 0 0 0 0.5 
909 2 2 4.00878 1.54324 3.65257 -109 0 1 -354.271 -4.7825 -12.7238 -2321.34 6849.31 -2.34816 0 0 0 0.5 
944 2 2 4.10718 4.52886 3.04758 -88 0 1 -55.1832 13.8769 -7.43975 2212.13 -232.729 -2863.33 0 0 0 0.5 
765 2 2 4.434 4.04569 2.24987 265 1 0 -88.3194 7.36281 -0.384459 655.791 -812.06 418.266 0 0 0 0.5 
288 1 1 4.9608 1.85324 3.97773 -48 0 -1 -336.726 4.57249 -6.38258 2687.35 -659.26 -1227.98 0 0 0 0.5 
350 1 1 4.96684 3.1406 2.05559 211 1 0 -167.386 18.5456 -12.9821 -282.018 204.832 -946.745 0 0 0 0.5 
258 1 1 2.33181 0.738829 4.45075 -127 0 1 -433.819 -13.8093 -14.1611 -558.951 -2664.55 580.123 0 0 0 0.5 
390 1 1 1.08775 0.854953 4.94707 149 1 -1 -401.376 -2.00301 0.778273 -2435.26 3566.21 -867.138 0 0 0 0.5 
10 1 1 0.199776 1.33914 4.47238 -172 0 1 -307.076 -27.9814 -1.01078 847.217 269.066 1160.26 0 0 0 0.5 
836 2 2 0.689092 4.9961 5.13566 138 0 -1 14.853 -15.6015 22.3756 -904.228 -692.843 335.228 0 0 0 0.5 
601 2 2 1.40265 0.441758 5.72985 122 1 0 -523.057 10.6517 -9.14659 793.268 -10.5219 2055.92 0 0 0 0.5 
445 1 1 1.84639 2.00801 4.64435 -43 0 0 -321.881 15.4906 -9.15277 999.049 -2444.19 -3369.63 0 0 0 0.5 
211 1 1 0.907922 1.6425 5.11114 188 1 0 -319.506 20.7 -6.23444 1076.9 56.6377 -32.8922 0 0 0 0.5 
565 2 2 4.17493 2.18781 5.76644 -119 0 0 -314.618 1.02918 -21.874 50.391 -86.2949 23.4363 0 0 0 0.5 
524 2 2 1.95774 0.0810598 5.07166 -83 0 1 -499.417 4.36575 14.8071 3709.51 1405.84 -171.501 0 0 0 0.5 
510 2 2 1.7074 2.64725 5.14294 -60 0 -1 -218.97 -14.0678 -23.3757 -6211.86 5324.37 1778.4 0 0 0 0.5 
890 2 2 1.40846 0.320209 4.77687 -54 0 -1 -453.137 -26.083 -1.03831 -4131.25 -2222.65 -3528.21 0 0 0 0.5 
280 1 1 0.252721 1.50522 5.49875 -141 0 0 -324.358 -43.7863 6.37962 944.444 110.877 -315.021 0 0 0 0.5 
428 1 1 0.213915 2.23647 5.07142 -92 0 1 -262.083 -8.85072 -31.615 -2154.71 224.215 301.098 0 0 0 0.5 
132 1 1 1.76218 2.66953 5.9837 41 0 0 -253.766 -14.1867 3.53056 -107.338 1417.87 86.395 0 0 0 0.5 
823 2 2 2.10737 1.23493 4.97692 240 1 -1 -371.908 1.25448 18.7301 1284.8 90.1315 -398.868 0 0 0 0.5 
803 2 2 1.74751 4.2296 4.95792 243 1 0 -85.6322 8.00085 1.46458 228.962 -1843.83 365.353 0 0 0 0.5 
142 1 1 1.5643 3.82204 5.83987 -98 0 -1 -116.177 1.1674 1.60726 63.8033 141.944 -307.156 0 0 0 0.5 
780 2 2 1.55901 1.35716 5.62768 -168 0 0 -367.795 18.2416 -7.25754 2588.25 -3397.38 1412.59 0 0 0 0.5 
203 1 1 4.236 0.939274 5.27803 -183 0 0 -407.859 15.3424 18.8384 2592.26 -435.008 -28.1251 0 0 0 0.5 
697 2 2 0.996036 2.92716 5.64723 -33 0 -1 -207.151 -5.52591 -1.49744 -2683.27 1115.16 -813.41 0 0 0 0.5 
821 2 2 1.63857 3.42789 4.86256 212 1 0 -168.284 12.0335 -3.70536 -221.091 -476.976 -333.577 0 0 0 0.5 
336 1 1 1.38147 3.07829 4.07923 101 0 0 -159.415 -8.58933 -16.3862 -29.0652 10.8548 243.721 0 0 0 0.5 
139 1 1 1.05978 1.6519 4.28705 -48 0 0 -323.392 30.1109 -1.83797 -711.151 563.102 -412.605 0 0 0 0.5 
65 1 1 0.342395 2.3894 4.13968 -81 0 0 -254.441 2.38538 -25.7252 829.912 232.332 101.661 0 0 0 0.5 
363 1 1 0.0289969 0.561745 5.81918 70 1 -1 -477.369 33.119 -16.3578 4727.56 1683.59 -1182.06 0 0 0 0.5 
763 2 2 3.53374 1.31085 5.18225 108 1 1 -385.662 -5.83753 10.9168 253.327 -1323.4 -1024.68 0 0 0 0.5 
556 2 2 1.19581 0.871275 4.06571 138 1 -1 -410.827 -9.51983 -6.42992 -2701.64 455.928 1017.11 0 0 0 0.5 
893 2 2 3.48902 4.92373 4.31956 15 0 0 49.2625 -29.8343 11.8865 -3329.3 -258.27 1797.56 0 0 0 0.5 
308 1 1 3.08912 1.80506 5.68403 -95 0 1 -325.12 4.47638 5.38963 -753.688 1606.76 -149.833 0 0 0 0.5 
40 1 1 4.429 3.8863 4.89384 -44 0 0 -104.334 -10.8383 16.9419 -576.724 -261.49 1560.39 0 0 0 0.5 
180 1 1 3.87809 2.54298 4.52593 -7 0 0 -245.496 -1.18182 -3.28314 883.516 2328.63 1487.48 0 0 0 0.5 
995 2 2 3.84661 3.20936 5.68134 -139 0 1 -183.731 -16.4158 6.66735 -2561.41 -1958.42 739.479 0 0 0 0.5 
665 2 2 4.3911 2.04283 4.42494 155 1 1 -305.496 -21.3365 9.3736 618.367 -373.145 740.307 0 0 0 0.5 
406 1 1 2.96837 3.28637 4.26083 -66 0 1 -154.407 -10.0928 4.19061 -882.683 2493.38 797.023 0 0 0 0.5 
182 1 1 3.2062 2.7091 4.73607 45 0 -1 -240.852 -7.16163 20.883 -2801.55 -2995.69 2921.76 0 0 0 0.5 
51 1 1 2.98631 2.00887 4.09934 -15 0 1 -292.65 13.6564 -15.7152 2667.44 -230.919 427.18 0 0 0 0.5 
101 1 1 2.73075 3.78598 5.64742 -108 0 0 -94.6942 -20.6772 -22.8831 -1569.85 550.524 -554.395 0 0 0 0.5 
415 1 1 3.73728 4.7101 5.37614 -6 0 -1 -8.03005 14.1178 -8.31251 2978.9 -2510.88 2632.79 0 0 0 0.5 
79 1 1 3.00032 1.655 4.73342 -121 0 1 -370.995 -3.67863 -1.79918 -765.47 -713.974 -315.684 0 0 0 0.5 
86 1 1 3.49326 3.82843 4.85522 -36 0 1 -107.197 -2.02166 -7.96153 -940.713 182.117 1405.71 0 0 0 0.5 
667 2 2 0.0655744 2.88074 5.4391 -46 0 0 -205.083 -3.99739 -5.64233 -122.16 1110.83 -300.773 0 0 0 0.5 
892 2 2 1.51868 4.90106 5.05966 54 0 -1 -0.162144 28.3325 -12.7954 1387.05 2894.69 255.199 0 0 0 0.5 
816 2 2 0.543192 3.3835 4.12123 -15 0 0 -178.462 -8.12648 -5.64897 -88.8232 71.9969 16.7497 0 0 0 0.5 
586 2 2 3.60652 3.97239 5.79963 275 1 0 -125.11 17.5004 6.89108 1315.54 932.119 22.4399 0 0 0 0.5 
154 1 1 4.36121 2.98394 5.25982 2 0 0 -177.911 -13.2837 -5.93894 -350.86 -1622.81 -531.056 0 0 0 0.5 
290 1 1 4.28264 0.242465 4.91274 206 1 0 -527.907 4.12016 -14.5573 -779.731 764.582 -191.755 0 0 0 0.5 
178 1 1 3.24417 0.687644 4.29243 77 1 0 -424.754 -10.6065 9.92563 644.658 -895.597 780.633 0 0 0 0.5 
332 1 1 0.62453 4.23338 4.38993 -138 0 0 -72.6075 -5.84566 23.6489 392.981 -2657.98 327.899 0 0 0 0.5 
919 2 2 0.277429 3.57882 5.92229 -172 -1 0 -112.295 0.369401 7.98456 1320.63 -2109.89 -766.698 0 0 0 0.5 
806 2 2 4.68778 2.92003 4.52639 -101 0 0 -211.635 15.4181 -12.5401 165.681 -3782.35 -1323.36 0 0 0 0.5 
622 2 2 2.65714 4.67332 5.80945 59 0 0 -12.5649 4.57799 -14.3229 636.354 -2631.49 -382.128 0 0 0 0.5 
645 2 2 2.69441 0.897715 5.89302 146 1 -1 -391.672 -16.2235 0.583499 0 0 0 0 0 0 0.5 
983 2 2 2.52894 2.23816 5.2302 -7 0 -1 -328.576 19.8892 -5.45529 6351.74 -927.443 570.141 0 0 0 0.5 
492 1 1 2.64392 4.18018 4.6201 -152 0 0 -100.947 9.41382 -4.44774 396.288 445.624 249.909 0 0 0 0.5 
640 2 2 2.54792 2.89621 5.93778 -132 0 0 -244.949 22.9839 -10.2092 -1423.79 457.94 -292.865 0 0 0 0.5 
575 2 2 3.85298 3.3801 4.12948 174 1 -1 -147.141 -5.7384 -2.01468 -150.814 586.381 -1259.17 0 0 0 0.5 
624 2 2 4.16724 4.2365 4.14783 11 0 -1 -45.2952 -18.6592 -7.50029 4205.74 -3436.08 -35.3448 0 0 0 0.5 
788 2 2 4.62541 0.863198 4.00115 107 1 0 -494.131 15.4191 -22.455 3612.47 -3983.97 2042.14 0 0 0 0.5 
532 2 2 4.8071 4.79929 5.19035 59 0 0 1.6998 -1.47279 -15.7646 -2716.56 1554.95 1012.98 0 0 0 0.5 
759 2 2 4.93457 3.27339 5.83334 -89 0 -1 -166.273 -4.48474 -4.30591 302.671 1582.74 192.45 0 0 0 0.5 
169 1 1 1.27454 0.984538 6.40425 242 1 0 -410.35 11.5317 -2.55779 3080.29 -796.227 421.835 0 0 0 0.5 
1 1 1 4.73517 0.916234 7.13653 -215 0 -1 -433.64 24.9022 4.60817 1741.1 2727.68 810.185 0 0 0 0.5 
338 1 1 2.2969 1.77674 7.12075 133 1 0 -349.508 10.8045 5.04311 265.078 -1799.18 -2006.94 0 0 0 0.5 
827 2 2 2.13605 4.082 6.62086 -56 0 0 -60.7616 -11.2394 -12.4846 -529.341 -519.728 -1093.33 0 0 0 0.5 
441 1 1 2.19488 2.6869 6.85312 42 0 0 -223.201 -11.592 -9.35633 -4054.72 2340.03 -836.94 0 0 0 0.5 
17 1 1 2.24609 0.950571 7.46477 -125 0 -1 -412.671 -6.19211 5.81961 -706.912 -922.963 -1427.92 0 0 0 0.5 
899 2 2 3.0849 1.30858 7.32737 -152 0 -1 -387.38 1.06737 -2.45637 1123.09 -2182.94 154.976 0 0 0 0.5 
353 1 1 0.716272 2.07077 6.95688 147 1 0 -329.167 8.66477 5.34371 1943.87 -710.113 -780.222 0 0 0 0.5 
660 2 2 0.937396 1.65987 6.11516 -15 0 0 -318.25 7.53594 3.07322 -1568.04 1961.65 446.458 0 0 0 0.5 
485 1 1 1.03241 2.55101 7.75777 -119 0 1 -288.594 5.4763 8.10243 -837.009 -3222.79 887.698 0 0 0 0.5 
408 1 1 0.548618 1.43586 7.67438 -32 0 -1 -345.073 6.35604 -0.760231 -1317.6 443.035 1999.98 0 0 0 0.5 
345 1 1 4.61132 0.785551 6.19124 214 1 0 -431.994 10.203 5.56968 -446.627 346.873 856.31 0 0 0 0.5 
337 1 1 0.472633 0.839216 6.57999 169 1 0 -397.41 -3.25056 -5.93626 808.618 -3335.14 -958.455 0 0 0 0.5 
102 1 1 3.99503 3.38905 6.47824 -24 0 -1 -147.571 -22.2247 1.22014 -1583.16 932.645 1408.11 0 0 0 0.5 
843 2 2 2.87617 4.08844 7.55054 -36 0 0 -64.6939 -20.7131 11.0206 -3361.91 -3608.34 -357.272 0 0 0 0.5 
897 2 2 1.49217 0.552478 6.98828 73 1 0 -462.465 0.167809 14.3732 -2280.73 -278.747 354.208 0 0 0 0.5 
861 2 2 1.64513 2.0666 7.643 -63 0 0 -315.438 3.80135 0.962654 -35.4786 -1799.55 845.382 0 0 0 0.5 
992 2 2 2.41412 4.62845 7.61693 -140 0 0 -29.354 24.22 20.9603 289.422 1691.39 1062.64 0 0 0 0.5 
720 2 2 4.58228 4.73628 6.20862 46 0 -1 24.4973 -29.4354 -3.15278 -687.613 -3277.19 737.268 0 0 0 0.5 
756 2 2 1.20889 1.23142 7.31039 -120 0 1 -393.114 22.0908 2.66434 3399.57 1855.14 -701.314 0 0 0 0.5 
927 2 2 1.35216 3.16239 6.59698 11 0 0 -207.115 8.07423 28.1162 4164.24 -1682.93 -797.636 0 0 0 0.5 
590 2 2 2.30535 3.28021 7.58424 -26 0 -1 -166.818 -5.05927 11.3963 39.2483 1227.54 -2157.66 0 0 0 0.5 
960 2 2 2.01198 0.183167 7.08168 201 1 0 -507.113 -5.71545 -17.6685 420.726 1097.53 -24.3714 0 0 0 0.5 
140 1 1 0.317412 0.149458 7.18605 127 1 0 -468.047 -11.0204 -4.01292 -596.439 1319.39 753.833 0 0 0 0.5 
95 1 1 3.9027 2.60385 7.09297 -33 0 0 -288.166 22.9187 -12.0449 2084.08 -1462.47 -1494.83 0 0 0 0.5 
346 1 1 0.0588562 2.54353 7.50241 252 1 0 -255.787 15.5332 13.6704 -1750 506.633 1347.05 0 0 0 0.5 
200 1 1 0.369292 2.26551 6.10318 -139 0 0 -267.512 0.0087965 -28.4791 -2526.36 -1959.14 601.925 0 0 0 0.5 
7 1 1 2.35053 1.94453 6.18551 -81 0 0 -336.77 1.81317 -5.81049 866.803 -2462.41 908.749 0 0 0 0.5 
305 1 1 1.67826 4.62994 7.25559 66 0 -1 -9.92216 -7.46896 -13.2556 -1255.72 293.677 -23.2334 0 0 0 0.5 
511 2 2 3.6453 4.05455 7.51188 -22 0 -1 -87.8176 -7.14793 -2.77065 2762.69 -313.226 53.6476 0 0 0 0.5 
253 1 1 3.40832 2.53186 6.26121 -215 0 0 -305.069 1.50167 -1.60055 3000.79 426.472 -961.209 0 0 0 0.5 
84 1 1 0.00760427 2.74974 6.55428 109 0 0 -236.396 18.8205 8.66514 1976.18 2746.77 1736.79 0 0 0 0.5 
959 2 2 0.594068 3.51225 6.81327 173 1 0 -138.052 1.8459 -2.03855 -171.567 -156.376 -209.094 0 0 0 0.5 
5 1 1 3.91157 4.20739 6.67707 22 0 -1 -67.9993 4.40638 -8.72391 3608.99 -63.5077 -483.166 0 0 0 0.5 
373 1 1 3.13074 1.61235 6.54936 -163 0 -1 -343.886 -0.99841 -5.28031 1222.46 -169.943 722.627 0 0 0 0.5 
241 1 1 3.57834 3.05507 7.86228 335 1 1 -163.406 20.0632 -20.833 557.377 1644.4 1405.46 0 0 0 0.5 
487 1 1 4.70352 3.12734 6.57201 -132 0 -1 -152.841 -37.2222 -8.49612 -957.741 865.734 463.196 0 0 0 0.5 
611 2 2 0.156986 3.64592 7.61961 -47 0 0 -113.415 -25.118 0.639507 -2978.56 690.264 1839.7 0 0 0 0.5 
486 1 1 3.31283 4.78916 6.57877 229 1 1 -32.0823 6.30003 -7.34273 -1462.32 -250.444 -2471.62 0 0 0 0.5 
24 1 1 4.08482 1.82129 6.62395 200 1 -1 -335.485 -1.05458 -10.8629 -362.021 -849.258 136.149 0 0 0 0.5 
705 2 2 3.85147 0.969524 6.94833 -164 0 0 -404.075 -12.5281 -15.326 -1314.24 476.522 -1161.69 0 0 0 0.5 
935 2 2 2.99959 2.72941 7.06928 -77 0 0 -278.666 16.4228 10.0136 2282.48 551.09 1611.56 0 0 0 0.5 
971 2 2 0.776683 4.37461 6.45375 50 0 0 -76.0344 16.902 -5.25868 835.828 -3620.24 2204.68 0 0 0 0.5 
199 1 1 4.6375 3.70541 7.15255 -233 0 -1 -121.847 8.68477 -14.6108 -2867.32 -507.148 125.625 0 0 0 0.5 
949 2 2 0.124028 4.38984 7.82808 100 0 1 -33.2981 -12.5635 -20.6646 149.437 250.06 947.67 0 0 0 0.5 
766 2 2 3.00426 3.73821 6.62886 -70 0 0 -76.3502 -12.4669 -3.7958 1246.15 -361.69 417.445 0 0 0 0.5 
393 1 1 0.751606 3.27877 7.69155 129 1 -1 -141.786 -3.492 3.09227 2207.87 1425.58 1784 0 0 0 0.5 
496 1 1 4.24418 4.85888 7.92237 87 0 -1 14.1813 5.49286 -4.99344 494.341 1371.18 1428.25 0 0 0 0.5 
190 1 1 -0.0431307 4.36047 6.01081 -47 0 1 -71.352 13.3121 -6.11788 7576.45 -4968.03 464.511 0 0 0 0.5 
33 1 1 4.47652 2.08736 7.50626 272 1 0 -288.745 -1.89231 -21.3851 1633.79 -859.066 -1373.23 0 0 0 0.5 
671 2 2 4.45102 4.16801 7.69886 -28 0 0 -71.0181 22.6612 -9.17611 1164.79 -1086.5 -625.073 0 0 0 0.5 
205 1 1 0.786794 1.24013 8.97722 -89 1 -1 -377.669 0.519925 -1.61671 980.69 -1149.18 -122.018 0 0 0 0.5 
595 2 2 2.41971 0.125151 8.28538 129 1 0 -522.691 10.4671 17.1902 135.464 -972.457 650.215 0 0 0 0.5 
737 2 2 2.23448 0.851716 8.34184 -78 0 0 -421.065 30.7062 26.2659 316.908 2118.86 2271.93 0 0 0 0.5 
502 2 2 0.647812 2.20987 9.46478 -146 0 0 -305.398 32.8552 -22.7997 -415.271 -1286.74 -833.44 0 0 0 0.5 
987 2 2 0.716245 2.81338 8.57212 207 1 0 -257.882 16.8214 45.8895 -23.3889 -1436.17 -1744.94 0 0 0 0.5 
438 1 1 3.79414 4.42237 9.26263 11 0 -1 -57.0284 18.4935 14.3087 -29.217 422.19 -1452.19 0 0 0 0.5 
281 1 1 1.47199 3.75868 8.21402 -9 0 -1 -147.715 26.1572 8.03557 2746.31 122.659 -734.215 0 0 0 0.5 
708 2 2 0.685553 0.329882 8.86461 -159 0 0 -461.266 -4.86882 4.10114 2241.6 -450.418 1029.58 0 0 0 0.5 
880 2 2 2.90569 3.32169 9.09074 2 0 0 -167.574 4.93546 -13.3812 61.0297 -745.753 2812.32 0 0 0 0.5 
159 1 1 2.40166 2.39717 8.33752 256 1 -1 -205.448 4.67232 -20.7448 -1654.45 4073.26 1709.83 0 0 0 0.5 
233 1 1 0.636983 0.746896 8.07831 -124 0 0 -417.948 -23.472 3.46581 -1418.43 80.5041 -939.071 0 0 0 0.5 
372 1 1 1.82554 0.410928 9.10607 -154 0 0 -503.119 19.3431 24.9285 383.572 3559.42 -3550.2 0 0 0 0.5 
646 2 2 1.8542 2.69406 9.0902 -56 0 0 -186.024 -7.16044 -4.66695 -347.302 -162.595 814.087 0 0 0 0.5 
694 2 2 4.4462 0.906159 8.35214 -233 0 0 -410.611 -14.8754 2.22131 -260.607 1514.94 -1073.34 0 0 0 0.5 
977 2 2 1.52491 2.05556 9.7786 149 1 -1 -308.637 16.0261 -26.6798 39.5208 920.708 -1018.08 0 0 0 0.5 
483 1 1 0.5016 1.85384 8.52946 184 1 -1 -337.698 22.019 -20.1375 2722.11 -1134.05 295.889 0 0 0 0.5 
689 2 2 0.549576 0.691302 9.94077 -144 0 0 -372.795 0.393229 8.84883 2501.81 -56.6761 -790.027 0 0 0 0.5 
383 1 1 4.67165 3.47904 8.09691 -86 0 0 -135.779 6.90892 13.9961 3406.11 -2803.27 -2990.9 0 0 0 0.5 
926 2 2 3.85589 2.35714 8.01231 186 1 0 -231.229 -27.8567 9.93981 -4546.32 2958.83 -793.653 0 0 0 0.5 
163 1 1 0.350829 1.45163 9.62441 200 1 0 -385.852 17.6206 9.13607 -813.297 895.053 75.3588 0 0 0 0.5 
16 1 1 1.44961 0.686844 8.05139 -134 0 0 -408.429 -0.433173 0.094517 -1114.85 -1287.75 -1117.53 0 0 0 0.5 
911 2 2 0.871914 4.37511 9.04217 -259 -1 -2 -78.8015 22.0696 20.7787 195.085 -234.952 109.492 0 0 0 0.5 
447 1 1 3.19942 4.2271 8.53687 57 0 0 -40.0601 -7.75146 13.1865 -1038.73 -839.792 -2563.01 0 0 0 0.5 
577 2 2 3.438 1.80552 9.7602 208 1 -1 -307.277 3.25823 -3.63929 300.097 1136.15 400.971 0 0 0 0.5 
947 2 2 4.27452 3.33383 8.99618 -13 0 0 -129.102 -7.5841 10.2515 -2460.84 -205.255 4500.82 0 0 0 0.5 
941 2 2 4.80355 0.942357 9.34983 -43 0 -1 -362.382 -10.0355 18.5463 -239.836 -1876.69 302.055 0 0 0 0.5 
157 1 1 2.69653 1.72762 8.02275 -67 0 0 -344.641 2.06711 -5.62347 180.563 -1702.19 -135.6 0 0 0 0.5 
753 2 2 2.81935 4.62782 9.35775 68 0 0 26.1768 -21.4648 -6.68279 -1589.16 3313.43 229.655 0 0 0 0.5 
11 1 1 1.51336 3.88263 9.5699 -24 0 -1 -71.673 -6.58189 8.5301 -173.727 200.027 -370.366 0 0 0 0.5 
257 1 1 3.49116 2.00875 8.80939 -51 0 0 -282.222 -9.11123 -1.82423 129.736 -28.9958 918.827 0 0 0 0.5 
743 2 2 2.85543 3.34135 8.21949 -70 0 0 -146.262 0.782884 -13.7952 -885.666 963.974 1070.03 0 0 0 0.5 
430 1 1 3.30628 1.08547 9.06328 -27 0 0 -374.943 -12.3807 -6.1186 -870.765 628.194 684.674 0 0 0 0.5 
910 2 2 4.60805 2.75239 8.4314 -58 0 1 -225.949 -6.29678 20.8431 1081.81 -2554.76 -2400.1 0 0 0 0.5 
452 1 1 4.07752 4.03872 8.48397 26 0 0 -52.9039 -2.65807 4.49021 -1976.56 3561.78 1684.38 0 0 0 0.5 
284 1 1 2.82449 2.60027 9.68096 -106 0 -1 -244.665 -20.0276 8.77677 -309.006 1062.19 -806.411 0 0 0 0.5 
733 2 2 4.12557 1.27267 9.12754 110 0 -1 -373.773 13.077 6.46107 159.269 1384.63 504.525 0 0 0 0.5 
198 1 1 0.320364 4.45479 9.89927 -9 0 0 -74.7166 -22.8097 -10.0085 671.227 -1820.66 627.279 0 0 0 0.5 
277 1 1 0.692737 3.72387 8.42235 -149 0 0 -124.084 4.77617 25.6308 432.202 -159.484 -990.386 0 0 0 0.5 
978 2 2 0.00246957 4.0303 8.67272 27 0 -1 -96.2752 -11.9259 0.414423 -2712.95 1776.15 -1222.13 0 0 0 0.5 
869 2 2 2.82781 0.348958 9.74135 -2 1 0 -427.743 -21.3684 6.96264 1063.19 -1844.58 -1036.55 0 0 0 0.5 
108 1 1 3.1936 0.943865 8.14785 -180 0 0 -407.696 -9.20998 3.69069 384.72 -1964.75 -104.839 0 0 0 0.5 
621 2 2 4.82825 4.82692 9.72648 0 0 0 -7.47169 -10.9292 1.89383 1720.09 -712.516 -14.2729 0 0 0 0.5 
547 2 2 3.0595 3.89095 9.86663 56 0 -1 -125.134 1.02064 3.9823 184.268 -1962.12 1789.73 0 0 0 0.5 
254 1 1 3.65855 2.72854 9.45629 -12 0 -1 -239.625 18.6165 -10.4861 -792.296 757.478 -1192.65 0 0 0 0.5 
80 1 1 3.93077 3.72281 9.85381 -59 0 0 -125.48 -21.4436 -13.6487 256.363 -418.04 131.34 0 0 0 0.5 
711 2 2 4.28679 0.189676 9.72616 154 1 -1 -455.773 0.735532 -11.7929 277.985 2646.39 -944.456 0 0 0 0.5 
804 2 2 4.33689 2.22776 9.22848 -174 0 -1 -275.452 3.14665 4.44857 943.788 -2140.33 -991.702 0 0 0 0.5 
596 2 2 4.58871 1.83088 8.39768 -106 0 0 -310.555 -7.57238 -0.566735 626.886 -3890.45 250.018 0 0 0 0.5 
28 1 1 2.10546 9.62531 0.57288 77 0 0 480.741 -9.36399 6.86509 4286.61 -585.389 -1076.88 0 0 0 0.5 
171 1 1 4.55587 6.47177 1.4929 -18 0 0 92.3466 -6.28787 13.7531 -1859.8 -1564.24 1701.86 0 0 0 0.5 
637 2 2 4.31884 9.90242 1.66832 -126 -1 2 464.572 10.639 3.49716 1232.77 -530.545 -2819.72 0 0 0 0.5 
141 1 1 0.485246 8.45187 0.931401 -106 -1 1 375.185 -24.5765 8.18938 -2961.83 659.038 -1776.45 0 0 0 0.5 
670 2 2 0.333467 9.1972 0.753992 -110 -1 1 454.314 17.0541 1.12617 10.0445 638.453 706.395 0 0 0 0.5 
545 2 2 2.0547 6.94446 1.35271 131 0 -1 193.403 12.1302 -7.17066 1031.9 -1930.48 10.3628 0 0 0 0.5 
242 1 1 1.56554 6.50227 0.496616 -331 -1 1 126.28 5.48942 -4.46305 0 0 0 0 0 0 0.5 
817 2 2 4.55733 8.79712 1.97211 59 0 0 341.63 6.29481 9.12093 -2817.66 806.458 -99.0478 0 0 0 0.5 
837 2 2 3.0871 7.49395 1.67682 -237 -1 0 244.35 -8.96032 22.9115 -1473.93 -198.671 -717.96 0 0 0 0.5 
762 2 2 3.60464 9.16327 1.85787 -136 -1 1 454.055 -14.6198 17.5801 -2340.64 -1724.08 -936.828 0 0 0 0.5 
20 1 1 2.88407 9.49373 1.43897 -217 -1 0 466.279 -1.53829 -3.50199 -152.351 -1402.92 -1428.94 0 0 0 0.5 
561 2 2 0.676628 8.7989 0.043312 85 0 0 393.725 -11.0254 8.94134 62.866 -668.566 -2237.86 0 0 0 0.5 
587 2 2 2.73727 5.82552 1.05835 -17 0 1 92.8709 -0.225876 -16.5789 -161.538 68.7511 -537.635 0 0 0 0.5 
152 1 1 3.27398 8.5826 1.15549 59 0 1 345.803 -2.33634 6.11306 -1690.52 2237.17 2753.82 0 0 0 0.5 
942 2 2 -0.0628175 8.50359 1.66985 64 0 0 398.907 -17.3836 -11.671 -1351.99 -170.583 914.872 0 0 0 0.5 
386 1 1 2.80842 7.19402 0.740066 111 0 0 203.343 -14.6779 28.2777 -1825.63 694.168 1904.31 0 0 0 0.5 
846 2 2 3.98583 5.67784 1.71832 -44 0 1 50.7051 5.20795 2.85945 2642.79 -2557.42 -874.978 0 0 0 0.5 
517 2 2 4.49881 8.34031 0.163053 3 0 1 314.271 -3.12995 16.3964 -669.947 2717.66 -4166.74 0 0 0 0.5 
109 1 1 0.558911 9.63626 1.51002 67 0 1 504.603 12.4919 6.54017 432.642 -587.564 1233.46 0 0 0 0.5 
151 1 1 3.33249 6.25819 1.91183 -3 0 0 126.486 1.18612 10.7335 -565.193 1639.26 423.968 0 0 0 0.5 