ITEM: TIMESTEP
50000
ITEM: NUMBER OF ATOMS
1000
ITEM: BOX BOUNDS xy xz yz pp pp pp
0 10 0
0 10 0
-0 10 0
ITEM: ATOMS id type type x y z ix iy iz vx vy vz fx fy fz omegax omegay omegaz radius 
372 1 1 0.158076 0.688619 0.108513 -184 0 1 -474.921 12.0439 -8.29009 825.951 477.678 220.39 0 0 0 0.5 
425 1 1 1.76393 1.95708 1.1671 -201 0 1 -320.538 8.51889 7.42153 2389.49 -2990.72 -3046.62 0 0 0 0.5 
877 2 2 1.54292 1.69867 0.292104 275 1 1 -356.156 27.2046 -2.26554 804.728 1022.68 -1261.95 0 0 0 0.5 
844 2 2 1.02574 1.17723 1.47637 238 1 0 -379.02 9.82854 -0.0235187 491.227 -151.727 527.097 0 0 0 0.5 
194 1 1 0.899372 0.0272797 1.86729 -324 0 0 -489.221 -15.7186 -7.61383 733.511 -137.208 -92.6113 0 0 0 0.5 
58 1 1 1.81506 1.83384 1.98841 35 0 -1 -323.422 4.35274 6.68818 2737.12 -3325.21 2440.51 0 0 0 0.5 
267 1 1 0.0464896 0.235267 1.97177 -202 0 0 -485.772 11.5009 3.20308 -119.523 646.944 -1211.83 0 0 0 0.5 
247 1 1 0.243776 0.465567 1.00365 -203 0 0 -479.687 -11.4039 3.77228 -1728.49 -769.825 -87.785 0 0 0 0.5 
472 1 1 2.76736 4.89424 0.984355 10 0 1 -28.9672 -10.8293 6.86281 1519.24 -1206.04 -158.032 0 0 0 0.5 
115 1 1 2.17964 1.19529 0.19528 209 1 0 -383.728 -13.3452 -6.98744 -734.432 -1097.21 -756.207 0 0 0 0.5 
443 1 1 0.275949 1.05135 1.44426 189 1 0 -389.661 -6.42733 6.48295 503.577 -572.872 63.2757 0 0 0 0.5 
354 1 1 1.63255 2.67006 0.606042 -84 0 1 -242.079 0.0419227 2.69035 -470.619 2083.48 -1528.91 0 0 0 0.5 
140 1 1 2.00181 3.50853 0.63417 178 1 1 -117.733 -23.8919 0.462926 -1703.17 -603.757 -3313.44 0 0 0 0.5 
376 1 1 0.850498 0.301776 0.870697 -239 0 0 -485.321 0.44281 -14.6826 493.442 -378.033 -1028.16 0 0 0 0.5 
360 1 1 3.19317 2.58081 0.406786 -321 -1 1 -260.636 -1.91159 -3.85392 -3205.27 727.587 1000.6 0 0 0 0.5 
521 2 2 4.60181 0.513809 0.363267 -131 0 1 -504.806 38.1907 -16.0163 916.844 -506.743 -3173.2 0 0 0 0.5 
947 2 2 1.06237 2.34848 1.65208 -34 0 1 -229.145 -14.5062 16.842 -6268.08 3791.44 883.023 0 0 0 0.5 
670 2 2 3.80287 0.173319 0.321656 -148 0 1 -505.964 -16.3988 -5.17487 1931.75 -910.015 103.086 0 0 0 0.5 
912 2 2 0.383692 2.8683 1.4615 -4 0 0 -222.117 -6.21037 6.19417 -265.863 732.465 -31.5417 0 0 0 0.5 
307 1 1 2.41458 3.19572 1.39726 297 1 -1 -206.699 -1.3639 2.03273 492.054 -284.835 1874.73 0 0 0 0.5 
713 2 2 1.59463 0.212397 1.01942 -251 0 1 -497.513 15.6774 -3.94422 2177.58 219.206 -283.356 0 0 0 0.5 
277 1 1 0.939404 1.71874 0.773191 -167 0 1 -343.543 6.51963 5.12959 -915.42 1179.61 524.361 0 0 0 0.5 
913 2 2 1.7395 0.945993 1.76111 -57 0 0 -372.833 -0.988401 -0.268346 1248.14 -117.214 350.468 0 0 0 0.5 
909 2 2 0.0489527 1.71235 0.865951 -138 0 1 -351.678 3.87425 -22.7557 -784.004 39.0906 41.0521 0 0 0 0.5 
733 2 2 0.277978 2.68796 0.483268 87 0 0 -224.616 -10.2061 6.40123 292.319 134.792 -221.136 0 0 0 0.5 
577 2 2 2.00076 4.20389 1.03245 266 1 0 -46.493 -15.1473 13.3163 -601.732 -188.284 -1811.05 0 0 0 0.5 
637 2 2 4.44905 1.49885 1.77745 -166 0 2 -364.705 -17.5766 -8.43179 1257.96 -2060.51 -836.206 0 0 0 0.5 
423 1 1 1.80759 4.48176 1.98638 -335 -1 1 -64.0107 -6.57666 24.8915 -2724.36 1931.58 1729.41 0 0 0 0.5 
950 2 2 2.84057 4.45491 0.182319 35 0 -1 -43.699 4.46062 -6.37592 1067.63 -872.329 -2016.89 0 0 0 0.5 
465 1 1 4.19739 2.56821 1.15243 -46 0 1 -233.87 7.6937 -0.710946 1195.13 315.487 62.4376 0 0 0 0.5 
93 1 1 3.57758 1.06474 1.41002 212 1 0 -395.342 -33.8961 24.6421 -1306.65 -1269.54 1798.9 0 0 0 0.5 
198 1 1 1.4302 4.5877 0.784544 -13 0 1 -38.7712 -7.86887 -10.8202 -1861.04 1251.87 -808.616 0 0 0 0.5 
268 1 1 3.07288 3.28558 0.71321 31 0 0 -198.706 10.1832 10.8993 593.753 1610.31 2565.26 0 0 0 0.5 
549 2 2 0.881153 4.72376 1.70254 -165 0 0 -42.5744 -16.4648 -26.7004 -219.496 -293.333 -304.717 0 0 0 0.5 
56 1 1 2.88911 4.84958 1.87839 -71 0 0 -16.0068 -15.9283 13.2109 653.439 -2573.66 -226.983 0 0 0 0.5 
524 2 2 3.49613 4.83223 0.828819 -113 0 2 -35.5777 16.8016 8.70485 2164.39 -2048.39 83.7849 0 0 0 0.5 
80 1 1 4.28047 3.74996 1.23862 -70 0 1 -173.629 12.3799 -21.6581 16.6313 -22.055 22.6497 0 0 0 0.5 
547 2 2 0.466553 3.71718 1.57026 45 0 0 -122.681 7.60847 14.4193 1195.1 -655.703 -47.8233 0 0 0 0.5 
393 1 1 0.77984 3.66632 0.699586 195 1 0 -135.804 -0.0372119 10.0434 -39.4256 -23.3985 -1090.35 0 0 0 0.5 
787 2 2 4.37274 1.87163 0.758856 -95 0 1 -281.696 -25.5295 -7.77504 -2655.41 -692.047 -282.161 0 0 0 0.5 
350 1 1 3.71734 2.26162 0.263358 268 1 0 -265.545 9.87282 20.0607 2228.82 -49.7713 -398.643 0 0 0 0.5 
648 2 2 3.37413 2.64726 1.30816 279 1 1 -235.423 14.4192 -4.17177 -714.73 -540.135 1379.99 0 0 0 0.5 
217 1 1 4.18497 0.979969 0.902583 -110 0 0 -425.786 1.55035 -5.36359 -553.769 1762.61 1512.94 0 0 0 0.5 
503 2 2 2.71598 1.77242 1.80821 79 1 0 -314.477 -14.1524 6.43236 -1237.07 -1166.14 1464.47 0 0 0 0.5 
958 2 2 3.13687 0.596176 0.544461 252 1 2 -439.736 -8.32304 -1.26272 -2383.17 1681.62 -591.834 0 0 0 0.5 
644 2 2 4.09085 3.41578 0.175048 409 1 1 -192.073 8.60844 31.988 -345.695 49.7969 1096.18 0 0 0 0.5 
329 1 1 2.45643 4.05659 1.64777 -158 0 1 -120.294 -4.43859 31.8834 5882.81 -1290.54 1835.65 0 0 0 0.5 
1000 2 2 2.49507 0.899272 0.963894 -134 0 0 -429.067 -8.12919 30.4098 -744.007 1995.88 793.832 0 0 0 0.5 
593 2 2 2.58526 1.88057 0.814044 -11 0 1 -321.259 8.21451 -11.6843 -332.839 -1548.56 -519.114 0 0 0 0.5 
921 2 2 2.68994 2.58761 1.83003 -86 0 1 -234.219 -3.84983 25.4172 238.703 29.0367 1254.95 0 0 0 0.5 
408 1 1 3.28765 4.01285 0.396842 -51 0 0 -94.3453 2.96624 10.0586 3229.2 -2148.95 1750.17 0 0 0 0.5 
582 2 2 3.32869 1.73745 1.30718 -29 0 0 -316.086 11.8457 -17.685 473.895 608.286 -1355.26 0 0 0 0.5 
309 1 1 4.00156 1.88167 1.92293 145 1 0 -341.073 -14.5432 5.88562 -2459.29 -356.174 401.473 0 0 0 0.5 
62 1 1 4.7865 3.1423 1.63261 -61 0 0 -187.138 -24.251 -9.18467 -446.272 -993.402 -432.206 0 0 0 0.5 
284 1 1 4.89512 3.23464 0.680036 -126 0 0 -171.618 -11.0795 -4.91177 -189.07 610.837 577.008 0 0 0 0.5 
895 2 2 2.06951 0.59034 2.86227 -125 0 0 -418.868 -7.34289 -15.0609 554.66 -557.421 503.124 0 0 0 0.5 
142 1 1 4.1625 1.59944 2.7809 -119 0 -1 -280.754 -43.5025 -9.80904 -2987.04 1986.92 973.203 0 0 0 0.5 
702 2 2 4.45333 2.32916 3.7489 280 1 0 -257.753 -11.9008 -4.28218 324.12 -855.006 225.14 0 0 0 0.5 
251 1 1 1.6038 3.67327 3.93842 -96 0 0 -87.3949 -21.171 1.03171 395.502 414.178 -475.04 0 0 0 0.5 
835 2 2 4.67037 3.10309 3.88896 -66 0 1 -183.683 -4.83629 13.3455 -184.834 1668.41 -708.917 0 0 0 0.5 
91 1 1 1.98591 2.17468 2.81929 -32 0 0 -285.481 15.081 -14.2712 804.334 -594.637 54.3618 0 0 0 0.5 
845 2 2 2.15808 2.7394 3.41103 -46 0 0 -178.273 12.8409 5.08478 561.617 144 -771.594 0 0 0 0.5 
745 2 2 1.5961 0.855603 3.61746 -107 0 1 -422.729 -6.56554 14.1964 -354.909 2535.71 -1871.94 0 0 0 0.5 
986 2 2 4.41092 4.03749 2.99396 56 0 1 -100.255 13.2912 15.6254 -429.426 1032.19 121.156 0 0 0 0.5 
439 1 1 2.76833 1.00625 2.3145 -113 0 0 -391.654 -23.6799 8.76365 1336.25 -1845.77 -810.614 0 0 0 0.5 
39 1 1 1.81662 3.96685 2.87331 -120 0 0 -95.9407 0.257527 -20.6669 -1385.29 964.245 -1668.37 0 0 0 0.5 
941 2 2 2.2568 0.077815 3.51296 -78 0 0 -461.353 -2.81823 6.24168 413.218 841.796 932.543 0 0 0 0.5 
357 1 1 0.938077 1.7052 3.4261 -290 0 1 -331.577 -0.508517 -28.5813 -81.1048 -998.707 374.35 0 0 0 0.5 
386 1 1 4.56337 4.39339 3.97428 112 0 0 -71.6388 5.36244 10.9548 384.21 1328.82 -667.952 0 0 0 0.5 
428 1 1 1.46519 3.50884 2.02908 -110 0 1 -108.672 -26.844 -13.7059 -2551 451.846 -2073.23 0 0 0 0.5 
684 2 2 1.71821 0.14506 2.10175 103 1 1 -472.816 -6.42926 14.9306 1.17155 -1211.56 -525.589 0 0 0 0.5 
683 2 2 0.705205 0.129323 2.85347 126 1 0 -472.432 -12.8489 15.5465 -1829.43 1201.43 -975.864 0 0 0 0.5 
980 2 2 0.707048 3.83181 2.43139 244 1 2 -96.5876 -27.8768 7.16629 273.35 556.515 1482.82 0 0 0 0.5 
826 2 2 1.81962 1.81494 3.68591 358 1 0 -314.725 17.7408 -12.1972 -1027.77 -2919.87 562.906 0 0 0 0.5 
630 2 2 1.65199 1.28316 2.78035 147 1 1 -396.619 5.92833 19.0607 -247.169 4380.36 -1082.6 0 0 0 0.5 
803 2 2 1.43001 2.75886 3.26756 308 1 0 -196.989 -8.31906 -14.3308 -2439.45 2285.81 926.545 0 0 0 0.5 
6 1 1 2.20807 3.33591 2.40966 22 0 -1 -144.181 -12.3444 -34.3685 3947.23 -1903.75 818.977 0 0 0 0.5 
695 2 2 2.36032 1.54464 2.66614 148 1 0 -351.687 2.04974 27.0014 2632.73 -1393.2 353.443 0 0 0 0.5 
128 1 1 0.553727 0.794047 3.56545 114 1 1 -422.069 13.9018 -20.5926 2879.37 694.787 470.953 0 0 0 0.5 
693 2 2 3.81068 2.299 3.06944 108 1 -1 -256.972 -9.78923 10.2905 -1050.6 981.537 -1094.93 0 0 0 0.5 
10 1 1 0.991012 0.861381 2.40176 -199 0 1 -387.03 -20.3191 -11.6219 -431.108 -1046.62 385.936 0 0 0 0.5 
598 2 2 2.82433 3.78932 3.93336 -105 0 1 -165.407 11.3761 -10.1345 905.862 1869.85 604.155 0 0 0 0.5 
957 2 2 0.705926 2.98881 3.67402 19 0 0 -161.211 -7.03975 26.0033 -139.01 258.265 912.347 0 0 0 0.5 
288 1 1 0.123495 2.78801 2.60763 -67 0 -1 -219.376 -13.1885 -14.9031 156.173 -737.522 -744.399 0 0 0 0.5 
700 2 2 0.201756 4.36653 3.46127 196 1 1 -11.825 -12.3697 -12.3778 -48.1274 -297.735 2026.81 0 0 0 0.5 
361 1 1 3.74475 2.8484 2.27038 -78 0 0 -249.026 34.0264 18.2144 -219.565 4013.54 1854.25 0 0 0 0.5 
480 1 1 3.81845 0.1506 3.67 -148 0 2 -482.596 -0.476413 7.46268 -1963.61 1426.52 -621.934 0 0 0 0.5 
919 2 2 2.84902 2.0375 3.23371 -262 -1 0 -269.947 18.8917 0.122397 -1092.36 -550.771 -986.376 0 0 0 0.5 
24 1 1 4.26303 1.43709 3.69315 253 1 -1 -339.845 -26.0509 5.31654 334.925 658.744 391.183 0 0 0 0.5 
810 2 2 0.962565 4.81183 3.76679 31 0 1 8.09638 4.77108 -2.28992 1953.47 -858.218 -1099 0 0 0 0.5 
228 1 1 3.77094 3.07157 3.52839 -136 0 1 -193.049 13.2623 31.1265 -183.256 -356.894 -357.581 0 0 0 0.5 
971 2 2 0.00792033 3.3338 3.15851 44 0 1 -145.879 -4.96518 22.3498 -335.1 -1017.69 244.377 0 0 0 0.5 
161 1 1 0.0470516 3.68498 3.9823 -13 0 1 -91.6699 -14.6737 2.84545 -94.4841 -14.8222 -1765.27 0 0 0 0.5 
312 1 1 0.680204 4.61563 2.81188 -3 0 1 -62.2378 14.1743 -19.8942 1686.99 1410.11 -2355.05 0 0 0 0.5 
823 2 2 3.71478 0.656774 2.82605 284 1 -1 -443.07 13.4707 -6.20157 424.829 -691.853 51.6606 0 0 0 0.5 
741 2 2 4.32966 3.57721 2.22552 -124 0 0 -146.115 12.7746 -6.45656 -1942.62 -693.879 1244.21 0 0 0 0.5 
149 1 1 2.58192 3.80648 3.16054 -18 0 0 -110.669 -4.60256 -48.1994 2381.19 -498.005 200.989 0 0 0 0.5 
831 2 2 2.68029 4.82268 3.01487 72 0 0 -50.5811 -21.8065 -9.66924 241.546 886.985 -212.998 0 0 0 0.5 
182 1 1 3.96924 2.41301 2.05594 24 0 -1 -263.407 6.20892 4.75378 1641.98 610.13 -167.748 0 0 0 0.5 
562 2 2 1.18644 4.19389 3.36595 117 0 1 -72.6494 -22.0959 -7.74278 -1665.96 -520.228 -278.921 0 0 0 0.5 
207 1 1 4.24272 0.514584 2.01997 252 1 1 -452 7.17517 -31.6473 -677.807 227.407 448.743 0 0 0 0.5 
243 1 1 4.75284 4.85343 2.1506 -61 0 0 -71.895 21.1109 -28.0971 -1675.56 587.536 -252.455 0 0 0 0.5 
848 2 2 4.88817 2.26881 2.668 -250 0 1 -298.24 4.97646 -20.0845 -765.254 -1378.76 -97.7218 0 0 0 0.5 
65 1 1 4.89413 3.17123 2.95604 -96 0 0 -188.424 -6.68335 3.25028 -2354.36 724.267 -316.814 0 0 0 0.5 
363 1 1 1.55641 0.268709 5.35387 112 1 -1 -503.864 15.1814 0.768719 1951.96 -3118.66 435.587 0 0 0 0.5 
486 1 1 1.56878 3.18745 5.69676 301 1 1 -140.441 -4.05879 17.0008 -25.5564 -12.9934 130.76 0 0 0 0.5 
673 2 2 0.40864 2.05064 4.18766 213 1 -1 -295.693 -12.8937 6.63085 1288.68 -3604.62 -2459.95 0 0 0 0.5 
614 2 2 1.0316 1.43433 5.8858 204 1 0 -353.692 -2.03597 26.5946 652.358 175.459 -507.042 0 0 0 0.5 
492 1 1 4.08841 4.33324 4.70686 -160 0 0 -69.4389 -18.3152 3.07508 -859.375 -79.278 1351.48 0 0 0 0.5 
798 2 2 1.97238 2.61931 4.60921 -195 0 0 -210.401 -24.5222 -8.43764 -1395.75 -2652.33 712.507 0 0 0 0.5 
76 1 1 0.273174 2.43775 5.02917 105 0 1 -241.324 -3.30739 -13.281 -74.2676 1251.82 2287.82 0 0 0 0.5 
606 2 2 4.2437 2.93408 5.94399 -164 0 -2 -203.193 17.8851 -2.3385 -460.701 2934.18 467.56 0 0 0 0.5 
815 2 2 0.287779 0.63313 5.53786 206 1 -1 -454.215 29.5612 -9.56569 827.229 885.126 -1046.23 0 0 0 0.5 
629 2 2 0.659785 0.195692 4.24936 -200 0 -1 -468.026 5.46237 16.4471 246.014 -366.003 -1375.51 0 0 0 0.5 
507 2 2 0.686793 0.0414703 5.26846 -237 0 0 -503.41 -13.9444 -12.7366 -499.076 -730.396 350.582 0 0 0 0.5 
454 1 1 1.53588 4.01168 5.07784 299 1 0 -124.299 18.4273 30.7271 -325.962 1620 -262.264 0 0 0 0.5 
596 2 2 0.105506 0.846174 4.48253 -135 0 0 -446.174 24.6711 -3.02566 676.578 459.467 2991.05 0 0 0 0.5 
131 1 1 2.05296 0.545774 4.27298 154 1 0 -441.508 -7.68777 9.71554 1045.67 -1402.7 943.763 0 0 0 0.5 
254 1 1 2.72841 2.545 4.05263 -29 0 0 -207.618 -2.34201 24.0565 1046.84 515.296 -463.722 0 0 0 0.5 
792 2 2 1.40965 1.85538 4.74162 322 1 0 -327.259 24.5281 4.09947 -1118.84 1536.73 1420 0 0 0 0.5 
608 2 2 2.71275 2.01591 5.45276 -62 0 0 -256.761 -12.4605 -4.1618 -689.314 1622.2 1744.73 0 0 0 0.5 
366 1 1 1.95469 4.1306 5.92219 -3 0 1 -56.5203 -10.2974 13.9465 -1823.56 -8.82564 -1687.35 0 0 0 0.5 
185 1 1 0.377679 1.50785 5.22033 -30 0 0 -346.952 7.21918 8.93029 -2962.01 2189.62 194.538 0 0 0 0.5 
418 1 1 1.75328 3.28125 4.75277 -167 0 1 -165.14 6.39029 9.37306 53.8998 -73.7354 1301.45 0 0 0 0.5 
540 2 2 4.49568 2.29803 5.71451 -368 -1 0 -247.361 0.543802 -1.98119 -1766.52 1665.71 1406.04 0 0 0 0.5 
253 1 1 1.06356 1.05648 5.09032 -239 0 0 -411.095 -6.78975 -27.779 1153.48 2302.24 -486.763 0 0 0 0.5 
620 2 2 1.77616 1.21377 4.45496 -54 0 0 -371.305 10.1293 5.40933 20.1779 1368.46 -447.142 0 0 0 0.5 
206 1 1 0.607222 4.34314 5.28135 -48 0 1 -31.0071 -3.24515 14.9374 1644.49 -118.839 -3626.14 0 0 0 0.5 
987 2 2 0.0266151 2.357 5.96309 265 1 0 -207.481 -16.7445 -1.69707 1214.86 -1318.13 -804.987 0 0 0 0.5 
205 1 1 2.97377 3.28347 4.63876 -41 1 -1 -206.917 -0.258647 -0.637179 416.686 -529.055 -607.198 0 0 0 0.5 
477 1 1 1.72227 4.54911 4.3799 125 0 0 -32.4318 -8.48399 -12.7645 -83.5407 -1756.66 351.525 0 0 0 0.5 
667 2 2 0.0553101 2.83332 4.29018 -65 0 0 -209.978 -7.7191 -25.753 -1483.87 217.479 -634.156 0 0 0 0.5 
520 2 2 0.733031 3.71013 4.60238 64 0 1 -98.7548 -21.7889 -5.26277 1397.39 -688.134 1334.35 0 0 0 0.5 
708 2 2 4.44902 0.0880766 4.37372 -194 0 1 -496.225 22.2483 -10.5254 1422.81 -930.836 2265.32 0 0 0 0.5 
938 2 2 2.97857 4.01582 5.19734 -7 0 -1 -85.3348 2.13073 -18.9997 -605.92 -1413.1 1023.67 0 0 0 0.5 
949 2 2 2.65943 4.83436 5.13564 97 0 1 -5.69668 -3.58198 -13.8453 -2253.46 3072.87 -1376.86 0 0 0 0.5 
336 1 1 4.3576 1.02716 5.93615 82 0 0 -349.447 -12.5697 -19.8493 766.286 -954.439 -1070.77 0 0 0 0.5 
139 1 1 3.68535 2.95858 5.16672 -70 0 0 -195.992 9.27092 5.52777 2811.17 59.6329 -1494.72 0 0 0 0.5 
621 2 2 3.5806 2.0852 5.46097 -6 0 0 -247.066 2.44545 -4.99923 -586.993 -803.251 -39.7763 0 0 0 0.5 
588 2 2 2.85468 1.66944 4.00862 127 1 1 -306.729 -9.27509 18.9464 254.388 -1386.92 -337.018 0 0 0 0.5 
38 1 1 3.26812 4.59451 4.1738 -78 0 1 -66.5042 6.96737 -15.1303 -659.321 -1064.68 -173.326 0 0 0 0.5 
86 1 1 4.04566 1.80211 4.87184 -47 0 1 -258.853 -13.6131 -22.7928 1108.55 -2214.16 316.891 0 0 0 0.5 
352 1 1 2.84214 3.12938 5.54563 -107 0 0 -140.167 -15.6019 0.556145 -3207.54 1327.42 2451.37 0 0 0 0.5 
590 2 2 1.20272 4.92378 5.84371 -36 0 -1 31.5617 -4.40835 0.107086 2085.6 -689.374 -522.071 0 0 0 0.5 
600 2 2 0.636925 4.53933 4.4253 -24 0 1 0.835713 -2.27244 4.7798 1157.5 470.855 688.333 0 0 0 0.5 
697 2 2 2.69944 1.35011 4.75855 -58 0 -1 -375.975 -0.285909 39.9926 -140.9 -1768.94 -1589.11 0 0 0 0.5 
875 2 2 0.344653 3.23786 5.37579 -72 0 1 -131.806 5.29215 -7.58249 736.307 -291.783 86.6666 0 0 0 0.5 
905 2 2 3.68631 3.77742 5.57567 -86 0 0 -119.761 17.6726 29.1566 1905.25 -732.513 973.248 0 0 0 0.5 
95 1 1 3.40362 1.14934 5.69493 -53 0 0 -323.353 -10.3002 -12.8859 -1232.94 1209.91 -617.638 0 0 0 0.5 
860 2 2 3.29436 4.80033 5.71884 -36 0 1 -8.29943 0.846762 -18.4194 783.278 -1078.64 -1001.84 0 0 0 0.5 
744 2 2 3.64646 2.51571 4.33529 249 1 0 -210.35 -3.25566 18.4043 -307.318 1067.93 -1636.95 0 0 0 0.5 
983 2 2 4.16345 0.680763 4.36087 -34 0 -1 -426.174 33.2582 -4.17925 -2333.34 3511.36 -826.471 0 0 0 0.5 
548 2 2 4.87563 1.7804 5.43156 -170 0 1 -302.342 13.9466 18.8456 1291.23 -663.193 -2581.21 0 0 0 0.5 
399 1 1 4.87348 2.16183 4.5811 -140 0 -1 -264.322 14.756 1.6821 814.22 43.5496 543.629 0 0 0 0.5 
154 1 1 2.17582 0.262044 6.11343 -28 0 0 -475.758 14.1548 -19.5766 -58.2919 750.953 -669.289 0 0 0 0.5 
759 2 2 2.17362 3.08728 7.33206 -99 0 -1 -139.108 -24.0865 -4.98848 -83.5432 188.5 -55.2054 0 0 0 0.5 
106 1 1 0.913666 3.18497 7.15063 -84 0 -1 -160.945 -0.678319 8.87739 -532.395 -1741.74 124.651 0 0 0 0.5 
184 1 1 2.70265 3.84002 6.3186 52 0 0 -63.1129 -13.9708 -13.9413 748.3 -138.663 370.691 0 0 0 0.5 
812 2 2 0.0993883 0.836123 7.70316 -4 0 1 -416.46 6.46324 8.41977 1148.53 492.953 1434.65 0 0 0 0.5 
314 1 1 4.6409 1.64099 7.36021 -123 0 0 -279.974 0.662225 -8.40309 2622.61 864.422 49.5171 0 0 0 0.5 
249 1 1 4.09107 4.6217 6.1444 -99 0 1 -26.6089 2.55526 16.8183 -1680.42 2403.38 185.846 0 0 0 0.5 
311 1 1 0.251281 4.20154 7.49729 -40 0 0 -69.8865 12.1474 37.6703 1374.79 -33.5706 1648.15 0 0 0 0.5 
208 1 1 3.65921 0.167637 7.47221 -67 0 1 -457.211 -12.6682 0.932945 -1656.49 565.663 336.99 0 0 0 0.5 
8 1 1 0.860449 2.22048 7.39703 133 1 1 -221.208 -18.3446 2.66562 51.5365 934.042 -238.616 0 0 0 0.5 
756 2 2 3.31283 0.97621 7.61741 -151 0 1 -413.651 21.8055 8.58798 -199.206 -53.1353 1063.22 0 0 0 0.5 
82 1 1 1.80109 3.92782 7.0859 21 0 -1 -103.372 2.71154 -18.9282 1434.49 670.95 -675.796 0 0 0 0.5 
400 1 1 1.57807 0.587993 7.41073 -161 0 0 -434.761 -0.0129776 2.47554 859.617 82.9259 -160.64 0 0 0 0.5 
148 1 1 4.32018 2.8183 6.85386 -50 0 0 -187.518 5.08607 -17.2956 -768.641 432.821 531.355 0 0 0 0.5 
33 1 1 1.70573 0.221184 6.72687 317 1 0 -483.108 -8.05319 -6.80062 -625.458 -892.257 -595.983 0 0 0 0.5 
550 2 2 2.53297 4.00058 7.70057 43 0 0 -96.4251 -6.05343 -13.751 203.025 249.671 554.71 0 0 0 0.5 
168 1 1 0.640164 0.621572 6.84946 130 1 0 -440.309 25.3802 15.626 256.72 40.7951 196.438 0 0 0 0.5 
580 2 2 0.881019 2.71059 6.34416 276 1 -1 -198.164 -8.8296 -6.05353 96.8932 -131.62 637.04 0 0 0 0.5 
430 1 1 2.02427 1.63848 7.39638 -45 0 0 -334.097 21.0641 -30.4895 -11.8147 -287.586 396.087 0 0 0 0.5 
662 2 2 2.46528 0.540149 7.50076 -156 0 1 -415.544 -3.40488 -22.4577 786.704 -208.813 -27.6671 0 0 0 0.5 
42 1 1 1.39549 2.05498 6.3589 -110 0 0 -213.827 -8.39177 13.1841 887.208 -2502.25 -559.836 0 0 0 0.5 
470 1 1 3.61311 2.08731 6.34109 169 1 -1 -259.766 12.272 -6.9058 3393.66 -2128.16 788.197 0 0 0 0.5 
31 1 1 3.9955 1.37148 6.63889 229 1 0 -305.253 -15.2236 -0.926672 518.898 -1537.3 -122.935 0 0 0 0.5 
575 2 2 3.39617 3.44958 6.70677 236 1 -1 -70.7122 -5.61081 9.35329 803.907 664.822 50.7866 0 0 0 0.5 
125 1 1 0.430583 3.34367 6.22012 -388 -1 0 -165.057 7.43364 3.26346 3517.9 -677.548 1775.63 0 0 0 0.5 
162 1 1 1.21423 4.02931 7.85605 258 1 -1 -72.5868 -11.8913 1.6483 -411.552 -658.375 -339.833 0 0 0 0.5 
854 2 2 4.50427 0.259886 7.59176 60 1 -1 -463.732 1.70674 -9.98021 -362.975 2594.15 -669.64 0 0 0 0.5 
201 1 1 -0.0119935 3.00671 7.13566 -93 0 0 -182.115 3.597 -10.6453 1394.87 377.359 1425.02 0 0 0 0.5 
276 1 1 4.31591 2.82959 7.76523 -318 -1 0 -208.83 -8.50119 -1.29697 109.242 553.971 1040.09 0 0 0 0.5 
978 2 2 3.51625 4.51112 7.04177 17 0 -1 -49.2411 5.24925 4.43956 2688.98 -1041.35 1238.69 0 0 0 0.5 
769 2 2 2.81844 2.57514 6.33946 -74 0 1 -198.564 -11.9126 21.4029 -3566.44 2468.35 -547.31 0 0 0 0.5 
945 2 2 3.33361 2.23447 7.89108 138 1 -1 -255.828 -3.18679 19.3206 -1817.83 1720.6 -1245.03 0 0 0 0.5 
457 1 1 2.11012 4.749 6.64933 71 0 -1 -7.79759 -2.89339 -18.9764 151.416 -505.59 1041.2 0 0 0 0.5 
435 1 1 0.457596 4.15623 6.07895 59 0 -1 -83.4841 16.0389 -29.0631 7.00116 -665.434 1709.98 0 0 0 0.5 
441 1 1 1.09132 0.844417 7.99313 15 0 0 -425.888 10.0913 -3.76389 -485.909 910.976 1336.77 0 0 0 0.5 
862 2 2 3.36842 3.16838 7.91655 -55 0 0 -185.626 19.5987 8.94476 2351.35 -1360.45 -3608.43 0 0 0 0.5 
592 2 2 3.74896 1.81448 7.27028 -48 0 0 -259.945 -13.1809 5.43193 -1917.44 -422.87 385.6 0 0 0 0.5 
676 2 2 4.38459 3.71088 6.38094 128 0 -1 -136.11 21.2274 22.0528 751.618 -2822.88 475.014 0 0 0 0.5 
770 2 2 0.879586 3.99389 6.89204 -73 0 0 -100.503 13.446 -12.7861 3249.34 -2049.9 888.777 0 0 0 0.5 
525 2 2 1.31814 4.77725 6.77042 -334 -1 -1 -15.9665 -14.6864 1.74721 -1403.15 -432.789 611.032 0 0 0 0.5 
199 1 1 0.121661 4.48508 6.64868 -239 0 -1 -32.6025 1.85562 31.3273 -1487.68 2104.36 1731.21 0 0 0 0.5 
830 2 2 2.74694 4.96887 7.30362 404 1 -1 -16.2349 24.3055 -10.4047 -661.59 1188.98 224.916 0 0 0 0.5 
748 2 2 3.44565 2.60424 7.0265 301 1 -1 -185.325 -0.728982 24.2042 -1256.19 1524.23 635.662 0 0 0 0.5 
479 1 1 4.10204 3.87841 7.3392 81 0 0 -93.3401 -14.1087 16.0888 513.003 -1050.16 483.87 0 0 0 0.5 
245 1 1 2.96962 4.80868 6.46121 -24 0 0 1.96035 -5.0937 0.0371457 -1131.51 620.928 -2068.21 0 0 0 0.5 
464 1 1 3.04289 1.03192 6.74935 5 0 0 -330.334 -9.71046 -14.7302 -335.816 69.3081 -1079.89 0 0 0 0.5 
413 1 1 4.95848 0.340533 6.76087 -74 0 0 -394.879 -21.8636 4.26478 -1389.69 -384.545 1123.27 0 0 0 0.5 
717 2 2 1.6355 1.56165 8.75314 -137 0 0 -361.528 15.3329 -13.8046 1137.51 -656.626 -479.063 0 0 0 0.5 
544 2 2 3.70895 3.97853 9.53286 -32 0 0 -143.651 -4.5963 -15.0382 259.43 -1581.05 71.4804 0 0 0 0.5 
291 1 1 2.25654 0.0185949 8.21102 -180 0 0 -493.088 -9.72635 -20.5563 282.315 -303.767 -2144.04 0 0 0 0.5 
849 2 2 4.30111 4.48894 8.6627 42 0 0 -54.7124 32.3299 3.08606 1469.73 763.027 -1342.61 0 0 0 0.5 
462 1 1 1.80943 0.458038 9.68558 164 1 -1 -472.51 -6.90334 19.6672 2098.34 -1410.97 1288.99 0 0 0 0.5 
861 2 2 0.340332 1.61579 8.09111 -89 0 0 -368.839 28.6575 -12.6948 1519.87 -4057.53 -1452 0 0 0 0.5 
722 2 2 1.71151 0.302256 8.65327 -161 0 -1 -484.508 12.4644 -10.4722 750.579 2291.01 -2364.2 0 0 0 0.5 
694 2 2 2.37297 2.24057 8.48199 -257 0 0 -314.814 10.2017 -0.794214 0 0 0 0 0 0 0.5 
391 1 1 1.63671 3.27569 8.19373 -19 0 -1 -107.98 -26.9685 15.446 303.198 -540.842 242.337 0 0 0 0.5 
536 2 2 3.8626 1.75876 9.80912 -233 0 0 -365.955 -2.07236 -23.8838 678.543 -1074.78 -340.762 0 0 0 0.5 
969 2 2 3.54985 0.789513 9.6738 173 1 0 -443.766 3.91261 -21.552 2357.53 -363.63 1696.79 0 0 0 0.5 
884 2 2 0.136949 0.170644 9.25234 115 1 0 -474.465 -9.10774 -15.4192 -140.608 1307.25 -1349.03 0 0 0 0.5 
976 2 2 2.12243 4.24232 9.82329 68 0 -1 -44.9741 -21.546 16.1027 -2819.53 2177.7 -438.506 0 0 0 0.5 
795 2 2 2.42129 3.77818 9.15309 -104 0 -1 -91.8162 -13.6734 -9.91272 -860.973 261.658 219.05 0 0 0 0.5 
932 2 2 4.71407 2.00633 8.46773 -110 0 0 -298.76 19.7359 6.81322 250.739 739.554 -1155.31 0 0 0 0.5 
283 1 1 2.19396 2.69617 9.58426 -188 0 0 -240.656 -11.8918 7.46475 -3088.76 880.422 -97.1315 0 0 0 0.5 
280 1 1 4.01107 1.71026 8.14502 -174 0 0 -286.687 -15.4355 17.7671 386.045 -1541.83 -328.126 0 0 0 0.5 
426 1 1 0.57675 0.841899 8.67417 190 1 -2 -440.94 11.4523 5.66665 -2432.8 302.126 -637.253 0 0 0 0.5 
689 2 2 1.01186 1.88477 8.98372 -171 0 0 -342.458 18.37 -8.21268 -1446.53 1422.17 -542.284 0 0 0 0.5 
701 2 2 1.14596 0.476351 9.07069 149 1 -1 -465.543 -12.615 11.0191 -1316.09 177.305 2744.75 0 0 0 0.5 
147 1 1 0.62159 1.48741 9.84786 -150 0 -1 -375.75 6.66377 0.382751 -1547.75 -2776.87 2199.25 0 0 0 0.5 
842 2 2 0.255033 2.16088 9.45237 -157 0 0 -316.111 6.01221 -11.9895 -123.996 1017.61 -1137.33 0 0 0 0.5 
721 2 2 2.00171 1.08953 8.15244 276 1 0 -399.605 1.12311 -19.9744 -168.935 -1198.48 -809.711 0 0 0 0.5 
711 2 2 1.40843 1.21227 9.57709 198 1 -1 -392.74 7.70473 -7.72526 956.853 370.344 -766.149 0 0 0 0.5 
496 1 1 3.58831 4.74646 9.26372 89 0 -1 -20.4718 11.6865 -14.2415 -416.484 -687.988 207.696 0 0 0 0.5 
226 1 1 2.70574 4.74938 9.19353 -256 -1 0 -31.9422 5.54679 25.1298 -499.503 1504.32 1691.93 0 0 0 0.5 
561 2 2 2.79811 1.26631 8.60947 117 1 -1 -382.196 0.589064 -21.2041 -311.163 266.293 473.5 0 0 0 0.5 
467 1 1 1.10306 4.82356 8.15446 425 1 0 12.4887 -10.7093 35.4788 -265.818 -1758.07 1656.38 0 0 0 0.5 
241 1 1 0.306364 3.27356 9.00338 388 1 1 -186.315 -1.72956 14.0509 -31.1271 129.254 267.765 0 0 0 0.5 
111 1 1 3.60408 0.104517 9.1379 175 1 -1 -507.931 14.3793 8.69079 -743.565 545.115 -2062.6 0 0 0 0.5 
865 2 2 3.51525 4.12727 8.31343 -131 0 -1 -39.7725 -17.6819 -21.2773 1564.72 -404.181 -298.09 0 0 0 0.5 
955 2 2 2.8293 3.32339 8.73091 -1 0 1 -118.667 -34.1876 -33.8762 -4683.6 5593.09 2219.16 0 0 0 0.5 
67 1 1 0.519244 4.20749 8.62797 348 1 1 -77.2321 -0.0770688 8.15576 532.294 984.214 -844.105 0 0 0 0.5 
427 1 1 4.3774 4.73676 9.90821 -33 0 -1 -15.8461 -21.8712 -7.65692 -15.3519 78.1648 29.6305 0 0 0 0.5 
53 1 1 4.33896 3.21166 9.38154 77 0 0 -219.7 30.754 9.05883 -491.897 1157.68 -403.645 0 0 0 0.5 
628 2 2 1.41473 4.14006 8.88981 42 0 1 -78.5859 4.40269 31.4297 373.722 -28.1398 109.279 0 0 0 0.5 
665 2 2 0.992697 2.94602 9.90244 209 1 0 -232.577 11.0836 -24.6743 91.7282 -363.203 881.966 0 0 0 0.5 
541 2 2 0.203689 3.69991 9.88663 278 1 -1 -167.209 8.67205 20.4226 1423.53 295.242 -1338.51 0 0 0 0.5 
461 1 1 2.93647 2.48452 9.60761 377 1 -1 -257.015 -7.72848 -10.5641 1769.61 -935.863 1036.22 0 0 0 0.5 
813 2 2 3.98798 0.625942 8.44327 259 1 0 -454.875 9.14677 11.8579 -706.736 -1607.16 -935.869 0 0 0 0.5 
298 1 1 2.82319 4.35395 8.48761 -166 0 -1 -52.9714 -21.0119 10.8204 -634.102 -1380.68 -122.016 0 0 0 0.5 
809 2 2 2.34627 1.68898 9.36164 247 1 -1 -382.923 12.8251 -6.35852 279.578 182.913 58.7117 0 0 0 0.5 
863 2 2 -0.00977963 2.44529 8.45298 -87 0 0 -243.671 -9.00553 -1.09361 -1279.07 3588.32 1818.01 0 0 0 0.5 
19 1 1 2.9734 1.261 9.84278 -173 0 -1 -391.253 11.4032 -2.28636 -679.567 1951.45 926.615 0 0 0 0.5 
132 1 1 3.69694 1.35053 8.95495 21 0 0 -379.527 14.3096 -10.4772 -1229.33 1173.9 603.532 0 0 0 0.5 
880 2 2 4.43274 3.67676 8.51165 -10 0 0 -175.94 10.2151 5.87204 -675.752 -539.268 -201.495 0 0 0 0.5 
98 1 1 2.72308 3.51968 9.91356 -68 0 -1 -106.061 -37.336 14.0529 376.361 1472.01 -2138.93 0 0 0 0.5 
846 2 2 2.56114 4.92025 8.13032 -36 0 0 -7.43102 9.28482 -7.48054 522.42 -551.628 -737.042 0 0 0 0.5 
940 2 2 3.31215 2.45058 8.76908 -45 0 -2 -297.928 18.5926 1.30207 4281.51 -5816.2 -344.314 0 0 0 0.5 
374 1 1 4.64124 2.5662 9.11914 -38 0 0 -257.52 -8.4593 15.7073 207.296 -110.07 -367.026 0 0 0 0.5 
660 2 2 4.783 2.67432 9.9961 -40 0 0 -243.46 -7.65889 4.84718 236.397 -696.096 796.374 0 0 0 0.5 
736 2 2 4.92992 0.329835 8.38068 -299 0 1 -478.092 19.3106 -9.89823 1286.52 497.61 -494.116 0 0 0 0.5 
529 2 2 3.49444 6.7777 1.3506 -19 0 1 168.41 -5.70498 0.542964 2694.85 -1126.91 1909.04 0 0 0 0.5 
51 1 1 2.94306 9.76726 1.70995 -47 -1 1 463.108 22.489 7.22292 -1915.77 350.392 1121.51 0 0 0 0.5 
571 2 2 3.30708 6.118 1.98838 66 0 1 73.9691 -10.8903 20.7781 -115.143 -224.92 -870.899 0 0 0 0.5 
466 1 1 4.29042 9.25441 1.94461 156 0 0 424.274 1.16557 -2.71642 -3294.05 2103.44 854.03 0 0 0 0.5 
493 1 1 1.06856 9.06661 0.864957 246 0 0 420.37 -4.80024 13.2807 -2418.35 -186.833 1621.42 0 0 0 0.5 
9 1 1 3.1846 5.81082 1.23137 370 1 0 50.537 -20.0581 17.8708 1572.94 -2262.71 244.313 0 0 0 0.5 
514 2 2 3.68272 7.94247 1.01862 -148 -1 0 304.642 -3.82217 -35.8229 1093.13 -161.233 1277.66 0 0 0 0.5 
679 2 2 2.6903 7.03158 1.792 11 0 0 180.29 8.55569 -21.1438 668.128 -1767.05 2541.28 0 0 0 0.5 
387 1 1 0.34646 8.62473 1.63141 -270 -1 0 384.848 -6.42252 -11.5287 2079.95 -893.959 1949.38 0 0 0 0.5 
841 2 2 3.76474 9.84847 1.19515 110 0 0 403.213 17.7826 9.91625 1128.46 455.486 -888.289 0 0 0 0.5 
681 2 2 3.86724 7.55744 1.72865 44 0 1 264.678 2.14218 -15.2739 -645.173 -2173.51 -1465.15 0 0 0 0.5 
801 2 2 4.4584 8.36692 1.08452 -330 -1 -1 324.746 17.2525 -14.6802 233.895 -1039.64 897.95 0 0 0 0.5 
325 1 1 1.19773 9.80226 0.185408 176 0 -1 507.884 -13.9072 -6.78589 1098.82 -215.31 444.194 0 0 0 0.5 
906 2 2 3.38539 9.19482 0.222233 136 0 1 394.102 24.5841 -23.8733 -1931.69 954.337 -881.48 0 0 0 0.5 
349 1 1 2.26132 5.10075 1.29558 82 0 1 -21.6148 -29.4458 0.276094 -2820.18 -1017.82 448.885 0 0 0 0.5 
789 2 2 3.326 5.86097 0.393019 -71 0 0 97.8337 3.58047 -9.53942 -1192.18 -971.487 2940.19 0 0 0 0.5 
191 1 1 4.09711 8.80406 0.564295 200 0 0 354.148 23.0822 -19.804 30.9028 832.086 64.1868 0 0 0 0.5 
773 2 2 1.97412 9.58857 1.4136 -158 -1 0 483.577 -15.2679 -24.2447 367.704 -475.72 700.304 0 0 0 0.5 
856 2 2 2.97773 7.22225 0.900575 -245 -1 1 190.908 18.2443 1.81341 -866.418 1405.51 -2667.78 0 0 0 0.5 
728 2 2 1.23322 7.35457 1.57878 43 0 1 236.051 -22.9643 12.6513 -1135.8 153.954 -1547.58 0 0 0 0.5 
335 1 1 3.51811 8.13042 0.215096 -168 -1 1 335.058 17.0273 -5.01469 -1087.7 -996.225 671.836 0 0 0 0.5 
171 1 1 2.34224 5.03913 0.342916 -14 0 0 -14.0869 -5.69403 -12.7545 131.322 434.428 -129.287 0 0 0 0.5 
261 1 1 0.106478 6.49645 0.660428 11 0 0 161.002 7.06677 -11.819 1054.41 -372.132 -1345.53 0 0 0 0.5 
847 2 2 2.79626 6.23212 0.816654 43 0 0 125.811 8.37775 -19.8578 -1129.39 1837.89 -1070.34 0 0 0 0.5 
197 1 1 3.22374 8.25445 1.67783 168 0 0 326.487 20.4004 -17.4206 -508.193 1302.57 -67.7811 0 0 0 0.5 
401 1 1 1.72801 8.67441 0.316498 81 0 0 354.561 8.33157 -4.42106 3500.06 -1918.67 659.315 0 0 0 0.5 
212 1 1 1.62488 5.49534 0.3819 213 0 0 42.3566 -3.39069 -31.8556 -2524.37 -144.296 2707.9 0 0 0 0.5 
814 2 2 4.52857 6.78584 1.28923 -299 -1 2 160.572 -14.667 -12.984 -649.332 -609.47 579.515 0 0 0 0.5 
83 1 1 1.49712 7.0781 0.68015 187 0 0 210.763 4.51779 -36.4731 -2286.92 1683.17 319.381 0 0 0 0.5 
385 1 1 1.27336 5.62801 1.28803 -323 -1 0 65.1831 -14.2884 -13.433 -2551.54 23.4165 -872.382 0 0 0 0.5 
703 2 2 2.08729 6.63173 1.09811 -226 -1 0 168.497 -4.73961 -19.2431 -1281.96 678.765 1888.51 0 0 0 0.5 
110 1 1 2.08235 8.31937 1.11161 -154 -1 1 323.749 8.51835 17.101 -210.487 -208.862 -403.674 0 0 0 0.5 
962 2 2 3.80478 7.12532 0.447277 -211 -1 0 202.954 28.1791 4.76264 1031.31 391.08 932.506 0 0 0 0.5 
341 1 1 0.453683 7.36208 0.377473 23 0 0 231.565 -1.08188 0.238098 1181.55 -3356.95 -374.186 0 0 0 0.5 
825 2 2 0.419449 6.75448 1.93615 157 0 -1 152.787 16.9847 10.377 622.691 -103.611 -890.399 0 0 0 0.5 
874 2 2 1.29472 8.20329 1.61142 155 0 0 309.092 15.9353 5.07803 -56.7504 -1856.48 -1317.67 0 0 0 0.5 
137 1 1 2.28776 6.91477 0.103323 -254 -1 0 235.23 -20.5637 12.7778 534.289 80.1153 -249.012 0 0 0 0.5 
403 1 1 0.0706468 5.59183 0.35403 -9 0 0 66.1745 -10.853 -23.7143 1690.64 -1148.47 136.469 0 0 0 0.5 