# vtk DataFile Version 4.2
Generated by LIGGGHTS
ASCII
DATASET POLYDATA
POINTS 1000 float
0.554129 1.6624 0.290024 0.999862 1.4379 1.2746 2.92995 1.69775 1.46494 
2.56384 3.19527 0.425701 0.899257 2.32069 1.53263 3.95332 3.83196 0.74123 
3.90736 0.350631 0.541275 1.35339 1.65242 0.393042 2.32575 4.31107 1.65208 
2.51839 0.510974 0.808461 1.63181 2.41172 1.16195 3.14846 3.9141 1.96939 
2.50045 3.38688 1.42295 3.07185 0.0394107 0.186066 1.75939 3.25474 0.854948 
4.49879 4.78416 0.717133 2.10943 4.12149 0.665875 2.88582 0.816244 1.59522 
3.33628 1.54938 0.21815 2.88476 4.00984 0.0586162 3.60667 4.61111 0.379742 
3.27372 3.09639 0.860742 0.697156 4.87376 0.379773 -0.0126413 4.2716 0.644988 
4.5588 2.65143 1.86609 2.64594 4.90195 0.940607 3.05081 4.0479 1.00495 
1.522 4.75283 1.89614 0.713197 4.23255 1.34706 4.21823 1.3403 0.546381 
3.92107 2.55745 0.416433 0.00186568 2.12584 0.718225 1.50609 4.79204 0.913562 
3.71908 2.50112 1.40586 1.51344 3.7558 1.59439 0.491173 3.56944 0.633497 
1.07291 2.97726 0.396318 3.78333 1.04976 1.68315 3.68531 4.64306 1.45084 
0.236337 2.62801 1.47112 3.14243 0.217679 1.1922 4.56661 3.42074 1.28962 
4.55879 4.29426 1.63711 2.49764 2.83945 2.15881 2.66296 0.449575 2.38993 
2.26172 2.89089 3.92576 2.46156 4.02503 3.33469 2.4027 0.500312 3.3277 
0.308081 1.32946 2.81647 1.45384 2.73445 3.62814 1.52673 2.96633 2.1415 
3.25387 1.7402 3.34008 1.73057 2.25841 2.85636 2.1538 1.47698 3.89343 
4.6228 0.80452 2.19023 1.45784 1.29769 2.43809 3.01219 4.53389 2.70397 
1.85773 3.31086 3.0137 0.160363 0.619682 2.46756 4.54981 2.65652 2.89645 
2.79998 2.4796 3.4112 2.82762 3.37035 2.85251 1.60306 1.07906 3.09677 
0.90741 2.42276 2.75913 3.71421 1.75556 2.10264 2.24691 1.94883 2.11891 
1.04408 1.8193 3.5466 0.767208 1.66514 2.16551 2.12122 0.916564 3.33155 
4.89635 4.65822 2.4413 1.79054 4.06171 2.46988 0.0142717 3.95777 2.14021 
4.35032 3.56462 3.03783 3.73947 4.96509 3.23625 0.031519 2.30431 2.73585 
3.94245 3.37177 2.0278 3.60932 2.5178 2.46434 1.09896 3.79475 3.26456 
3.47434 4.0264 3.29714 4.63319 4.6479 3.3744 1.75882 4.5929 3.28402 
4.15883 1.34969 2.86766 0.0812942 4.90999 2.24488 3.55776 3.1459 3.45427 
3.97969 4.25698 2.48261 0.635228 2.88787 3.40407 4.2049 3.94543 3.9167 
0.22231 3.7674 3.62495 0.878896 4.70356 3.53416 0.70598 3.39121 2.16515 
0.844016 4.43303 2.5535 4.94755 3.23864 3.68948 0.0338965 0.157489 4.53716 
1.41819 2.35927 4.45139 1.05806 0.762541 4.84736 0.348644 1.57771 5.11695 
2.65765 2.42419 5.4414 2.29891 2.17106 4.32505 1.77793 0.432398 4.23953 
0.949956 1.41358 4.31859 0.500245 0.342895 5.62843 3.08653 3.9816 4.8475 
1.1268 1.77122 5.14548 3.15714 2.8606 4.54101 3.26896 1.81749 5.70169 
2.11239 4.08862 4.88163 0.448445 0.901299 5.17084 2.44774 3.88273 5.75754 
1.39271 2.57572 5.42032 1.87628 3.53228 4.14597 0.22421 1.47371 4.18228 
4.40356 4.89366 4.41185 2.33809 3.18505 4.97607 2.46816 4.5188 4.11628 
2.49109 0.645066 4.79013 2.93483 1.33511 4.2086 3.82499 1.80308 4.94624 
4.66439 2.69324 5.45025 1.57486 3.52703 5.48692 1.19218 4.74832 4.95072 
3.5601 3.48289 5.53673 0.599901 2.39956 4.27969 1.62871 4.44155 5.73891 
3.44165 4.53883 4.09077 3.96558 4.29275 5.0289 4.48354 1.94453 5.9463 
4.4612 3.5485 5.0794 1.48423 4.31564 4.16883 2.91445 3.61182 4.02316 
3.07101 4.68273 5.63806 3.17396 0.587013 5.44213 0.912265 3.37823 4.27107 
4.15126 3.06914 4.30546 4.44387 2.23006 4.32736 0.52861 4.27018 4.34973 
3.95184 0.0712845 5.83632 0.602836 4.38251 5.8563 0.61091 2.82155 5.14198 
3.75444 2.66462 5.18906 0.865161 1.90244 5.99988 4.31036 1.13279 5.69154 
0.752884 3.78978 5.1229 4.94401 4.41247 5.19578 4.63211 2.77703 7.0511 
0.87882 1.39232 7.59758 1.97886 2.93594 6.10381 2.53925 0.544083 7.66426 
3.51967 2.70898 7.18635 1.9333 0.713534 7.18494 4.23453 3.76254 6.20943 
2.87437 1.6869 7.71694 1.76602 3.74888 7.41106 2.5325 4.55407 6.43286 
1.02329 0.0811517 6.41533 2.39877 2.32952 6.67616 2.32631 3.17291 7.96313 
1.42726 2.2425 6.93286 3.08791 3.02754 6.34763 0.368084 1.14875 6.25579 
2.3342 3.17337 6.97736 1.2027 0.788546 6.64031 2.27679 2.26011 7.64914 
4.72723 4.62957 6.08637 1.71725 1.96142 6.09118 2.62765 4.24233 7.31554 
1.85087 1.51134 7.14447 3.6386 4.8955 6.44936 0.756228 3.73971 6.94144 
1.01077 2.90738 6.99043 0.337983 1.96603 6.8219 1.61334 3.79279 6.44195 
1.68656 4.82258 6.71453 0.724455 4.6387 6.80386 0.526222 2.56047 6.04804 
0.613607 4.90777 7.99827 3.99804 2.76789 6.13978 3.28842 3.98695 6.28388 
3.48028 0.517697 7.61966 3.97805 1.87564 6.74245 0.032293 3.12138 6.62473 
4.28081 3.68246 7.17663 4.07291 0.123048 7.19706 4.85562 4.74277 7.05423 
0.779452 3.43969 6.04276 0.496886 3.98211 7.80158 1.32772 4.54612 7.55492 
3.23103 3.55102 7.58014 3.68734 4.3932 7.26227 4.79505 0.168997 7.7498 
2.67558 2.40359 9.81986 2.36457 0.779205 9.29155 4.34268 4.88443 9.02751 
0.22854 1.14405 9.28179 2.42321 4.78603 9.97019 0.276931 0.367946 8.29518 
1.02575 0.643682 8.705 2.75244 3.84635 9.12743 2.57255 0.52036 9.98494 
4.42624 3.21225 9.70255 1.86074 3.48736 9.92723 0.199628 0.323505 9.22834 
3.43558 1.31212 8.78987 2.08013 2.98007 9.10898 1.54638 2.66564 8.30552 
1.23772 1.68322 8.48907 0.356002 2.00503 9.31174 2.20681 4.08482 8.25079 
3.16494 3.09915 8.46733 3.26882 2.08703 8.52813 3.32955 4.88744 8.86274 
1.25334 4.07307 8.38418 1.20189 4.89323 8.9356 0.912567 3.21131 8.69847 
0.268372 4.72906 9.1411 3.95993 0.575023 8.93916 3.47924 3.31812 9.55914 
3.1045 0.605299 8.617 0.296542 3.86568 8.74315 3.99681 2.84295 8.89093 
4.42801 2.1285 9.05102 0.585019 4.07385 9.77988 2.10287 4.59176 9.07891 
4.29449 2.32534 8.05564 1.47547 4.63094 9.89912 3.62475 4.27853 9.46737 
4.42968 4.1608 9.95563 0.00969584 2.94364 8.44696 0.9522 2.82518 9.51171 
1.4023 3.89288 9.26117 4.08793 4.22301 8.14159 4.39197 3.88806 8.99373 
4.19569 3.2604 8.03206 3.1661 4.13188 8.32918 3.54505 0.736013 9.68858 
0.0910552 2.57642 9.93007 4.93593 4.64743 8.00415 4.94036 3.15269 8.68402 
4.7372 6.49419 0.920453 2.18923 6.49264 0.783143 2.93238 5.0827 1.92078 
4.61709 7.15593 0.364255 4.45526 6.16203 1.82504 1.25117 7.53048 1.84693 
3.13731 9.25423 0.243239 0.0197031 9.08841 1.52655 2.38645 5.74224 1.38351 
3.78741 6.27546 0.791178 4.46879 5.24342 1.6117 2.15852 7.3516 1.57146 
1.87468 6.97819 0.0534827 3.2732 5.50166 0.494814 4.67545 8.54852 1.54945 
4.56126 7.94725 1.69069 3.57184 5.61045 1.43229 1.45622 5.72187 1.08565 
3.55314 6.42854 1.98372 1.28416 6.52396 1.58507 2.81937 9.24813 1.06433 
2.74515 6.22183 0.0625519 4.31412 5.63566 0.715463 4.35812 7.80224 0.72108 
0.530147 5.90193 1.01231 0.821752 5.30755 1.73795 2.15463 5.53059 0.431595 
1.46972 6.05606 0.158984 3.64903 6.92978 0.347616 0.159007 5.01165 1.15628 
4.0506 7.03427 1.34558 1.45416 7.54053 0.876713 0.67824 7.12083 0.368865 
0.362471 7.94304 0.39399 0.926876 8.55607 1.32432 3.78438 8.94748 0.995252 
0.611385 7.57753 1.18894 0.0515725 6.5976 1.23217 2.98909 7.31074 3.04368 
4.26771 6.40545 3.78107 4.01055 8.36713 2.46954 2.93805 6.27969 3.48472 
3.0604 5.8537 2.59992 3.99152 7.33357 2.29119 2.45553 9.20659 3.57869 
3.52318 8.92588 2.69335 3.04253 8.96385 3.72485 1.30484 9.83572 3.63136 
2.81139 5.17308 3.4524 4.01382 9.07091 3.63052 1.85716 8.71184 3.87143 
4.71719 5.57555 3.53205 1.88642 7.62345 2.5486 0.759999 8.85604 2.30938 
2.03281 6.79365 3.37695 2.52767 8.30643 3.03811 2.58765 8.02008 3.91048 
-0.0363207 8.88489 2.56283 0.92542 7.67759 2.70837 3.84802 5.36067 2.34536 
3.6635 6.64855 2.92657 4.49024 8.18228 2.70657 2.20363 5.0217 2.55925 
1.68992 5.71749 2.10199 0.0622199 5.08931 3.39325 2.02269 9.686 3.6476 
2.61474 6.63973 2.16816 3.96885 8.19778 3.92929 0.0423267 7.60866 3.17434 
0.2562 6.77756 2.80974 0.324497 7.37579 2.04133 0.452003 6.31318 2.03874 
0.54555 7.20065 3.86145 1.16607 6.40831 2.77014 1.9891 5.86001 3.04722 
1.31993 7.3376 3.37768 4.45966 6.19316 2.8391 1.14058 8.48858 3.10559 
0.612955 6.30755 3.5859 1.18927 5.62662 3.57885 0.777035 5.48012 2.69873 
4.80034 6.95936 2.19237 4.88421 7.45221 3.04508 3.23761 7.00042 5.26464 
3.75187 5.53857 4.05003 2.04434 6.32847 4.34951 2.46753 7.43617 5.65247 
2.13815 7.75467 4.93535 2.21363 8.59472 5.6113 3.40979 5.10642 4.86057 
1.10777 9.57779 4.50446 1.19032 5.18889 5.97776 2.38234 7.26392 4.32731 
2.57134 9.93101 5.15527 0.860745 9.06219 4.83719 2.05714 8.54716 4.74891 
3.31689 9.27844 5.37 4.07576 5.17403 5.59966 3.53826 5.94846 5.30564 
2.80213 5.6744 4.30324 3.04662 8.71228 4.65292 1.0421 8.37567 4.94568 
0.026687 7.40395 4.62277 1.58768 5.72602 5.20046 0.379901 8.07215 5.75396 
0.543636 5.50673 5.41287 4.38285 9.73247 4.53006 0.738419 7.23078 5.33756 
3.92034 7.31201 4.01365 1.76181 9.37238 4.60557 1.94407 5.29568 4.006 
3.38814 6.52668 4.39241 1.59932 7.57312 5.76166 2.31029 5.04671 4.92748 
2.55192 6.03716 5.17972 0.31436 6.54126 4.5307 0.425193 5.15779 4.56315 
4.47732 6.69149 4.7141 1.10124 6.09624 4.43822 1.69425 7.87857 4.09156 
1.4659 7.0766 4.33779 2.15921 5.25192 5.87509 1.61052 6.82276 5.20415 
0.502176 6.38885 5.46912 1.04333 8.01134 5.80852 4.70509 8.98684 5.0157 
1.30357 8.98217 5.63095 4.18346 7.08875 5.56333 4.57437 8.3137 4.4615 
4.7025 5.96708 5.46598 4.71532 5.8312 4.41855 3.44274 5.0161 7.90347 
2.89348 5.17892 7.10206 3.39757 7.1592 7.77994 0.236003 9.04731 7.31419 
3.55531 6.38957 6.13758 2.14128 6.21763 6.0553 1.78565 8.18762 6.41219 
0.775771 8.38009 7.99526 3.1091 9.74789 6.36059 3.78334 7.8673 7.05257 
2.60574 9.39036 7.19538 2.9256 7.75617 6.55867 2.00314 6.75835 6.88367 
2.96356 6.87038 6.56584 0.832287 9.26785 6.1514 3.17015 8.64388 6.99189 
1.75428 9.11387 7.7892 0.81387 9.79123 7.175 4.25457 9.69842 6.6307 
4.57426 5.53614 6.3608 0.199135 5.1485 6.22732 1.65243 5.7685 6.85144 
3.88801 6.90331 6.98784 1.88394 8.99341 6.47975 0.226 6.00661 6.47493 
3.49871 5.94413 7.46107 2.56467 7.58904 7.89236 0.955848 8.54938 6.46845 
1.54838 7.29603 7.9676 0.587366 7.98253 7.06061 0.115012 6.62497 7.20599 
0.492673 5.42033 7.19063 1.33313 7.68105 7.20693 4.13396 5.30234 7.20252 
0.237651 6.93104 6.26713 4.67712 7.92996 6.61003 0.984908 6.32698 7.15718 
[...]
POINT_DATA 1000
FIELD FieldData 7
id 1 1000 int
262 13 777 359 916 373 496 786 616 
488 798 383 854 4 376 364 103 277 
635 734 100 393 622 626 416 99 264 
91 157 654 107 771 620 873 5 1000 
378 775 98 629 536 362 371 431 316 
900 641 36 515 405 257 502 899 805 
269 114 528 366 248 425 323 392 508 
280 275 667 291 761 855 408 95 144 
865 112 136 389 999 510 519 521 675 
266 896 263 11 369 396 151 458 14 
682 905 462 539 137 730 340 299 813 
298 52 155 12 250 201 154 549 148 
908 646 47 671 766 678 731 591 507 
718 28 446 428 783 811 527 914 944 
445 180 251 168 200 937 918 839 928 
246 824 518 930 795 717 573 435 851 
399 348 365 35 724 43 633 544 80 
377 203 235 643 822 283 583 242 270 
657 216 551 360 116 584 845 357 66 
73 611 548 504 304 152 61 956 217 
40 498 681 546 606 618 56 662 385 
506 787 54 387 90 228 694 597 895 
361 587 284 245 255 863 656 764 607 
842 129 574 619 608 828 104 823 382 
239 139 856 15 96 79 134 609 585 
598 388 258 754 342 835 565 670 713 
758 568 772 673 321 746 296 651 407 
532 825 610 126 624 442 660 621 769 
300 102 183 453 578 575 141 599 131 
674 807 113 541 994 903 782 281 489 
874 22 765 483 44 294 182 461 945 
417 288 199 285 804 780 171 20 124 
699 421 307 950 796 163 884 993 146 
473 297 690 175 919 205 319 454 792 
455 808 906 426 309 447 301 166 26 
938 932 907 815 788 471 698 192 469 
712 29 214 799 62 470 422 968 173 
433 149 189 922 336 704 892 322 210 
961 516 686 693 538 725 186 193 720 
728 942 450 976 955 169 211 534 952 
472 978 535 719 303 981 215 208 558 
60 645 46 59 601 177 230 412 602 
738 711 987 812 467 295 751 741 220 
683 838 613 850 67 476 614 486 709 
966 586 475 350 948 143 706 959 499 
324 466 595 604 997 111 334 84 652 
581 666 520 414 778 628 879 306 207 
588 533 655 74 92 579 398 88 71 
105 593 735 612 85 984 65 831 669 
76 81 553 286 563 381 441 176 860 
630 501 77 589 156 481 30 834 911 
93 128 745 639 770 636 511 525 135 
368 249 259 877 261 697 759 256 138 
106 514 223 882 529 272 279 755 768 
747 32 120 313 638 779 661 430 910 
672 119 858 495 853 659 108 117 990 
668 370 871 18 832 949 147 21 1 
762 25 650 142 94 797 33 522 402 
41 814 487 680 8 434 39 931 19 
429 941 187 801 893 419 517 866 889 
576 225 921 806 898 965 196 222 909 
897 411 767 901 531 973 130 410 891 
867 543 395 400 439 936 23 512 456 
437 6 773 320 852 194 716 820 69 
509 524 503 939 689 374 995 816 913 
737 229 271 555 123 727 708 540 161 
837 252 817 335 594 158 554 679 570 
449 827 943 513 314 505 933 243 935 
490 925 740 423 647 785 436 268 894 
315 920 127 418 749 34 736 480 27 
358 329 372 743 206 649 224 352 332 
992 172 789 209 240 97 38 703 715 
722 542 236 848 125 354 929 318 924 
572 677 308 16 802 343 750 464 790 
974 317 384 658 406 86 42 310 190 
234 702 198 500 2 276 523 380 864 
247 485 760 274 644 413 847 596 784 
195 292 526 756 623 231 226 869 774 
227 862 253 273 819 17 849 800 564 
89 232 530 625 265 776 870 868 846 
637 233 10 859 998 379 238 339 840 
640 344 237 7 267 420 996 328 289 
121 394 742 492 278 964 282 302 305 
810 403 729 491 221 793 605 82 733 
904 857 254 972 821 153 132 330 975 
115 244 590 726 983 367 627 293 341 
494 333 592 826 150 552 497 982 219 
363 967 9 3 577 634 991 878 791 
881 109 569 290 427 337 164 160 390 
409 988 902 970 415 885 386 557 872 
397 732 260 37 917 443 880 401 64 
404 174 687 890 957 833 912 159 695 
883 923 830 438 631 809 101 122 752 
325 452 167 887 58 915 50 45 582 
556 954 162 213 440 876 202 179 615 
448 432 841 391 212 287 969 165 170 
204 547 424 714 701 451 345 664 338 
723 940 181 188 958 197 710 353 178 
836 457 748 705 962 691 460 934 927 
696 184 971 465 537 118 463 757 926 
474 818 31 468 493 349 692 562 951 
444 684 566 459 946 346 580 331 478 
986 312 665 550 479 721 744 989 561 
185 326 53 700 49 48 843 191 688 
51 685 545 960 55 57 477 653 977 
875 72 559 739 844 888 861 707 347 
75 560 375 241 145 963 617 676 218 
110 133 763 311 355 70 351 484 327 
482 600 68 78 603 567 803 632 648 
979 980 571 753 356 83 663 87 140 
24 829 886 781 947 63 642 794 953 
985 
type 1 1000 int
1 1 2 1 2 1 1 2 2 
1 2 1 2 1 1 1 1 1 
2 2 1 1 2 2 1 1 1 
1 1 2 1 2 2 2 1 2 
1 2 1 2 2 1 1 1 1 
2 2 1 2 1 1 2 2 2 
1 1 2 1 1 1 1 1 2 
1 1 2 1 2 2 1 1 1 
2 1 1 1 2 2 2 2 2 
1 2 1 1 1 1 1 1 1 
2 2 1 2 1 2 1 1 2 
1 1 1 1 1 1 1 2 1 
2 2 1 2 2 2 2 2 2 
2 1 1 1 2 2 2 2 2 
1 1 1 1 1 2 2 2 2 
1 2 2 2 2 2 2 1 2 
1 1 1 1 2 1 2 2 1 
1 1 1 2 2 1 2 1 1 
2 1 2 1 1 2 2 1 1 
1 2 2 2 1 1 1 2 1 
1 1 2 2 2 2 1 2 1 
2 2 1 1 1 1 2 2 2 
1 2 1 1 1 2 2 2 2 
2 1 2 2 2 2 1 2 1 
1 1 2 1 1 1 1 2 2 
2 1 1 2 1 2 2 2 2 
2 2 2 2 1 2 1 2 1 
2 2 2 1 2 1 2 2 2 
1 1 1 1 2 2 1 2 1 
2 2 1 2 2 2 2 1 1 
2 1 2 1 1 1 1 1 2 
1 1 1 1 2 2 1 1 1 
2 1 1 2 2 1 2 2 1 
1 1 2 1 2 1 1 1 2 
1 2 2 1 1 1 1 1 1 
2 2 2 2 2 1 2 1 1 
2 1 1 2 1 1 1 2 1 
1 1 1 2 1 2 2 1 1 
2 2 2 2 2 2 1 1 2 
2 2 1 2 2 1 1 2 2 
1 2 2 2 1 2 1 1 2 
1 2 1 1 2 1 1 1 2 
2 2 2 2 1 1 2 2 1 
2 2 2 2 1 1 2 1 2 
2 2 1 1 2 1 2 2 1 
1 1 2 2 2 1 1 1 2 
2 2 2 1 2 2 2 1 1 
2 2 2 1 1 2 1 1 1 
1 2 2 2 1 2 1 2 2 
1 1 2 1 2 1 1 1 2 
2 2 1 2 1 1 1 2 2 
1 1 2 2 2 2 2 2 1 
1 1 1 2 1 2 2 1 1 
1 2 1 2 2 1 1 2 2 
2 1 1 1 2 2 2 1 2 
2 1 2 1 2 2 1 1 2 
2 1 2 1 2 2 1 1 1 
2 1 2 1 1 2 1 2 1 
1 2 1 2 1 1 1 2 1 
1 2 1 2 2 1 2 2 2 
2 1 2 2 2 2 1 1 2 
2 1 2 2 2 2 1 1 2 
2 2 1 1 1 2 1 2 1 
1 1 2 1 2 1 2 2 1 
2 2 2 2 2 1 2 2 2 
2 1 1 2 1 2 2 2 1 
2 1 2 1 2 1 2 2 2 
1 2 2 2 1 2 2 1 2 
1 2 2 1 2 2 1 1 2 
1 2 1 1 2 1 2 1 1 
1 1 1 2 1 2 1 1 1 
2 1 2 1 1 1 1 2 2 
2 2 1 2 1 1 2 1 2 
2 2 1 1 2 1 2 1 2 
2 1 1 2 1 1 1 1 1 
1 2 1 1 1 1 2 1 2 
1 1 2 1 2 1 2 2 2 
1 1 2 2 2 1 1 2 2 
1 2 1 1 2 1 2 2 2 
1 1 2 2 1 2 2 2 2 
2 1 1 2 2 1 1 1 2 
2 1 1 1 1 1 2 1 1 
1 1 2 1 1 2 1 1 1 
2 1 2 1 1 2 2 1 2 
2 2 1 2 2 1 1 1 2 
1 1 2 2 2 1 2 1 1 
1 1 2 2 1 2 1 2 1 
1 2 1 1 2 2 2 2 2 
2 1 2 1 1 1 1 1 1 
1 2 2 2 1 2 1 2 2 
1 2 1 1 2 1 2 1 1 
1 1 2 2 2 2 2 1 2 
2 2 2 1 2 2 1 1 2 
1 1 1 2 1 2 1 1 2 
2 2 1 1 1 2 1 1 2 
1 1 2 1 1 1 2 1 1 
1 2 1 2 2 1 1 2 1 
2 2 1 1 2 1 2 1 1 
2 1 2 2 2 2 1 2 2 
2 1 2 1 2 1 1 2 2 
1 2 1 1 1 1 2 2 2 
1 2 2 1 2 1 2 1 1 
2 1 2 2 1 2 2 2 2 
1 1 1 2 1 1 2 1 2 
1 2 2 2 1 1 1 2 2 
2 1 2 2 2 2 2 2 1 
1 2 1 1 1 2 2 2 1 
1 1 2 1 1 1 1 1 1 
1 2 1 1 2 2 2 2 2 
2 2 2 2 1 1 2 1 1 
1 2 2 2 2 1 2 2 2 
2 
i 3 1000 int
-1 0 0 -1 0 0 -1 0 0 
0 0 0 0 0 0 0 0 0 
9 1 1 -1 0 1 0 0 0 
-9 0 1 -3 0 0 0 0 0 
0 0 0 -4 0 0 0 0 0 
0 0 0 0 0 0 -6 0 1 
-2 0 1 0 0 0 0 0 0 
0 0 0 0 0 0 0 0 0 
0 0 0 0 0 0 0 0 0 
0 0 0 0 0 0 -3 0 1 
-1 0 0 0 0 0 0 0 0 
0 0 0 0 0 0 0 0 0 
0 0 1 -3 0 0 0 0 0 
0 0 0 -4 0 0 0 0 0 
0 0 0 0 0 0 -5 0 0 
0 0 0 0 0 0 -8 0 0 
-4 0 0 0 0 0 0 0 0 
-1 0 0 -1 0 0 -1 0 0 
-3 0 0 -3 0 0 0 0 0 
0 0 0 -5 0 1 0 0 0 
0 0 0 0 0 0 -5 0 0 
-1 0 0 -1 0 0 -2 0 0 
-1 0 0 -1 0 0 -5 0 0 
0 0 0 0 0 0 0 0 0 
0 0 0 0 0 0 -1 0 0 
0 0 0 0 0 0 0 0 0 
0 0 0 0 0 0 0 0 0 
-3 0 0 0 0 0 0 0 0 
0 0 0 0 0 0 0 0 0 
0 0 0 0 0 0 0 0 0 
0 0 0 0 0 0 10 1 0 
-1 0 0 -8 0 0 -3 0 0 
0 0 0 -1 0 0 14 1 0 
-1 0 0 7 1 0 0 0 0 
-4 0 0 0 0 0 -1 0 0 
0 0 0 -4 0 0 0 0 0 
0 0 0 0 0 0 -1 0 0 
0 0 0 0 0 0 0 0 0 
10 1 0 -2 0 0 -1 0 0 
-1 0 0 0 0 0 0 0 0 
0 0 0 0 0 0 0 0 0 
0 0 0 0 0 0 -1 0 0 
0 0 0 0 0 0 0 0 0 
0 0 0 -7 0 0 0 0 0 
0 0 0 -1 0 0 0 0 0 
9 1 0 0 0 0 0 0 0 
0 0 0 0 0 0 -3 0 0 
0 0 0 0 0 0 0 0 0 
-3 0 -1 0 0 0 -5 0 0 
0 0 0 -4 0 0 0 0 0 
-1 0 0 0 0 0 0 0 0 
-5 0 0 -1 0 0 0 0 0 
0 0 0 0 0 0 -3 0 0 
0 0 0 -3 0 0 0 0 0 
0 0 0 -1 0 0 0 0 0 
-1 0 0 0 0 0 0 0 0 
0 0 0 0 0 0 0 0 0 
0 0 0 0 0 0 0 0 0 
0 0 0 0 0 0 0 0 0 
-5 0 0 -1 0 0 0 0 0 
0 0 0 11 1 0 0 0 0 
0 0 0 0 0 0 0 0 0 
0 0 0 0 0 0 -12 0 0 
-1 0 -1 -3 0 0 0 0 0 
-2 0 -1 0 0 -1 -8 0 0 
-8 0 0 0 0 0 -6 0 -1 
0 0 -1 0 0 0 -8 0 -1 
-2 0 0 0 0 0 0 0 0 
-1 0 0 -1 0 0 0 0 0 
0 0 0 -1 0 0 0 0 0 
0 0 0 0 0 0 0 0 0 
0 0 0 9 1 -1 0 0 -1 
-8 0 0 0 0 0 0 0 0 
-1 0 0 0 0 0 0 0 0 
-1 0 0 0 0 -1 0 0 0 
0 0 0 0 0 0 0 0 0 
0 0 0 0 0 0 0 0 0 
0 0 0 0 0 0 -2 0 0 
0 0 -1 0 0 0 0 0 0 
0 0 0 1 0 0 0 0 0 
1 0 0 0 0 0 1 0 0 
11 0 0 2 0 0 0 0 0 
0 0 0 0 0 0 1 0 0 
1 0 1 0 0 0 2 0 0 
4 0 0 0 0 0 0 0 0 
0 0 0 0 0 0 11 0 0 
1 0 1 0 0 0 1 0 1 
1 0 0 0 0 0 0 0 0 
1 0 0 1 0 0 1 0 0 
1 0 0 1 0 0 1 0 0 
1 0 0 1 0 0 2 0 0 
1 0 0 1 0 0 1 0 0 
0 0 0 1 0 0 0 0 0 
0 0 0 1 0 0 -11 -1 0 
5 0 0 -11 -1 0 -9 -1 0 
0 0 0 -10 -1 0 9 0 0 
0 0 0 1 0 0 3 0 0 
1 0 0 2 0 0 2 0 0 
3 0 0 1 0 0 0 0 0 
1 0 0 3 0 0 0 0 0 
0 0 0 0 0 0 -11 -1 0 
1 0 0 2 0 0 1 0 0 
1 0 0 1 0 0 1 0 0 
1 0 0 1 0 0 1 0 0 
1 0 0 0 0 0 2 0 0 
1 0 0 0 0 0 0 0 0 
0 0 0 1 0 0 1 0 0 
0 0 0 0 0 0 1 0 0 
2 0 0 2 0 0 0 0 0 
6 0 0 0 0 0 1 0 0 
-7 -1 0 7 0 0 6 0 0 
11 0 -1 0 0 0 0 0 0 
0 0 0 9 0 0 6 0 0 
1 0 0 1 0 0 2 0 0 
1 0 0 -6 -1 0 1 0 0 
1 0 0 3 0 0 0 0 0 
1 0 0 1 0 0 0 0 0 
0 0 0 1 0 0 0 0 0 
0 0 0 1 0 0 7 0 0 
1 0 0 0 0 0 1 0 0 
1 0 0 2 0 0 4 0 0 
3 0 0 0 0 0 2 0 0 
0 0 0 0 0 0 0 0 0 
0 0 0 1 0 0 6 0 0 
0 0 0 0 0 0 2 0 0 
2 0 0 -7 -1 0 1 0 0 
7 0 0 1 0 0 1 0 0 
1 0 0 4 0 0 2 0 0 
3 0 0 -11 -1 0 6 0 0 
0 0 0 0 0 0 0 0 0 
0 0 0 2 0 0 1 0 0 
0 0 0 1 0 0 2 0 0 
1 0 0 1 0 0 1 0 0 
1 0 0 2 0 0 0 0 0 
1 0 0 1 0 0 1 0 0 
1 0 0 1 0 0 1 0 0 
0 0 0 0 0 0 1 0 0 
1 0 0 1 0 0 0 0 0 
0 0 0 0 0 0 0 0 0 
1 0 0 -9 -1 0 0 0 0 
2 0 0 2 0 -1 2 0 0 
0 0 0 7 0 -1 -10 -1 0 
2 0 0 0 0 0 0 0 -1 
1 0 0 0 0 0 0 0 0 
0 0 -1 0 0 0 1 0 0 
1 0 0 1 0 0 1 0 0 
0 0 0 1 0 0 -7 -1 0 
0 0 0 0 0 0 -11 -1 0 
6 0 -1 0 0 0 1 0 0 
1 0 0 1 0 0 1 0 0 
0 0 0 0 0 0 1 0 0 
1 0 0 3 0 0 1 0 -1 
0 0 0 1 0 0 -7 -1 -1 
1 0 -1 1 0 0 0 0 0 
1 0 0 -1 0 0 -2 0 1 
-1 0 0 -2 0 0 -1 0 0 
0 0 0 -2 0 1 -2 0 0 
12 1 1 0 0 1 0 0 0 
-1 0 0 -1 0 0 -1 0 1 
-1 0 0 -1 0 0 -1 0 0 
0 0 0 -1 0 0 -11 0 0 
17 1 0 -1 0 0 -1 0 0 
-7 0 1 11 1 0 -1 0 0 
-1 0 0 0 0 0 0 0 0 
0 0 0 0 0 0 -2 0 0 
-1 0 0 -1 0 0 0 0 0 
-1 0 1 0 0 0 0 0 0 
0 0 1 -2 0 0 0 0 0 
-1 0 0 0 0 0 0 0 0 
-1 0 0 0 0 0 4 1 1 
-3 0 0 -9 0 0 -17 0 0 
-6 0 0 -6 0 0 -1 0 0 
-2 0 0 -1 0 0 8 1 0 
5 1 0 -1 0 0 -3 0 0 
-2 0 0 -2 0 0 -3 0 0 
-1 0 0 -1 0 0 -1 0 0 
-5 0 0 0 0 0 -1 0 0 
-1 0 0 -1 0 0 -2 0 0 
-9 0 0 0 0 0 0 0 0 
-1 0 0 0 0 0 0 0 0 
6 1 0 -1 0 0 0 0 0 
-11 0 0 0 0 0 -1 0 0 
6 1 0 6 1 1 0 0 0 
0 0 0 -1 0 0 -2 0 0 
0 0 0 -1 0 0 0 0 0 
-1 0 0 0 0 0 0 0 0 
-4 0 0 -2 0 0 0 0 0 
0 0 0 0 0 0 -1 0 0 
-2 0 0 -1 0 0 0 0 0 
-2 0 0 -1 0 0 -1 0 0 
0 0 0 -3 0 0 -7 0 0 
-2 0 0 -1 0 0 -1 0 0 
-2 0 0 -1 0 0 -1 0 0 
0 0 0 -6 0 0 -1 0 0 
-2 0 0 0 0 0 0 0 0 
0 0 0 -1 0 0 -2 0 0 
-1 0 0 -3 0 0 -1 0 0 
-3 0 0 -7 0 0 0 0 0 
-2 0 0 14 1 0 0 0 0 
-1 0 0 -1 0 0 0 0 0 
-1 0 0 0 0 0 -3 0 0 
0 0 0 -1 0 0 0 0 0 
-1 0 0 0 0 0 -1 0 0 
0 0 0 -1 0 0 0 0 0 
-1 0 0 -1 0 0 -1 0 0 
-8 0 0 -1 0 0 7 1 0 
0 0 0 0 0 0 0 0 0 
0 0 0 -1 0 0 -1 0 0 
-1 0 0 -5 0 0 10 1 0 
-4 0 0 -1 0 0 -4 0 0 
0 0 0 0 0 0 0 0 0 
-1 0 0 -1 0 0 -1 0 0 
-3 0 0 0 0 0 -1 0 0 
-8 0 0 -7 0 0 -7 0 0 
-2 0 0 -1 0 0 0 0 0 
-2 0 0 -1 0 0 11 1 0 
-2 0 0 -6 0 0 -1 0 0 
-6 0 0 -1 0 0 0 0 0 
0 0 0 0 0 0 0 0 0 
-1 0 0 0 0 0 0 0 0 
-1 0 0 0 0 0 0 0 0 
-3 0 0 0 0 0 0 0 0 
17 1 0 0 0 0 0 0 0 
0 0 0 0 0 0 -1 0 0 
-1 0 0 0 0 0 -1 0 0 
-1 0 0 6 1 0 -1 0 0 
0 0 0 -1 0 0 -2 0 0 
-1 0 0 -1 0 0 0 0 0 
-7 0 0 -7 0 0 -1 0 0 
-1 0 -1 10 1 0 -8 0 -1 
0 0 0 -4 0 0 -2 0 0 
-1 0 0 -9 0 -1 -1 0 0 
0 0 0 0 0 0 -1 0 0 
-1 0 0 -1 0 0 -1 0 0 
-2 0 0 -1 0 0 -2 0 0 
-2 0 0 0 0 0 -1 0 0 
0 0 0 7 1 -1 0 0 0 
0 0 0 -1 0 0 -1 0 0 
-1 0 -1 0 0 0 -1 0 0 
0 0 0 -1 0 0 0 0 0 
-1 0 0 -1 0 0 0 0 0 
0 0 0 -4 0 0 0 0 0 
-3 0 0 0 0 0 0 0 0 
-2 0 0 0 0 0 -1 0 0 
-1 0 0 -9 0 0 0 0 0 
0 0 0 0 0 0 -12 -1 0 
14 0 1 0 0 0 0 0 0 
-5 -1 1 7 0 0 0 0 0 
1 0 0 1 0 1 1 0 0 
1 0 0 0 0 0 6 0 1 
0 0 0 0 0 0 1 0 0 
0 0 0 0 0 0 7 0 0 
1 0 0 0 0 0 0 0 0 
0 0 0 2 0 0 0 0 0 
4 0 1 0 0 0 2 0 1 
0 0 0 -9 -1 0 0 0 0 
3 0 1 0 0 0 1 0 0 
0 0 0 -9 -1 0 0 0 0 
0 0 0 0 0 0 0 0 0 
1 0 0 0 0 0 2 0 0 
3 0 0 0 0 0 0 0 0 
0 0 0 4 0 0 6 0 0 
5 0 1 5 0 0 0 0 0 
0 0 0 0 0 0 0 0 0 
0 0 0 0 0 0 8 0 0 
8 0 0 0 0 0 5 0 0 
1 0 0 0 0 0 0 0 0 
10 0 0 6 0 0 0 0 0 
9 0 0 0 0 0 0 0 0 
0 0 0 0 0 0 0 0 0 
0 0 0 -11 -1 1 -13 -1 0 
-8 -1 0 0 0 0 0 0 0 
2 0 0 0 0 0 3 0 0 
0 0 0 0 0 0 0 0 0 
0 0 0 1 0 0 0 0 0 
0 0 0 1 0 0 0 0 0 
0 0 0 1 0 0 1 0 0 
0 0 0 0 0 0 1 0 0 
0 0 0 0 0 0 0 0 0 
1 0 0 0 0 0 1 0 0 
1 0 0 2 0 0 0 0 0 
0 0 0 3 0 0 2 0 0 
2 0 0 1 0 0 1 0 0 
2 0 0 0 0 0 0 0 0 
4 0 0 1 0 0 4 0 0 
0 0 0 0 0 0 1 0 0 
0 0 0 10 0 0 8 0 0 
1 0 0 0 0 0 0 0 0 
-9 -1 0 5 0 0 0 0 0 
9 0 0 0 0 0 0 0 0 
0 0 0 0 0 0 1 0 0 
0 0 0 0 0 0 0 0 0 
0 0 0 2 0 0 0 0 0 
2 0 0 4 0 0 0 0 0 
3 0 0 0 0 0 2 0 0 
0 0 0 0 0 0 0 0 0 
0 0 0 0 0 0 0 0 0 
0 0 0 0 0 0 3 0 0 
0 0 0 4 0 0 5 0 0 
1 0 0 9 0 0 0 0 0 
0 0 0 1 0 0 0 0 0 
0 0 0 7 0 0 1 0 0 
0 0 0 0 0 0 0 0 0 
0 0 0 4 0 0 2 0 0 
0 0 0 0 0 0 0 0 0 
3 0 0 0 0 0 0 0 0 
2 0 0 0 0 0 0 0 0 
0 0 0 1 0 0 2 0 0 
1 0 0 1 0 0 0 0 0 
0 0 0 0 0 0 0 0 0 
0 0 0 0 0 0 0 0 0 
0 0 0 3 0 0 0 0 0 
0 0 0 0 0 0 7 0 0 
2 0 0 0 0 0 2 0 0 
0 0 0 3 0 0 0 0 0 
1 0 0 0 0 0 -7 -1 0 
0 0 0 0 0 0 4 0 0 
0 0 0 -10 -1 0 0 0 0 
0 0 0 0 0 0 0 0 -1 
4 0 0 1 0 -1 0 0 0 
1 0 0 2 0 -1 1 0 0 
-1 0 0 0 0 0 0 0 0 
0 0 0 0 0 0 0 0 0 
0 0 0 0 0 0 0 0 0 
1 0 0 0 0 0 0 0 0 
0 0 0 0 0 0 0 0 0 
1 0 -1 0 0 -1 1 0 0 
1 0 0 5 0 0 0 0 0 
1 0 0 0 0 0 0 0 0 
3 0 0 0 0 0 4 0 0 
8 0 -1 0 0 0 10 0 -1 
4 0 0 0 0 0 0 0 -1 
-8 -1 0 7 0 -1 0 0 0 
0 0 0 
v 3 1000 double
-132.55680672 -19.135515422 -23.885169699 -149.18953536 -18.652283005 -6.9890320642 -131.0475063 10.673908585 -33.718570419 
-34.916638943 -7.004673246 -4.7614145819 -59.88323048 -7.6064633946 15.009012417 -9.4581962498 -10.234571155 -1.9785674981 
-407.25789718 -2.3026086299 40.6516487 -120.37689269 -2.807993021 1.595174883 -14.904576678 -0.96617654971 -1.4896343707 
-390.74630996 5.5362155266 4.2896187441 -49.273874853 -8.1967289383 -7.4126023481 -14.261875277 -3.5794395724 0.78344638203 
-32.685988937 5.5165604714 4.5037949137 -401.14304359 -6.9020250272 28.773650536 -33.187430474 9.3339077498 1.3269251204 
-3.2921768396 -9.342252234 0.45160062051 -0.36686959084 3.1546261511 0.61527855557 -253.22914141 -1.1703962261 19.066685902 
-164.08324705 0.30241582046 -19.390702567 -4.3561991032 -6.9987962458 -0.15263701303 -6.2578373633 -6.8537708977 -1.4887757466 
-30.66313631 13.176976886 0.75826135822 -7.8934201847 4.5545117309 1.6617710856 -24.128164726 19.052464901 2.0909947673 
-46.211750677 -4.6523530845 -1.2692172054 -1.9998231301 3.941382057 7.9642146713 -10.914285598 -5.6135623216 1.2477932909 
-9.6466171819 3.7964597313 6.4093715817 -15.369344113 -2.6419362531 -2.0894026796 -153.58246585 -4.3904025615 -13.731986151 
-41.906588351 -8.0343309868 -5.0419329653 -118.72773166 -1.9911220014 13.806088001 -12.03163075 5.0310634322 4.3945546039 
-49.263588734 -12.460949865 -5.4986344793 -15.93082742 6.4497780051 12.272257847 -29.493655789 2.8255767157 11.39922078 
-32.985426566 -15.554274864 0.20025178028 -272.63175444 -16.125295427 -8.8019927905 0.078764007014 -8.7214597589 -4.7113493873 
-72.975026786 -11.452516508 14.227888598 -390.21519463 -29.538871656 32.331524124 -18.258002737 -10.237498606 2.6101683086 
0.47068154199 -5.8804889732 7.9382208141 -49.415418544 5.3778536714 11.255074058 -363.73551048 -7.2727741696 6.4860259627 
-37.521995449 27.012254344 -1.0550024378 -15.953184647 5.8294107651 -0.76808334113 -370.52416684 -22.359725016 -1.682233872 
-224.97333975 23.809328146 -4.143289938 -61.105861904 6.8864890647 1.9150196195 -14.868594555 -5.410969342 2.4217017417 
-101.24589309 -25.238367957 -3.6606617314 -88.982597987 11.804382822 16.759230675 -162.56410629 -4.5632011095 -5.5446745303 
-307.6558858 6.5690956431 26.249147952 -231.9230947 -1.5063889272 -44.468142997 -9.8705530689 3.0774777459 0.37582059299 
-12.741329996 -2.2941189772 5.1007046945 -331.83552554 -27.69007131 -11.990675759 -35.788159183 -7.3368428481 -0.47013902235 
-92.340823966 14.32310736 -9.4426081491 -13.098971132 -0.41899303341 1.6790413346 -294.85441644 -4.003935223 0.41037652797 
-91.077622861 11.079258193 -9.4453815015 -161.10663328 9.4558466593 17.003780757 -129.76797511 0.65618343326 -21.375241576 
-120.4274129 6.2018950302 -2.1694002235 -129.88103024 0.47251721739 6.214649419 -295.48069726 6.2909286672 -10.558600034 
-10.953854766 -0.51818051653 8.2125262159 -8.8938576256 6.1069233395 9.866537023 -22.92063299 14.939034223 -9.3778196113 
-18.822959479 0.34931542899 2.5555229784 -5.9582680372 5.2209862534 -3.0676157828 -97.241782145 14.526002847 1.1066231129 
-15.774481692 -6.5281065386 10.812619872 -45.853381765 1.8683883571 4.3954280716 -16.857109985 4.088166322 -2.373198333 
-13.205804406 3.5921194698 -0.19020050672 -5.1855356243 0.25403981917 10.913651305 -13.461516771 10.034395408 0.36675441839 
-254.62644201 8.1208141588 -5.6651639458 0.37932976119 16.066246072 0.81370102406 -21.330738425 -9.1865750937 8.8503359467 
-8.8101333596 -7.6060852514 -3.0995765774 -60.811484184 18.940790172 3.356238968 -11.407058678 -1.7153128774 -1.2599752104 
-17.320412298 0.59842385684 -3.1387457049 -13.945669734 4.539219461 0.39648831076 -23.656787492 -2.0165391363 1.6573490131 
-13.475410533 -0.35315529941 -0.2965184424 -24.350964338 0.77533360652 6.0152699268 -344.37249074 -29.236552613 -12.256086612 
-76.092866345 11.430069707 -3.9465726374 -293.63729449 -22.33214518 -3.3127119661 -165.98196736 23.895031819 -4.4452354836 
-52.448120081 0.22156003022 -12.991127736 -67.594990863 4.0894400154 22.807254998 -413.46562527 3.124367992 23.712058983 
-174.98342635 2.9803747815 -18.950373589 -512.56265123 -7.67343072 -7.8536964487 -17.077589215 7.4155277427 2.2830270106 
-222.02478711 17.435262409 11.790469854 -30.858716265 -9.2698563388 -12.319537469 -73.417241361 -18.954452383 2.4368538503 
-21.378386269 8.8691545147 7.2798853776 -280.05586867 -2.035270239 -5.3767964851 -7.8843451094 -4.8123296698 1.6047969607 
-35.124969283 8.0903816298 12.070274953 -27.346820876 12.953920441 6.8644130093 -148.14146899 -12.163957996 -21.497730658 
6.5368878839 -8.0630777876 -6.5435719656 -34.56551837 -1.1166494377 -23.671763024 -5.2923730626 -1.92451629 7.0869076862 
-375.90188606 18.382718875 6.9749121228 -142.19500562 -4.774791959 10.694837313 -90.5286474 -22.346793932 -11.169913656 
-27.931127287 -1.1889335167 -2.1776704873 -17.585999058 3.4390606923 1.2902118485 -6.6372098572 0.61043930777 3.2586798426 
-18.542344869 4.8039510534 2.5744260482 -77.839821284 -6.9362495752 -5.7220512739 -2.4376590745 1.4321300635 -1.4143349204 
-4.1152599358 5.8278151376 -0.79048845711 -18.75326885 14.264504863 5.6118946277 -80.865516306 1.1119898453 4.9236948483 
-31.168443782 5.0994838299 0.26659428644 -13.851453815 9.6411370337 -2.7580529884 -15.092218757 14.667099241 3.4825911246 
-0.75245280157 -4.4770368523 0.12143848055 -376.03223727 15.53346299 8.4076049624 -21.838222283 2.5373518819 -4.9658330555 
-34.463934704 8.2743818254 9.1750025652 -81.87644931 -16.131541205 21.31841714 -13.897279792 2.9004691731 -0.24093466294 
-553.96694759 18.844173756 -2.7866033424 -10.174219416 2.3682457091 2.1167054836 -28.358989963 -0.68051656177 -3.7525374007 
-37.353588148 -4.2255872399 10.256567698 -116.37575379 -15.176226851 3.3347724172 -203.86244424 -22.342460449 5.4260405473 
-19.145792311 -0.030312052712 0.048602688364 -14.214618979 -5.6387879189 1.3105208925 -15.937297853 -14.150933978 -1.5614954482 
-178.79074841 -8.032995138 -0.65119052441 -23.840289213 3.7428876419 -0.13716132851 -341.74659877 21.40827181 10.740446279 
-20.312940885 -18.681331333 -16.282739328 -338.98552382 -8.3086701655 -9.8746465419 -11.945578542 2.0024652853 -4.8349671125 
-213.29111198 8.304308444 10.151519098 -24.573556339 0.82453417388 3.8266766669 -2.2206566976 8.8108862104 -1.3246449605 
-476.56622294 4.8128129554 -31.349678971 -68.711639053 -9.5529605075 -19.109758908 -19.685304786 -4.8193190379 0.96589289517 
-75.771851194 -9.6191835314 9.3501253939 -29.892778816 -3.3015662787 -3.6196223088 -225.77795064 -26.105863604 15.924643804 
-26.287064648 5.5279582704 -0.52882169329 -341.95928799 35.509457934 -11.472944179 -68.553063049 -2.7408601115 -8.4208525202 
-1.0933036596 -1.0779535344 2.4834215473 -100.50167873 1.5621606195 -12.890173646 -22.654501411 4.7399733101 8.3375601868 
-162.39101209 8.0662785945 -1.781969634 7.0136326567 1.2670671273 -12.246243039 -25.419933104 13.790688298 -4.2203990486 
-54.856047243 7.6073164089 -0.16736511178 -95.726575219 -0.2378592208 16.018995821 -19.992878014 5.1411079555 1.448725683 