# vtk DataFile Version 4.2
Generated by LIGGGHTS
ASCII
DATASET POLYDATA
POINTS 1000 float
3.90047 2.832 1.94122 2.38451 4.23808 0.614761 1.44383 1.83782 0.107797 
2.23525 3.23866 1.27331 0.741701 1.28875 0.904031 0.617008 1.99278 1.95797 
2.69102 2.55024 1.74498 3.37333 1.0443 0.954199 0.51852 1.92273 0.220424 
1.29072 2.18907 1.06914 4.28698 3.83479 1.33174 3.94428 2.49105 0.0840684 
0.0812508 0.920171 1.67976 4.80062 2.78848 1.63193 2.59337 0.0411303 1.3631 
2.62537 0.827894 1.90422 1.47061 2.77244 1.73405 1.86957 2.93727 0.508656 
2.46294 4.19799 1.58777 0.30798 2.05985 1.18012 4.30345 0.435757 0.0577096 
1.40095 3.45448 0.913528 2.68602 1.11834 0.362709 4.75471 4.49 1.91019 
1.51981 4.4237 0.227076 0.579818 3.51141 1.06906 0.549547 4.07206 0.22706 
4.84861 4.22896 0.636379 4.62495 0.265857 0.804365 4.61661 0.826127 1.93606 
2.7998 3.74385 0.142385 3.22492 4.99678 0.231848 0.40918 4.80486 1.70896 
0.843852 4.40941 1.09699 2.6778 1.66677 1.80582 2.94632 1.95603 0.732937 
3.88783 1.3163 1.86844 3.74202 0.277543 1.04071 3.70416 2.69503 1.0205 
3.40709 1.87097 1.5044 3.02628 0.0249846 0.56614 1.72467 4.44653 1.12675 
4.37781 1.16592 1.03852 3.51263 4.10199 1.10934 4.68238 2.77546 0.630519 
3.5775 4.99813 1.6627 1.47957 3.45037 3.76352 4.06552 3.64828 3.28907 
1.97804 1.4715 2.24752 1.06171 2.12553 2.63242 2.79323 3.06038 3.98997 
1.80126 3.15525 2.81603 4.28564 4.41004 2.88536 2.13137 3.16316 3.63194 
2.42527 4.07743 3.191 4.76126 3.20859 2.87902 0.730281 1.43549 3.74845 
2.46784 2.28331 3.35286 1.40008 1.40095 2.93945 4.28721 1.1525 2.95748 
4.16209 3.68881 2.30458 0.458315 2.44946 3.08793 2.19054 2.57175 2.58413 
2.76524 3.94756 2.39901 2.45487 0.021017 3.20143 2.74484 3.25635 2.16139 
1.21115 2.40971 3.51095 3.37777 4.77503 3.86997 3.54866 2.75405 3.57556 
3.20143 3.33147 3.08631 0.702008 3.33376 3.41561 0.122743 4.92218 2.69158 
4.48609 2.9655 3.77328 3.64641 4.23081 2.08308 3.00898 4.82857 2.45933 
1.11337 4.77225 3.60556 3.28199 1.80429 3.85926 0.634105 4.13501 2.11956 
3.34808 4.26242 3.11686 4.29662 0.302974 2.64417 3.5426 0.702272 3.75255 
3.37909 0.145213 2.84417 3.41888 1.3427 3.01102 0.0679564 3.59305 2.82805 
3.01743 2.18298 2.56752 2.09542 4.76722 2.14413 3.35231 0.647009 2.22573 
1.11111 3.44589 2.10123 4.83067 4.93028 3.63128 4.94746 0.0987969 2.73973 
4.91023 2.03196 2.01343 4.93193 2.07175 3.46756 4.6569 2.92913 5.68182 
3.89036 4.94627 4.59023 3.39332 2.58385 4.56013 1.36968 2.68609 5.1669 
2.13737 2.77777 4.61945 2.00339 0.293831 5.07427 1.01139 2.47284 4.33194 
2.72078 4.13487 4.28768 4.86957 4.36357 5.8234 2.44573 1.52122 4.71298 
0.593883 1.45861 5.13123 2.12933 0.425787 5.97547 0.762798 2.05293 5.79587 
3.99846 3.33937 5.52026 1.46305 1.7478 5.43231 0.54056 0.51267 4.42188 
1.92891 3.54318 4.65664 1.23163 1.93572 4.58755 1.95063 1.10283 5.52183 
0.242374 2.06794 4.95054 2.41905 2.26806 5.34904 3.2261 3.48113 5.99888 
1.14879 3.56429 4.86591 2.65442 3.83801 5.29354 2.23436 4.57276 5.65734 
0.837613 2.95872 5.71061 1.73348 1.41866 4.31537 3.46438 0.0852772 5.33025 
3.58931 1.21184 5.65275 1.8169 4.28026 4.11869 0.453544 2.82884 4.25989 
4.45161 4.18714 4.0022 4.35298 1.00503 5.38818 1.09562 4.45187 4.73738 
4.54657 1.41259 4.10374 0.71572 3.77343 5.73156 3.5521 3.85112 4.0074 
0.330051 4.69648 4.18874 2.7936 1.06086 5.34973 0.223438 4.81054 5.24654 
4.1929 3.55755 4.68645 4.45135 4.40086 4.95932 3.6574 0.704356 4.67029 
4.44156 2.79625 4.70846 4.9809 1.06623 4.69893 1.99436 0.0464856 7.49321 
2.45185 1.72559 7.66949 1.57538 1.71338 7.70289 2.14734 0.927932 7.28101 
2.44181 1.99308 6.58244 0.488268 1.89326 6.72806 1.91233 1.03659 6.45672 
2.33157 4.44286 6.91678 1.26435 3.01706 6.48922 3.12859 4.95145 7.812 
1.86463 3.76923 6.20868 1.57357 1.74744 6.47888 -0.0137531 1.49424 7.79074 
1.41823 3.37349 7.43914 2.53777 3.57286 6.86927 0.842908 1.38683 6.36365 
1.07294 0.143966 7.9164 4.08495 4.73178 7.44854 0.632909 2.6904 7.32423 
1.13411 0.826022 7.72418 0.843446 0.798746 6.91159 0.221005 2.47625 6.33874 
2.36474 2.62401 7.68222 1.15917 0.281677 6.58916 1.85052 2.71733 7.03621 
0.94606 1.98231 7.41589 2.42156 3.48219 7.95334 3.35854 3.61876 7.3076 
3.24127 4.40477 7.0905 0.323914 4.29348 7.33281 4.06375 3.31756 6.48196 
3.15901 1.58925 6.26204 4.5089 2.66199 7.71877 0.786783 3.72363 7.36883 
0.259704 4.47241 6.12756 0.037381 3.6322 6.70052 4.84826 1.31459 6.26254 
2.9506 2.81069 6.91852 1.52845 4.53491 6.38503 2.83654 0.826342 7.88085 
4.52657 1.61254 7.31574 4.66754 2.30682 6.81763 2.87304 0.698243 6.76128 
0.119911 0.0577286 7.55655 3.93167 0.801035 7.75858 4.11172 3.43432 7.44214 
4.39534 0.61902 6.90179 3.71565 1.77166 7.50562 1.63683 2.49681 6.02841 
3.87804 4.35059 6.30109 1.1243 4.93205 6.99305 4.74365 0.628264 8.14703 
1.4009 2.72104 9.79463 1.0275 4.26029 8.30128 1.54686 3.5816 9.91406 
2.25497 3.71901 9.29617 0.640092 1.2146 8.41457 1.25764 3.46957 8.94021 
2.30271 2.09582 8.51169 0.88242 1.55665 9.3511 1.86042 4.01388 8.21138 
2.08766 0.419371 9.12961 3.64006 1.4452 8.39126 0.161195 2.35562 8.39838 
1.89954 2.80009 8.95492 0.0716564 1.87468 9.26555 3.99692 4.7535 9.0975 
2.33283 4.58075 8.96452 2.75767 2.92557 9.24754 1.52729 2.9865 8.17296 
3.99531 0.44916 8.97208 0.629466 2.68868 9.62469 0.961113 2.19031 8.54413 
0.346995 3.94118 9.14674 0.468521 3.30894 8.49559 3.23455 3.935 9.45909 
0.857813 4.78452 8.91547 4.44213 4.07847 8.05611 1.14864 4.98684 9.77872 
1.49445 4.36361 9.26791 0.322297 4.67277 8.08824 0.527281 0.00904771 8.72277 
2.8626 0.305979 9.8181 3.27328 3.34371 8.31854 3.99869 4.89328 9.99652 
0.664177 3.47571 9.66396 2.8476 4.15468 8.57648 3.13755 1.27523 9.53849 
4.60265 4.44783 9.61496 2.29052 4.91621 8.11614 0.157854 4.67349 9.45436 
4.45288 3.44899 9.7907 4.45445 2.72855 9.17199 4.59098 1.44112 8.6663 
4.57637 2.06677 9.86019 0.706848 9.96633 0.286003 0.589837 8.17458 0.357088 
3.23562 9.90451 1.83602 2.50831 5.14538 0.637046 3.98843 7.28908 1.32333 
4.917 7.1048 1.13229 2.85917 7.54564 1.3388 0.632567 9.13793 1.39187 
4.27635 7.86064 0.0518055 0.00450518 8.43069 0.798927 0.274911 8.23544 1.85973 
2.68464 8.47373 0.886174 3.92504 6.92177 0.22877 4.78583 7.88131 0.791198 
4.71129 5.3401 1.39874 3.78644 5.95775 0.275709 3.6088 7.94528 1.75614 
0.883202 7.54225 0.784228 3.97067 9.52255 0.381993 1.65128 9.53835 0.511758 
3.61314 6.46212 1.77203 1.81003 5.29789 1.41729 3.95578 5.05752 0.856768 
2.21766 8.06435 1.75682 2.07049 5.94836 0.204568 3.04791 7.19528 0.493065 
3.02499 6.41504 0.170716 0.552201 5.08926 0.307321 1.95123 9.4585 1.85376 
0.118222 5.64192 0.335657 1.63844 6.19526 1.02486 1.38334 6.9031 1.3472 
4.30954 8.6074 0.460035 3.56674 7.94845 0.736702 0.54877 7.46807 1.69323 
0.876786 6.82363 0.371111 0.8567 6.94148 1.60276 4.39408 9.81493 1.56817 
0.274205 6.29466 0.995771 1.09238 6.01378 0.232906 0.0117219 7.31322 0.894313 
1.68788 8.35538 1.16382 1.486 8.38006 0.317586 2.39089 6.53878 1.62736 
4.81766 8.71081 1.59411 2.71969 8.97077 1.61015 2.70668 5.95016 0.944347 
1.24993 8.05096 1.95659 4.14311 8.9649 1.19698 4.16929 5.9748 1.21209 
2.56049 7.29056 3.91676 3.03237 9.78081 3.76217 3.50293 9.25181 2.21886 
3.20908 6.28121 2.89797 4.51843 8.05622 3.74815 4.06428 8.48523 3.20044 
3.51948 8.28797 2.42587 1.02604 9.11286 3.89174 1.69528 9.19251 2.86147 
0.240037 7.98033 3.97556 4.04523 6.22353 3.04865 4.39516 5.09826 2.29306 
3.02909 9.399 2.89902 3.49002 9.06747 3.20647 3.74128 5.26018 3.10701 
0.268857 8.76013 3.56861 1.33649 9.79634 2.26069 -0.0278834 8.82318 2.67225 
1.16631 9.69794 3.23121 2.60496 7.19571 2.58498 2.76409 8.35007 2.90241 
2.62548 7.81702 3.41067 4.18674 5.90283 2.16733 2.88933 8.81619 3.89591 
3.18381 5.57592 2.03067 4.3309 9.23169 2.32501 0.13039 9.7978 3.19666 
3.12932 5.67043 3.91281 4.67745 6.8799 3.5316 1.08526 8.65083 2.41399 
1.98405 8.44659 2.54489 -0.0173217 5.53081 3.94838 1.38605 5.59618 2.13562 
0.486476 7.19582 2.62035 3.98149 9.71922 3.93732 0.557861 6.63568 3.47388 
1.04061 5.49811 3.01033 1.45911 7.34949 3.32848 0.45992 6.40043 2.3216 
2.38332 6.4721 3.31922 1.37722 8.19659 3.15648 4.3993 5.98844 3.8848 
1.29847 6.63643 2.43483 2.47115 5.92721 2.39462 1.83355 7.48856 2.42857 
1.70744 8.99204 3.62263 0.354592 7.59819 3.305 2.10358 8.37923 3.76361 
2.47047 9.30191 2.33535 3.86295 7.31349 2.61325 4.59597 9.4254 3.43551 
4.69206 5.67955 3.02543 2.6646 6.24274 5.36535 3.36223 5.20478 5.33503 
3.47874 9.00117 5.22385 3.68848 7.41592 4.70202 4.30855 6.06004 4.87112 
1.87804 7.54871 4.19823 1.49322 9.5815 4.56279 4.10414 8.4971 5.69142 
2.97859 8.33529 4.63666 3.95183 9.90225 4.73071 0.0394387 7.6466 4.79922 
0.857805 9.61381 5.93667 1.46352 5.38537 4.87833 0.681194 9.80122 4.31424 
2.6279 5.58433 5.69975 1.25821 7.27882 4.96929 2.86629 6.59258 4.31997 
3.567 6.56428 4.95045 0.920629 5.76085 4.00923 0.024899 9.08327 5.20554 
0.0943011 9.99638 5.90657 0.677289 8.84332 4.69922 0.304209 8.23302 5.4888 
3.01256 7.29004 5.79682 1.44474 9.32393 5.38227 2.53462 6.97973 5.06498 
2.12783 8.49747 5.6189 2.26472 9.70337 5.92565 1.45734 6.34336 4.65653 
4.35169 5.07163 5.64169 3.0669 8.14477 5.68942 0.40905 7.24202 5.87255 
4.54004 7.70116 5.31146 4.42958 9.12828 5.01456 2.29515 5.424 4.82057 
1.33577 7.98142 5.93016 4.32572 8.28994 4.64842 2.14587 8.53446 4.71706 
1.21851 8.41412 5.29451 0.102672 5.59897 5.58484 1.68696 5.56035 5.801 
1.39641 8.49972 4.4312 2.12379 7.67794 5.08479 1.17052 8.84708 6.16982 
2.85498 6.30201 7.2728 1.06252 9.69895 7.14156 2.1093 7.53523 7.89286 
4.60447 6.62002 6.24952 4.21187 7.87713 7.3202 2.05209 6.66196 6.13047 
1.58952 9.68522 6.52875 3.2744 8.58843 7.70211 3.17123 8.98518 6.24045 
4.46027 5.18978 6.5936 4.12772 7.81124 6.33158 0.61776 8.86032 7.18623 
2.56921 8.44859 7.1594 -0.0174106 8.54266 7.88689 1.09925 8.24027 6.76777 
1.05189 7.4384 7.15553 0.379733 6.43308 6.36236 1.67693 6.31008 7.96347 
3.59328 5.79825 6.33647 3.25567 9.93591 7.4403 0.406958 8.6925 6.31563 
3.90969 5.75921 7.70883 0.506092 5.7178 7.95705 4.83827 6.25816 6.97067 
[...]
POINT_DATA 1000
FIELD FieldData 7
id 1 1000 int
579 574 388 789 800 814 231 108 373 
400 627 882 747 974 172 249 531 487 
392 431 360 849 921 136 872 96 319 
473 35 434 598 739 455 157 316 755 
785 768 903 224 718 100 1000 144 819 
620 905 932 697 36 511 275 519 717 
391 827 836 667 505 784 86 39 151 
773 145 279 804 938 973 756 94 54 
644 650 880 457 507 641 999 730 543 
586 240 430 461 208 886 659 420 803 
807 304 679 521 767 750 743 332 646 
910 366 901 497 282 918 408 79 778 
616 266 418 900 117 69 245 725 658 
668 761 968 399 154 256 933 771 529 
513 962 374 689 33 737 867 340 216 
201 271 492 995 52 384 38 187 247 
65 503 860 439 241 569 343 47 594 
797 347 839 34 259 243 935 603 265 
573 446 448 460 299 608 716 876 223 
846 225 222 352 348 762 754 924 635 
437 372 524 958 908 862 564 838 795 
916 30 139 258 226 308 758 899 672 
562 533 227 335 42 811 393 66 618 
640 770 656 609 56 317 363 563 264 
592 327 749 809 354 928 864 835 775 
40 861 857 106 380 368 596 203 575 
463 582 292 58 160 357 986 614 26 
252 763 73 441 109 542 88 301 713 
610 555 590 753 78 390 407 103 337 
605 175 685 238 578 541 82 153 570 
330 906 419 781 285 386 199 960 690 
969 125 593 466 365 302 404 684 3 
729 137 704 286 917 410 121 297 993 
194 703 815 193 244 553 75 158 68 
936 213 289 218 693 808 133 465 631 
309 799 769 528 186 617 945 878 883 
788 494 981 277 887 556 879 709 385 
214 197 909 830 221 334 55 954 477 
290 722 841 577 683 715 824 728 875 
333 435 959 283 780 412 180 724 971 
345 189 934 671 57 143 701 469 464 
669 710 207 179 893 931 202 59 140 
51 377 74 601 124 188 77 748 744 
927 855 150 76 561 831 478 432 558 
331 837 987 128 664 652 29 424 894 
651 261 628 155 296 977 695 356 398 
829 49 843 445 447 381 132 287 844 
607 486 670 972 64 859 195 621 475 
501 126 666 923 967 394 500 71 183 
303 634 87 230 673 350 638 174 626 
847 965 191 537 957 663 752 315 947 
185 622 93 468 911 402 896 702 604 
591 630 624 538 242 777 633 898 16 
674 585 17 623 984 13 907 228 10 
760 20 677 787 765 680 112 517 776 
798 21 920 490 488 774 196 254 772 
759 134 413 342 485 415 865 871 378 
682 15 27 212 599 104 566 138 881 
102 371 826 311 267 118 583 130 274 
167 182 423 101 428 741 429 298 425 
873 805 559 25 548 147 530 806 606 
854 62 389 427 142 12 273 6 914 
919 902 675 796 257 828 83 95 523 
364 943 731 361 18 678 416 944 159 
821 751 629 382 23 409 654 611 514 
314 236 19 522 346 204 1 50 734 
451 383 719 234 868 509 280 895 869 
406 80 262 714 705 370 396 369 358 
939 554 941 129 411 816 527 72 858 
942 510 67 948 149 251 813 421 539 
291 250 937 764 600 498 956 653 863 
643 260 888 255 929 235 565 516 7 
852 4 502 613 870 790 740 568 127 
229 232 379 313 116 217 263 459 237 
619 148 351 786 206 802 822 476 890 
168 329 190 107 951 738 766 198 312 
123 152 584 661 278 146 233 97 276 
480 642 495 284 41 270 323 135 506 
467 597 636 310 9 205 362 587 820 
120 306 832 572 567 544 339 442 526 
318 966 649 842 403 376 845 783 269 
647 637 161 89 727 359 11 779 110 
119 99 840 982 745 970 662 293 220 
552 483 676 694 625 5 707 81 426 
699 92 165 61 367 949 248 305 85 
84 90 536 983 491 321 655 866 874 
489 892 171 595 22 950 512 166 891 
114 545 812 706 452 897 162 532 91 
281 723 833 113 817 169 810 952 453 
991 791 994 493 518 576 458 602 692 
48 322 978 975 471 889 794 349 720 
164 496 481 696 904 417 980 520 712 
462 691 450 885 192 913 456 925 708 
401 210 988 405 37 961 131 515 698 
328 648 178 307 926 733 549 324 170 
433 912 443 736 253 856 848 550 884 
454 163 615 28 534 184 746 686 700 
922 470 792 449 440 209 200 268 997 
156 472 98 341 930 940 976 546 45 
8 915 181 985 657 955 325 992 387 
540 877 246 211 547 395 953 43 111 
818 122 300 479 742 834 355 215 508 
436 504 272 557 711 551 989 2 681 
353 105 53 438 338 735 326 31 946 
14 499 24 474 173 732 687 320 996 
482 115 560 721 294 850 793 239 70 
998 422 979 639 288 665 645 295 571 
525 375 397 580 851 825 853 63 60 
757 336 726 801 32 589 963 660 588 
176 444 46 581 990 141 535 964 177 
484 414 612 344 219 688 632 782 823 
44 
type 1 1000 int
2 2 1 2 2 2 1 1 1 
1 2 2 2 2 1 1 2 1 
1 1 1 2 2 1 2 1 1 
1 1 1 2 2 1 1 1 2 
2 2 2 1 2 1 2 1 2 
2 2 2 2 1 2 1 2 2 
1 2 2 2 2 2 1 1 1 
2 1 1 2 2 2 2 1 1 
2 2 2 1 2 2 2 2 2 
2 1 1 1 1 2 2 1 2 
2 1 2 2 2 2 2 1 2 
2 1 2 1 1 2 1 1 2 
2 1 1 2 1 1 1 2 2 
2 2 2 1 1 1 2 2 2 
2 2 1 2 1 2 2 1 1 
1 1 1 2 1 1 1 1 1 
1 2 2 1 1 2 1 1 2 
2 1 2 1 1 1 2 2 1 
2 1 1 1 1 2 2 2 1 
2 1 1 1 1 2 2 2 2 
1 1 2 2 2 2 2 2 2 
2 1 1 1 1 1 2 2 2 
2 2 1 1 1 2 1 1 2 
2 2 2 2 1 1 1 2 1 
2 1 2 2 1 2 2 2 2 
1 2 2 1 1 1 2 1 2 
1 2 1 1 1 1 2 2 1 
1 2 1 1 1 2 1 1 2 
2 2 2 2 1 1 1 1 1 
2 1 2 1 2 2 1 1 2 
1 2 1 2 1 1 1 2 2 
2 1 2 1 1 1 1 2 1 
2 1 2 1 2 1 1 1 2 
1 2 2 1 1 2 1 1 1 
2 1 1 1 2 2 1 1 2 
1 2 2 2 1 2 2 2 2 
2 1 2 1 2 2 2 2 1 
1 1 2 2 1 1 1 2 1 
1 2 2 2 2 2 2 2 2 
1 1 2 1 2 1 1 2 2 
1 1 2 2 1 1 2 1 1 
2 2 1 1 2 2 1 1 1 
1 1 1 2 1 1 1 2 2 
2 2 1 1 2 2 1 1 2 
1 2 2 1 2 2 1 1 2 
2 1 2 1 1 2 2 1 1 
2 1 2 1 1 1 1 1 2 
2 1 2 2 1 2 1 2 1 
2 1 2 2 2 1 1 1 1 
1 2 1 1 2 1 2 1 2 
2 2 1 2 2 2 2 1 2 
1 2 1 1 2 1 2 2 2 
2 2 2 2 1 2 2 2 1 
2 2 1 2 2 1 2 1 1 
2 1 2 2 2 2 1 2 2 
2 1 2 1 1 2 1 1 2 
2 1 1 1 1 1 2 2 1 
2 1 1 1 2 1 2 1 2 
1 1 2 1 1 1 2 1 1 
1 1 1 1 1 2 1 1 1 
2 2 2 1 2 1 2 2 2 
2 1 1 1 1 1 1 1 2 
2 2 2 2 1 2 1 1 2 
1 2 2 1 1 2 1 2 1 
2 2 2 1 1 1 2 2 2 
1 1 1 2 1 1 1 1 2 
1 1 2 1 2 2 1 2 2 
1 1 1 2 2 1 1 1 1 
2 2 2 1 1 2 2 1 2 
2 2 1 2 1 1 2 1 2 
1 1 2 2 2 1 2 2 2 
2 1 2 1 2 1 2 2 1 
2 1 2 2 2 2 2 2 1 
1 1 1 1 1 1 1 1 1 
2 1 1 2 1 2 2 1 2 
1 1 1 1 2 2 2 1 1 
1 1 2 2 1 1 1 1 1 
1 2 1 1 1 1 1 1 2 
1 2 2 1 1 1 1 2 2 
1 1 2 2 2 2 1 1 2 
1 2 2 2 1 1 2 2 1 
2 2 1 1 2 1 1 2 1 
1 1 2 2 2 2 2 1 1 
2 1 2 2 2 1 2 1 1 
2 1 1 1 1 2 1 1 1 
1 1 2 2 1 1 2 2 2 
1 2 1 2 1 2 2 1 2 
1 2 2 2 1 2 1 2 1 
1 2 2 1 2 1 2 2 1 
2 2 2 1 2 2 1 2 2 
1 1 2 2 1 2 2 1 2 
1 1 1 2 2 1 2 2 2 
1 2 1 2 1 2 1 2 2 
1 1 2 1 1 2 1 2 2 
1 2 1 1 2 2 2 1 1 
1 2 1 2 1 2 2 2 2 
1 1 2 1 2 1 2 2 2 
2 1 2 1 1 1 1 1 2 
1 1 1 1 2 2 2 2 1 
1 2 1 2 2 2 1 2 1 
2 2 1 1 2 1 2 1 1 
2 1 1 1 2 2 1 1 2 
1 2 1 2 2 2 2 1 2 
1 1 1 1 1 2 1 1 2 
1 1 1 1 1 2 2 1 2 
1 1 2 2 1 2 2 1 1 
2 1 2 2 1 2 2 1 2 
2 1 1 2 2 2 2 1 1 
2 1 2 2 1 2 2 2 2 
1 1 1 2 2 1 2 2 1 
1 1 2 1 1 2 2 2 2 
1 
i 3 1000 int
-6 0 0 -3 0 1 -29 0 1 
-36 0 0 57 1 0 -26 0 1 
-20 0 1 -17 0 1 -12 0 0 
-15 0 0 0 0 0 -4 0 0 
-50 0 1 93 1 1 -39 0 0 
-25 0 1 -16 0 0 -32 0 0 
-10 0 0 -18 0 0 -28 0 1 
-8 0 1 -14 0 1 -15 0 0 
-3 0 0 -7 0 1 2 0 0 
3 0 0 -31 0 1 -19 0 0 
-6 0 1 3 0 1 5 0 0 
-3 0 0 -34 0 0 -23 0 0 
62 1 0 -27 0 -1 -5 0 0 
-35 0 1 -23 0 1 -3 0 0 
-19 0 0 -9 0 0 -8 0 1 
-2 0 0 -6 0 0 -3 0 0 
-12 0 0 -33 0 0 -10 0 -1 
-6 0 0 -8 0 0 -25 0 0 
1 0 0 -8 0 0 39 1 0 
-36 0 0 -15 0 0 -28 0 1 
-11 0 1 -27 0 0 -11 0 0 
-6 0 0 34 1 0 89 1 0 
-56 0 0 7 0 0 -9 0 0 
-8 0 1 -12 0 0 1 0 1 
73 1 0 -5 0 0 18 0 0 
2 0 0 -19 0 0 -7 0 0 
-9 0 0 -42 0 0 -27 0 0 
34 1 0 -33 0 0 -6 0 0 
46 1 0 4 0 0 61 1 0 
-5 0 0 9 0 0 26 1 0 
-7 0 0 -14 0 0 -4 0 0 
3 0 0 -16 0 0 -24 0 0 
-14 0 0 -26 0 0 -8 0 0 
-15 0 0 -4 0 0 -21 0 0 
44 1 0 38 1 -1 -5 0 0 
-5 0 0 -7 0 0 -54 0 1 
-1 0 0 -39 0 0 -13 0 0 
-8 0 0 -16 0 0 -15 0 0 
-12 0 0 -2 0 0 -3 0 0 
-6 0 0 -29 0 0 47 1 0 
-23 0 -1 2 0 0 -11 0 0 
-1 0 0 -23 0 -1 -5 0 0 
-16 0 0 0 0 0 -2 0 0 
-16 0 0 53 1 0 -4 0 0 
-22 0 0 -5 0 0 -26 0 0 
-24 0 0 -42 0 0 -53 0 0 
-23 0 0 68 1 0 -19 0 0 
-28 0 0 -22 0 0 -34 0 0 
1 0 0 -15 0 0 3 0 0 
-4 0 0 61 1 0 69 1 -1 
-6 0 0 -23 0 0 -16 0 0 
59 1 -1 2 0 0 -17 0 0 
52 1 0 -23 0 -1 -11 0 0 
-5 0 0 29 1 0 -10 0 0 
-8 0 0 -9 0 0 -2 0 0 
2 0 0 -13 0 0 -3 0 0 
-27 0 0 -4 0 0 -10 0 -1 
-3 0 0 -10 0 0 72 1 0 
-7 0 0 -4 0 0 -36 0 -1 
-16 0 0 -12 0 0 -36 0 0 
-33 0 0 -15 0 0 -12 0 0 
37 1 0 -17 0 0 -27 0 0 
-1 0 0 -1 0 0 -34 0 -1 
-16 0 -1 -2 0 0 -6 0 0 
-22 0 0 -21 0 0 -2 0 0 
-19 0 -1 -25 0 -1 -13 0 -1 
28 1 0 63 1 -1 -18 0 0 
-20 0 0 -25 0 0 -1 0 0 
-9 0 -1 -7 0 0 -3 0 0 
-29 0 0 -19 0 -1 -23 0 0 
-3 0 -1 -9 0 0 -9 0 0 
1 0 -1 -3 0 0 -1 0 -1 
2 0 -1 2 0 0 -64 0 0 
37 1 -1 -6 0 0 -5 0 -1 
-8 0 0 -4 0 0 -35 0 -1 
-4 0 0 2 0 0 3 0 -1 
-10 0 -1 -12 0 0 -10 0 -1 
-17 0 0 -27 -1 0 48 0 0 
39 0 1 11 0 0 -64 -1 0 
21 0 0 24 0 0 -36 -1 1 
22 0 1 15 0 1 40 0 0 
50 0 1 1 0 1 14 0 1 
11 0 1 2 0 0 -59 -1 1 
6 0 1 32 0 0 -45 -1 1 
8 0 0 -6 0 0 4 0 0 
26 0 1 8 0 1 5 0 0 
11 0 0 -1 0 0 40 0 0 
5 0 0 10 0 0 8 0 1 
-42 -1 1 15 0 0 18 0 0 
8 0 0 10 0 0 -29 -1 1 
9 0 0 13 0 0 8 0 0 
31 0 1 39 0 0 12 0 0 
-69 -1 0 39 0 1 1 0 0 
23 0 0 -42 -1 1 6 0 1 
16 0 0 -44 -1 0 33 0 1 
7 0 0 25 0 0 27 0 1 
40 0 1 -54 -1 0 48 0 0 
34 0 0 8 0 0 -1 0 0 
44 0 0 35 0 0 10 0 0 
-60 -1 0 -39 -1 1 19 0 0 
33 0 0 -80 -1 0 -63 -1 1 
11 0 1 1 0 0 20 0 0 
1 0 0 38 0 0 -51 -1 -1 
18 0 0 15 0 0 25 0 0 
26 0 1 6 0 0 6 0 0 
13 0 0 45 0 0 17 0 0 
1 0 0 16 0 0 25 0 1 
11 0 0 28 0 0 5 0 0 
16 0 0 4 0 0 17 0 0 
-47 -1 1 20 0 0 24 0 0 
44 0 1 30 0 1 -61 -1 0 
1 0 0 16 0 0 2 0 0 
28 0 -1 18 0 0 7 0 0 
17 0 0 25 0 0 11 0 0 
41 0 0 -29 -1 0 23 0 0 
40 0 -1 -1 0 0 48 0 0 
-1 0 0 11 0 0 19 0 0 
6 0 0 1 0 0 32 0 0 
-39 -1 0 -63 -1 0 -64 -1 0 
6 0 0 -51 -1 0 20 0 0 
23 0 0 21 0 0 10 0 0 
3 0 0 36 0 0 6 0 0 
7 0 0 31 0 0 2 0 0 
-69 -1 0 26 0 0 37 0 1 
32 0 0 3 0 0 1 0 0 
29 0 0 10 0 0 44 0 0 
5 0 0 -54 -1 1 15 0 0 
9 0 0 43 0 0 9 0 0 
32 0 0 26 0 -1 21 0 0 
2 0 0 -46 -1 0 19 0 -1 
15 0 0 21 0 0 20 0 0 
9 0 0 6 0 0 6 0 0 
1 0 0 -42 -1 0 17 0 0 
4 0 0 6 0 0 3 0 0 
15 0 0 3 0 0 1 0 0 
15 0 -1 -4 0 0 5 0 0 
1 0 0 13 0 -1 18 0 0 
15 0 0 7 0 0 12 0 0 
1 0 0 7 0 0 5 0 0 
0 0 0 12 0 0 4 0 0 
30 0 0 30 0 0 16 0 0 
2 0 0 27 0 0 -3 0 0 
12 0 -1 23 0 -1 -23 -1 0 
-24 -1 0 2 0 -1 11 0 0 
3 0 0 29 0 -1 15 0 0 
9 0 -1 38 0 -1 9 0 -1 
-3 0 0 -1 0 0 5 0 -1 
15 0 0 20 0 -1 5 0 0 
37 0 0 19 0 -1 8 0 0 
-2 0 -1 21 0 -1 2 0 -1 
0 0 0 -4 0 -1 31 0 0 
29 0 0 22 0 -1 15 0 0 
4 0 -1 1 0 0 8 0 0 
1 0 0 1 0 -1 9 0 -1 
10 0 0 -52 -1 -1 -44 -1 0 
-1 0 -1 48 0 0 9 0 0 
-36 -1 0 11 0 0 7 0 -1 
51 1 0 -39 0 1 -34 0 0 
-32 0 1 -12 0 0 -33 0 0 
-3 0 0 -12 0 1 -27 0 1 
-9 0 1 33 1 1 -25 0 0 
-3 0 0 -36 0 1 -20 0 1 
-13 0 1 -61 0 0 -5 0 1 
-22 0 1 39 1 0 -20 0 0 
-1 0 0 -15 0 0 -23 0 1 
-33 0 0 -44 0 0 -33 0 1 
-33 0 0 -43 0 1 -14 0 1 
62 1 0 6 0 0 -11 0 1 
-11 0 0 -12 0 1 -24 0 0 
-7 0 1 -29 0 1 4 0 0 
-17 0 0 -7 0 0 -20 0 1 
-4 0 0 -22 0 1 -21 0 1 
58 1 0 3 0 0 -4 0 1 
47 1 1 -5 0 1 1 0 0 
2 0 0 -8 0 0 41 1 0 
3 0 1 -43 0 1 41 1 1 
-17 0 1 -7 0 0 -29 0 -1 
30 1 0 22 1 0 -34 0 0 
-3 0 0 -9 0 0 -51 0 0 
-14 0 0 -36 0 0 -24 0 0 
-11 0 0 -31 0 0 -50 0 1 
-31 0 0 -26 0 0 -41 0 0 
-7 0 1 -37 0 0 -19 0 0 
-8 0 0 -14 0 0 -13 0 0 
0 0 0 -19 0 0 -33 0 0 
-36 0 1 -7 0 0 -4 0 0 
0 0 0 21 1 0 -3 0 0 
6 0 0 -6 0 0 -16 0 1 
26 1 1 -3 0 0 -20 0 1 
-5 0 0 -9 0 0 85 1 0 
-8 0 0 -7 0 0 -4 0 0 
-14 0 0 -21 0 0 39 1 0 
42 1 0 39 1 0 -28 0 0 
-20 0 0 -16 0 0 82 1 0 
-35 0 1 -3 0 0 -14 0 0 
-14 0 0 -22 0 0 -22 0 0 
-5 0 0 38 1 0 -51 0 0 
-51 0 -1 3 0 0 -13 0 0 
3 0 0 -6 0 0 32 1 0 
-19 0 0 -12 0 1 -23 0 0 
-23 0 0 -40 0 0 -17 0 0 
-19 0 0 -2 0 0 -39 0 0 
76 1 0 2 0 0 -2 0 0 
-6 0 0 -10 0 0 -4 0 0 
1 0 0 -13 0 0 -9 0 0 
-30 0 0 -13 0 0 -5 0 0 
0 0 0 25 1 0 -2 0 0 
7 0 0 -11 0 0 54 1 0 
36 1 0 -2 0 0 -5 0 0 
57 1 0 28 1 0 -31 0 0 
-14 0 0 -5 0 0 -7 0 0 
-29 0 1 -2 0 1 70 1 0 
-24 0 0 53 1 0 -16 0 0 
-21 0 0 -43 0 0 66 1 0 
-9 0 0 -3 0 0 -13 0 0 
-7 0 0 -48 0 0 -5 0 0 
-36 0 0 -50 0 -1 -25 0 0 
-5 0 0 1 0 0 -24 0 0 
-18 0 0 -10 0 0 -14 0 0 
-14 0 0 -10 0 0 -11 0 0 
-24 0 0 -3 0 0 -9 0 0 
-9 0 0 -1 0 0 -7 0 0 
-4 0 0 -8 0 0 -5 0 0 
-30 0 1 -17 0 0 -5 0 0 
-4 0 0 5 0 0 1 0 0 
0 0 0 -17 0 0 -14 0 0 
-33 0 0 -3 0 0 55 1 0 
-10 0 0 -1 0 0 0 0 0 
-23 0 0 -4 0 0 -9 0 0 
-7 0 -1 49 1 -1 -3 0 0 
-13 0 0 -3 0 0 -29 0 0 
-12 0 0 -45 0 0 -13 0 0 
-49 0 0 -36 0 -1 -19 0 0 
-17 0 -1 -12 0 -1 -13 0 -1 
61 1 0 -11 0 0 -23 0 0 
-7 0 0 55 1 -1 -50 0 -1 
-15 0 -1 -13 0 0 -18 0 -1 
-30 0 -1 33 1 -1 -10 0 -1 
-11 0 0 -1 0 0 -5 0 0 
-5 0 0 4 0 -1 -25 0 0 
-9 0 0 2 0 0 -11 0 0 
-17 0 0 5 0 -1 -16 0 -1 
-13 0 0 -11 0 0 -37 0 0 
-17 0 -1 -14 0 0 -3 0 0 
-12 0 0 -30 0 0 -6 0 -1 
-11 0 -1 -3 0 -1 -4 0 0 
-5 0 -1 -7 0 -1 -5 0 0 
-4 0 -1 5 0 0 56 1 -1 
-5 0 0 -36 0 -1 52 1 0 
18 0 0 17 0 0 34 0 -1 
-56 -1 1 4 0 0 1 0 0 
-82 -1 0 8 0 1 22 0 0 
6 0 0 1 0 1 24 0 0 
-46 -1 1 21 0 0 33 0 1 
-61 -1 1 17 0 0 24 0 1 
36 0 1 1 0 0 -50 -1 0 
11 0 0 11 0 0 9 0 0 
-62 -1 1 2 0 0 16 0 0 
23 0 0 17 0 0 -3 0 0 
18 0 1 17 0 0 8 0 0 
0 0 0 4 0 0 3 0 0 
-66 -1 0 38 0 0 11 0 1 
23 0 1 7 0 0 6 0 0 
22 0 0 23 0 0 1 0 0 
14 0 0 11 0 0 8 0 0 
3 0 0 -3 0 0 29 0 0 
24 0 0 12 0 0 7 0 0 
23 0 0 7 0 0 15 0 0 
40 0 0 -23 -1 0 37 0 0 
4 0 0 28 0 0 29 0 0 
21 0 0 4 0 0 9 0 0 
38 0 1 15 0 0 0 0 0 
39 0 0 11 0 0 2 0 0 
10 0 0 49 0 1 25 0 -1 
8 0 0 10 0 0 10 0 0 
32 0 1 16 0 0 23 0 0 
48 0 0 15 0 0 2 0 0 
2 0 0 10 0 0 -1 0 0 
-2 0 0 0 0 0 -41 -1 0 
19 0 0 32 0 0 19 0 0 
-7 0 0 -67 -1 0 2 0 0 
14 0 0 -44 -1 0 10 0 0 
-3 0 0 39 0 0 7 0 0 
41 0 0 4 0 0 56 0 0 
-53 -1 0 11 0 0 22 0 0 
33 0 -1 14 0 -1 10 0 0 
-44 -1 1 -44 -1 0 -33 -1 0 
-39 -1 1 16 0 0 18 0 0 
36 0 0 30 0 0 44 0 0 
1 0 0 8 0 0 18 0 0 
1 0 0 11 0 0 11 0 0 
9 0 0 19 0 0 14 0 0 
-2 0 0 9 0 0 -45 -1 0 
-50 -1 0 5 0 0 6 0 0 
19 0 0 9 0 0 4 0 0 
12 0 0 -9 0 0 11 0 0 
18 0 0 -5 0 0 31 0 0 
-4 0 0 5 0 0 8 0 0 
11 0 0 3 0 0 4 0 0 
17 0 -1 -42 -1 0 -30 -1 -1 
-52 -1 0 58 0 0 63 0 0 
24 0 0 41 0 0 2 0 0 
7 0 0 -13 -1 0 5 0 0 
35 0 0 16 0 0 34 0 -1 
17 0 0 11 0 -1 8 0 0 
12 0 0 7 0 0 -52 -1 0 
8 0 0 2 0 0 -41 -1 -1 
20 0 0 19 0 0 0 0 0 
20 0 0 2 0 0 -2 0 0 
32 0 0 12 0 0 4 0 0 
13 0 -1 8 0 0 13 0 0 
5 0 0 28 0 0 7 0 0 
0 0 0 5 0 0 46 0 -1 
11 0 0 34 0 0 -58 -1 1 
18 0 0 -2 0 0 4 0 -1 
15 0 0 8 0 -1 10 0 0 
40 0 0 19 0 0 21 0 0 
35 0 -1 -47 -1 0 12 0 0 
-53 -1 0 -69 -1 -1 17 0 0 
26 0 0 7 0 -1 1 0 0 
16 0 0 23 0 0 4 0 0 
-29 -1 -1 13 0 -1 10 0 -1 
42 0 0 -25 -1 0 27 0 -1 
12 0 -1 19 0 -1 0 0 0 
35 0 0 27 0 0 38 0 0 
-63 -1 -1 58 0 -1 14 0 0 
15 0 0 19 0 0 -1 0 0 
11 0 0 7 0 0 39 0 0 
4 0 0 0 0 -1 7 0 0 
37 0 0 17 0 -1 21 0 0 
16 0 0 22 0 -1 5 0 0 
0 0 0 6 0 -1 5 0 0 
9 0 -1 33 0 -1 59 0 -1 
8 0 -1 
v 3 1000 double
-191.57773951 -10.973702221 6.4801891969 -74.858406888 -2.0883651025 17.220776307 -300.17046594 -2.1480268541 4.0809488351 
-188.01183284 22.341870382 -11.995990854 -356.05972293 -10.689712794 1.6440477219 -296.61139869 -2.5067030888 1.6950080143 
-211.96425669 -5.1241673545 -38.321408424 -372.97719789 21.382142887 8.2047833487 -283.92487787 -11.822276697 -5.6956403005 
-287.24413994 -9.3975318149 -12.485208528 -91.875257692 -10.697259109 -3.9845640035 -180.44402958 -16.386982235 -7.6119390084 
-404.18448846 -1.4743376544 -7.0819644039 -186.5293491 0.71235544193 4.1907637273 -451.05175285 -13.781126629 -25.358242277 
-400.54474084 -13.638186577 -9.4642686742 -175.76130932 -14.970025941 18.513202259 -177.02676861 -17.371696723 -19.024691588 
-49.16473008 -11.14190008 10.256042064 -292.45353939 -4.2142480404 4.6630331885 -397.14150458 -8.9954249973 1.7358408435 
-159.12892412 16.340278448 11.141422253 -369.83606443 -12.443597515 -6.8269456555 -23.886417107 -25.419649596 -27.542626178 
-66.736050335 13.890286477 9.8143738629 -157.8652706 -8.7755502688 20.126556921 -75.373982343 6.2905397617 -0.48949224604 
-105.2371295 16.227893183 2.6708007674 -444.61728413 6.2493565581 6.646643262 -341.66506075 -14.883747946 2.3543070467 
-121.56689255 -16.828724806 -10.393708067 -6.1789783646 -1.4304967402 15.757968337 -27.337166853 23.258714827 29.502874703 
-42.851269071 4.1005495567 -8.3150993288 -305.3041517 -5.7472839298 -3.6753515505 -302.57814339 7.3435217664 -14.371217382 
-339.38937494 -1.7278365671 21.507971417 -445.24043462 -4.3309189608 -20.434963064 -195.73391144 -5.676171461 -11.696116446 
-306.69757996 26.009292689 4.2256743353 -447.74934216 -23.944703953 -39.768560435 -51.222897628 -1.0394183728 4.7980391667 
-360.58315255 -3.9560016217 7.1477019595 -94.172802409 -2.3443585759 -12.568810071 -180.98873485 -2.6536752774 8.0527105995 
43.209476771 -19.73512744 3.980464053 -151.01806013 14.412554721 10.2157412 -98.878935504 -1.6894521542 2.0615700162 
-267.71033199 -17.581423492 -23.124307093 -216.38176692 1.30638066 -20.837400015 -154.07869138 8.0256250038 -5.5894167043 
-154.28162602 7.9313681801 -6.4890857976 -32.771672041 10.897547425 -1.200272391 -142.13043083 -0.96021173877 -11.125268356 
-14.070012015 -11.148084097 14.189537603 -116.78063978 -9.6860513509 -7.937435474 -319.83304249 -7.8640469766 0.85374352432 
-228.28450832 -17.667751232 38.174357962 -254.3857284 -40.790892663 12.597373047 -358.71168912 14.222307293 13.26807379 
-112.83028559 -10.670020084 0.54672736321 -222.401274 -7.1767997492 1.925842307 -192.46332561 -29.068313039 -25.847802541 
-43.262260627 5.1177672919 -0.75860277312 -453.008257 3.8882025903 -12.002625778 -106.67184977 -19.750787288 -9.665872594 
-209.45979474 5.7499250904 -15.353349162 9.8470939562 -0.97236413784 0.051080616845 -159.04286109 -23.88261609 2.4737850959 
-112.00146176 -11.972359042 -17.024793022 -140.6444276 -9.5679260745 -3.9478483496 -13.457111984 8.1326196583 21.714561319 
-181.47651327 -6.9331770689 -4.2163080475 -41.329215813 -6.0685392239 4.7011306887 -2.0753723323 21.070189013 -0.14454778749 
2.2005380848 -9.2993126336 -12.852730191 -244.80780518 -21.102564139 8.9353434588 -93.686472067 10.216307428 24.069980229 
-30.903702607 1.5301461728 -17.095580448 -455.44756968 -11.250758378 -6.9770886417 -372.99369817 -0.062155372364 2.3829411498 
-443.3144113 1.7456233442 22.742526148 -366.61362701 13.155351036 -1.2125317036 -114.42392033 -8.5126589887 0.68740164722 
-240.69774402 -2.2134301819 -4.4705643227 -18.418935749 1.4275934347 18.34654435 -391.18851744 20.511554397 -7.7252418679 
-149.22516998 -0.49113037309 29.320420567 38.374006885 4.2588885701 2.8297983168 -470.07787284 -5.1314384761 3.4515685521 
-270.85844396 -24.724290517 11.621782132 -283.83002564 9.8125450422 17.443462664 -129.31661844 -8.5568397332 21.506799335 
14.029780422 14.056360305 2.8854994851 -189.52183199 -15.194628282 10.147337948 -170.61123099 -6.4437070018 3.4352940171 
-164.7120097 -18.303461132 -9.8162859646 -499.7746356 17.29156062 -12.314818144 -186.3069051 9.5029569753 7.6353960533 
-39.447847896 7.7558621122 7.1402229306 -13.633507857 -17.86100154 15.273006795 -331.17678942 26.436779738 -38.09065069 
-249.24337734 -59.34105952 5.8292289324 -420.31581545 -5.7777141062 10.321115985 -214.49369013 -9.5630266459 13.909667451 
-93.686777338 -4.9459948278 -0.77509648904 -256.84309088 -0.54518324085 -2.4138285703 -499.38042971 33.258677451 8.0330909194 
-104.45499754 21.354663814 -1.0245453418 -256.35216647 -21.273956133 14.172608342 -322.57065559 -5.1552926487 -13.687089511 
-187.57699391 -7.4130510454 -20.397800534 -260.29841733 0.31893171683 17.254171437 -85.80552271 -12.797528147 7.7712556802 
-128.11978228 -6.1865039191 4.0347462666 -59.896291317 -8.553858634 -25.78532388 -30.511802045 9.7701327436 -11.72044362 
-166.59671908 -4.041632454 16.125719353 -303.84628049 -35.688134263 -26.474794152 -483.3870172 -3.8273346157 32.946044487 
-359.33355074 9.3012976126 9.5141029527 -44.296416055 22.033963832 -8.5980043288 -175.98588878 24.167319851 5.6889343849 
-71.308558703 11.996461276 -9.3797548026 -355.25808725 0.72379055109 14.85438265 -42.096480069 11.207370853 -9.5853957818 
-329.5676167 4.9959883359 -7.6012623498 -93.096933634 19.302176935 18.119543907 -73.809524741 -10.560092814 1.7445382079 
14.14429849 -22.553812671 7.7167760096 -355.73693371 -2.8975299849 -3.7933760686 -16.765467033 -6.3072191041 -11.320631289 
-102.47752748 11.582227793 -20.221880951 -10.407673383 -9.92465513 17.291719781 -389.57641718 16.414307413 14.510532708 
-169.03111448 -31.086771538 11.501851006 -354.71531666 5.4750870966 16.564083533 -503.53105235 0.28497128513 22.809362671 
-273.83130172 -0.91292460224 5.0872049521 -250.92313322 -9.201621532 27.993074521 -389.93134549 6.7365256191 12.095509002 
-284.12851245 30.888532072 12.349260264 -253.06316185 -13.501828114 29.346956019 -362.00249269 4.4997276112 10.457598506 
-34.69031792 1.8958465857 -9.5808565363 -185.73321681 22.874782049 27.551619178 -24.716579466 12.516555367 -11.923951955 