# vtk DataFile Version 4.2
Generated by LIGGGHTS
ASCII
DATASET POLYDATA
POINTS 1000 float
3.62223 4.21306 0.631941 2.46013 0.227155 1.48458 3.69325 2.61425 0.913723 
0.358679 1.18744 1.6945 0.174097 0.188563 0.784006 0.662662 1.06707 0.388766 
2.00497 0.93568 0.188511 1.19053 3.12325 1.83397 2.71066 1.65798 1.63756 
2.3285 2.59545 1.69379 4.60851 1.20527 1.08871 1.34988 1.44361 0.0187155 
0.297008 2.16264 0.26756 0.674945 2.43781 1.30304 0.272398 1.51967 0.885453 
1.61775 3.16548 0.370065 4.54125 2.50694 1.56238 1.03753 3.69413 0.904121 
4.58361 0.612094 0.47598 4.37004 4.35947 1.49064 2.78337 4.06192 0.123647 
3.69207 0.974943 0.278964 1.14698 1.27178 1.24027 0.790306 3.53035 0.000103838 
2.29382 3.59994 1.21521 3.37162 3.21384 0.221613 1.26662 0.545673 0.878634 
2.65592 2.01332 0.746812 3.54018 1.86688 0.128679 3.67419 0.749577 1.19507 
2.59509 4.57337 1.07047 2.44592 4.98864 1.8521 3.30706 1.3487 1.2596 
1.31442 4.07217 1.70769 1.76924 4.7892 0.992293 0.984544 4.79333 1.65203 
3.00706 0.0853163 0.728138 2.82428 0.9848 0.442653 4.55245 1.96994 0.518247 
2.97855 4.99701 0.300364 0.661667 4.46053 0.364127 3.97728 1.79471 1.00281 
3.6696 2.8656 1.87225 0.147623 3.78972 1.08332 4.89377 2.63268 0.098557 
0.27512 4.62997 0.983963 0.00818098 4.42301 1.71827 0.741632 0.0451847 0.285692 
4.91223 1.2033 1.92609 3.33743 0.130713 3.27209 1.03997 3.62282 3.93619 
4.75628 2.87647 2.97575 0.679936 1.58884 2.55211 3.68655 2.59883 3.85995 
2.00595 1.97493 3.82424 1.45148 2.86305 3.09203 2.17425 0.17107 3.1626 
1.07651 2.72867 3.92303 1.99787 4.27646 3.1994 2.14323 0.983564 3.4056 
0.512396 0.32136 2.68072 4.7827 2.01361 3.37887 0.963845 0.218714 3.25551 
4.82825 4.74551 3.76706 0.575417 0.611652 3.58221 3.05014 1.97723 2.64379 
1.14055 0.499191 2.06607 2.30987 4.11573 2.26789 2.40413 0.933033 2.20091 
0.110461 1.04278 3.22115 1.45391 1.28005 2.95616 3.83649 1.91128 3.35897 
0.884836 3.3237 2.7685 1.18175 1.5014 3.69346 4.05623 3.32513 3.21902 
2.62277 3.77454 3.47472 2.89951 1.89423 3.61512 4.21218 0.117242 3.34712 
4.1292 4.78921 2.51702 0.0505146 2.53077 3.95473 0.24035 4.29054 2.71975 
3.36377 1.05551 3.55489 3.91848 1.96085 2.17356 0.511294 4.60115 3.56528 
3.02878 0.973242 2.84827 2.72176 0.0845514 3.90182 0.320284 3.71145 3.37621 
1.43759 0.00520018 3.90365 0.0125022 4.81916 3.66186 4.46918 0.52413 2.5496 
1.4418 4.58738 2.90886 4.00628 1.25687 2.68425 1.2211 4.43503 3.86306 
3.3404 0.849929 2.0623 0.232137 4.98162 2.61487 0.758625 4.01513 2.30657 
3.30375 3.62596 2.28805 0.152903 3.00948 2.32018 4.34238 1.05475 3.55732 
4.66409 2.79468 3.92819 4.83582 1.96333 2.39881 0.603003 0.701114 4.19686 
1.91107 3.40726 4.82995 2.35798 0.0575923 5.3781 1.59988 3.88502 5.28679 
1.78478 0.266423 5.99045 0.0324053 3.83794 4.26829 0.975574 2.92681 4.96616 
1.15622 1.83136 4.57663 0.449048 1.81155 4.00024 4.63026 0.0244927 4.55075 
4.28838 0.647956 5.09248 0.341727 0.209708 4.96046 1.52529 0.720045 4.36866 
4.17078 0.245213 5.88965 2.14224 0.926829 5.37635 1.7122 1.56434 5.73887 
2.41344 2.68928 4.78862 0.954401 2.12618 5.23217 2.51709 0.658067 4.57245 
4.90724 3.16829 4.83095 1.03272 0.707478 5.77399 1.49063 2.9756 5.61816 
1.08436 1.0634 4.87893 2.2331 4.61006 4.16184 1.89192 1.5906 4.80893 
0.548219 1.29462 5.56348 1.36015 4.56245 4.80087 3.21092 3.24665 4.09176 
1.73554 2.37826 5.98681 1.04852 3.98591 5.60902 0.0355673 2.73459 4.83504 
0.68993 2.98787 5.77631 0.717398 4.49394 5.97247 0.573766 3.66845 4.72736 
4.53194 2.38514 5.91363 3.64275 2.80245 4.80189 0.614651 4.75707 4.87579 
-0.00320422 3.36151 5.47843 3.1422 1.42602 4.34965 3.33162 1.8706 5.15703 
0.122104 4.22472 5.43859 3.4961 0.860641 5.51148 3.90575 2.81014 5.8978 
4.02864 4.34769 4.81859 4.04498 2.06999 4.49558 4.16488 3.65686 5.04743 
4.2533 3.44279 4.17149 4.39655 4.24811 5.94144 4.50558 1.58146 5.29137 
4.76904 1.44522 4.35002 4.76262 4.60534 4.91043 4.85426 2.30625 4.69077 
1.56758 3.70891 7.87197 0.839381 0.0421299 7.58011 0.803258 2.00946 6.16553 
1.26511 1.12715 7.37152 1.87119 1.91366 7.98444 1.8966 3.74238 6.14649 
2.07559 2.82013 6.78425 1.34295 2.04793 7.13656 0.688809 2.82307 7.4977 
4.75135 4.61307 7.37645 4.70633 1.91628 7.00487 0.680254 0.508964 6.78531 
4.28436 2.50727 7.87179 2.6086 2.33623 6.36412 1.80874 0.578772 7.17486 
1.37855 3.10737 6.95551 0.147888 1.18697 6.45959 1.98702 1.16726 6.45053 
2.26545 3.26938 7.59308 0.453156 1.99059 7.03208 3.16992 3.28687 6.1458 
0.131728 1.12479 7.46607 1.48323 2.65548 7.85357 2.17111 3.90563 7.12953 
3.60105 4.40582 6.28872 1.51301 4.03957 6.86447 0.401908 3.67549 6.37613 
1.4153 4.9343 6.88316 3.75611 0.173765 6.60799 2.59648 4.95038 6.88179 
2.92381 1.25311 7.72176 2.87509 2.6469 7.30676 2.91877 4.19231 7.54336 
4.31987 0.337095 7.39016 3.51644 3.85592 6.91584 1.87145 4.7455 6.01995 
4.69334 0.0107544 6.6298 2.81987 4.67974 6.03172 0.0602776 3.40396 7.29921 
0.118544 4.93235 6.06847 3.38757 1.2351 6.84789 2.93519 0.386564 7.16817 
0.582222 2.81143 6.65483 2.18252 4.76679 7.76748 4.27332 1.1514 7.56642 
4.20422 1.31167 6.33858 3.42561 0.441957 8.0409 0.756932 1.10157 8.07269 
2.65545 3.48682 9.32579 0.0338929 0.201887 8.18348 4.72196 4.32669 8.20149 
4.20412 4.29028 9.68488 0.272855 4.38104 9.51781 0.0256193 0.525766 9.89778 
2.02443 3.58881 8.46728 1.07953 3.10048 8.81296 3.73411 4.60497 8.45036 
1.59287 0.0970537 9.88838 2.11391 1.71927 9.36981 0.812966 1.96829 8.48057 
0.643277 1.28565 9.23894 1.3003 1.20971 8.78121 1.87386 2.24715 8.86148 
0.0768802 1.758 8.75199 1.46128 0.600774 8.11547 2.45107 0.989276 9.26132 
1.01849 2.12187 9.63342 0.296081 0.316417 9.11898 1.67048 2.80914 8.72789 
2.0153 4.26314 9.07053 1.0717 0.636431 9.578 0.358439 2.62578 9.30902 
2.5674 2.66805 9.97563 1.31644 4.58433 8.68552 4.55791 3.09148 8.61729 
3.85818 2.66143 9.51853 3.85338 4.89307 9.2909 3.73209 0.563347 8.98873 
4.90954 3.8201 9.78987 4.41756 1.23469 8.53282 0.575165 3.88105 8.08721 
0.00667853 4.82705 8.04396 3.49438 0.0745699 9.88623 0.954976 3.81899 8.91732 
4.38319 0.181847 9.66815 1.34259 4.37989 9.85369 2.68436 2.89448 8.29522 
3.56229 1.39593 9.41307 3.13815 2.036 8.92046 -0.00929924 4.70752 8.9092 
4.0977 1.95931 8.63821 4.60598 0.504724 8.37741 2.89903 0.428036 9.51891 
2.82229 4.53593 8.26823 2.83929 9.14734 1.21275 2.19511 9.68155 0.0691661 
2.81354 6.40199 0.293442 0.730086 8.55844 1.59579 4.41288 5.97543 1.12192 
1.96512 6.57477 1.28492 1.53214 9.77075 0.707397 0.133155 8.68682 0.802574 
3.5642 9.27329 0.269807 4.45329 6.76752 1.80649 2.97983 7.3886 1.44905 
3.16673 8.17547 1.9813 0.569388 9.28096 0.179819 4.0131 5.20288 0.208125 
4.70982 7.72788 1.28162 0.455175 9.46907 1.1419 1.72676 6.31755 0.0896523 
4.17665 8.14554 1.46565 3.61599 7.37762 0.0682134 2.56368 6.8821 0.770178 
2.595 7.63845 0.305504 1.47874 5.4406 0.490988 2.82159 6.27642 1.44294 
2.40575 5.5814 0.506239 3.83668 7.1729 1.01367 0.0735597 5.94715 1.04687 
1.59606 5.67673 1.32674 1.47396 9.97356 1.55936 0.550094 7.42001 0.73268 
0.75987 6.16863 0.353176 2.142 7.19427 1.91393 4.16139 8.59345 0.673001 
0.729607 8.32259 0.67223 1.69923 7.43687 0.975171 1.17992 6.14028 1.79403 
4.41612 5.16706 1.15842 4.39463 9.58254 0.59904 1.72487 8.48303 1.7595 
0.589974 5.42974 1.3305 1.48165 8.36139 0.891376 0.558071 5.263 0.33537 
2.69925 9.12728 0.241545 0.271217 6.77547 1.81398 2.00851 9.29497 1.6859 
0.109086 6.65929 0.566978 3.6745 9.65537 1.24025 2.94483 6.84838 3.47923 
3.74681 5.60337 3.41915 2.44105 6.06037 3.77835 3.68529 7.59295 3.7717 
0.556086 8.28681 2.95755 0.187547 8.60207 3.5457 3.53279 5.89874 2.71491 
2.50884 9.97874 2.47631 2.52222 5.14663 2.76606 3.39653 9.92763 2.09923 
3.50371 6.79298 2.75873 2.96944 7.31722 2.38014 2.4267 7.56358 3.97426 
1.45481 9.79639 2.50392 2.72003 7.5264 3.06977 0.622084 8.95331 2.34856 
4.34297 6.28647 2.51474 2.84015 6.38479 2.28217 4.02803 7.86416 2.59157 
1.41991 5.83323 2.37601 3.56265 9.30699 3.65068 0.628096 9.40628 3.15246 
0.0111716 9.53614 2.27244 2.51329 8.23643 3.30657 4.39003 6.84071 3.33203 
1.7813 5.36782 2.02486 0.300683 5.50416 3.97728 1.2874 8.35504 3.38778 
1.33287 5.62614 3.46227 0.447748 6.14086 2.19458 0.983843 7.18575 2.39573 
1.10765 8.07448 2.29595 2.18665 6.41273 2.90252 2.84947 5.44919 3.70573 
0.726179 5.70582 2.84029 2.22501 7.93447 2.32027 3.60091 9.07931 2.00571 
0.251866 6.15212 3.25604 2.02383 8.58572 2.63669 0.265537 7.33453 2.86823 
1.74341 5.39439 2.94959 1.87002 7.20951 3.28601 2.03919 8.19436 3.9995 
1.59345 6.43303 3.59909 4.8298 5.53686 3.77658 1.53066 9.03398 2.60132 
1.00692 7.39571 3.51536 3.96136 8.72597 3.06321 2.61122 9.23711 3.29017 
4.68359 8.43242 3.63186 4.67676 6.26127 3.97154 4.7726 7.62537 2.84255 
4.85898 7.70146 2.10698 4.8502 5.71689 2.79317 0.432714 7.83991 4.12968 
2.91778 9.23081 4.30046 0.739337 6.32404 5.44526 4.74209 6.96799 4.51905 
1.49751 9.40498 4.36866 3.91061 6.31249 4.08931 3.05359 8.49955 5.14742 
0.754275 9.14321 5.86972 1.51023 7.07726 4.13926 3.78462 5.30952 4.25117 
3.86867 8.05995 4.58384 0.478648 9.26192 4.1286 4.40734 9.16562 4.95083 
3.3431 6.95752 5.88129 3.93021 5.17036 5.17898 2.90127 7.27654 4.35522 
4.04974 7.69504 5.45441 0.422464 8.2155 5.1515 2.98934 8.37636 4.17082 
2.96445 5.27754 4.78215 4.74503 5.4078 4.83781 2.62576 6.96307 5.2597 
0.677847 9.10977 4.92796 2.8818 6.49914 4.54865 1.00952 9.9404 5.31569 
3.90167 8.74805 4.05184 1.80676 5.30846 4.21071 2.02459 6.22122 4.14433 
4.31396 6.85417 5.90709 3.4208 9.63363 5.18265 3.61044 6.50239 5.17325 
1.18356 8.17746 4.31679 0.723927 7.45917 5.52777 1.65791 7.36363 5.56711 
1.72024 6.46492 5.86555 3.64899 8.30103 5.75357 2.32188 9.49882 4.78786 
0.124388 7.03348 4.56857 4.49191 7.52185 4.8523 1.65577 5.9867 4.98917 
0.645352 5.9601 4.65893 0.98495 5.38146 5.54873 2.06435 8.28118 5.18074 
1.93021 6.83122 4.71071 2.0072 5.54611 5.68429 4.09786 9.35079 5.82349 
1.2477 7.50368 4.79246 1.98531 8.9676 4.01595 1.44032 9.02519 5.39585 
4.43957 6.20235 5.32241 1.0945 5.39626 4.27925 4.8139 8.64884 5.92098 
0.698083 8.13181 6.09479 3.50353 5.0742 6.93079 4.56736 7.32427 6.71032 
[...]
POINT_DATA 1000
FIELD FieldData 7
id 1 1000 int
186 414 354 207 210 440 395 557 808 
91 480 952 593 208 868 147 266 656 
941 138 547 722 439 520 904 361 109 
509 606 802 851 216 794 196 540 831 
690 357 465 467 198 1000 293 56 165 
268 860 853 568 197 939 744 620 364 
782 806 273 400 931 666 248 288 97 
870 848 416 701 580 918 450 556 548 
251 702 816 153 785 895 975 180 231 
823 21 285 786 890 731 295 222 217 
3 769 35 958 472 161 921 700 658 
674 130 96 347 963 827 8 532 961 
79 61 191 466 156 178 715 260 565 
640 510 763 821 169 927 983 803 363 
24 516 399 7 101 951 190 351 86 
154 336 6 919 812 572 964 780 95 
892 428 586 282 552 747 51 67 200 
978 237 616 17 283 84 995 2 646 
204 241 705 721 875 345 935 470 55 
910 373 42 596 863 199 415 550 959 
970 745 184 573 487 650 639 949 917 
390 436 375 5 33 225 938 360 408 
932 167 257 321 205 791 281 891 4 
393 318 710 876 940 157 980 694 648 
861 74 316 23 108 249 348 797 502 
254 929 881 98 621 595 541 717 331 
672 809 201 713 391 767 966 22 790 
441 140 521 992 269 150 330 680 883 
386 181 202 325 837 455 997 677 539 
274 962 458 942 343 774 404 772 950 
46 886 651 340 164 118 587 545 259 
302 401 100 623 670 567 461 696 129 
750 405 637 554 193 563 534 864 518 
825 45 627 19 243 638 682 279 174 
920 873 583 151 571 275 244 874 514 
588 543 625 896 380 996 299 149 489 
657 515 991 206 801 434 723 841 75 
944 727 398 176 893 817 53 313 820 
286 519 143 187 250 633 829 872 83 
576 38 729 117 558 994 238 227 985 
68 306 444 15 584 81 497 394 602 
698 342 524 473 836 230 867 923 866 
334 158 653 915 969 536 451 99 800 
370 871 110 943 628 604 757 724 822 
900 631 781 703 501 474 432 589 107 
676 730 684 319 359 43 546 116 175 
937 221 599 973 369 622 335 379 486 
659 784 423 124 435 123 239 505 564 
559 54 34 94 381 594 906 192 678 
402 914 496 807 89 706 643 103 463 
37 494 998 752 220 219 849 879 28 
438 297 815 315 615 968 119 52 953 
27 719 618 491 928 209 764 137 303 
528 13 236 127 18 322 397 183 555 
427 276 301 888 392 296 884 328 304 
457 776 453 36 877 842 106 358 163 
80 683 530 307 912 309 787 582 25 
768 655 699 549 581 708 865 339 430 
810 372 173 654 350 905 418 488 894 
527 503 11 986 993 626 62 924 887 
478 447 644 857 9 947 126 443 828 
389 172 930 689 413 542 989 454 185 
957 300 247 445 956 742 506 579 792 
232 909 760 889 526 575 267 562 566 
333 459 76 78 741 629 327 712 65 
850 481 104 312 228 189 88 177 835 
765 513 908 120 826 12 665 482 844 
133 770 833 913 258 614 270 280 426 
551 352 610 789 619 93 647 139 406 
142 592 661 371 609 58 798 10 667 
759 102 182 292 783 253 845 492 203 
600 697 356 40 751 211 337 464 624 
308 601 804 754 121 168 671 613 460 
422 468 290 224 136 608 314 452 748 
159 756 410 743 960 376 673 320 675 
421 484 611 245 31 645 862 64 988 
50 955 305 504 82 264 233 338 115 
660 132 544 146 113 897 495 766 311 
511 738 374 162 446 346 869 687 880 
746 47 155 485 740 383 277 733 737 
899 753 977 310 498 287 598 148 39 
971 353 252 981 16 984 298 577 843 
999 607 382 795 214 911 922 590 388 
987 533 926 1 284 483 278 329 652 
778 125 925 761 152 603 26 728 77 
424 779 341 664 128 412 141 396 735 
362 846 538 20 170 420 429 425 858 
419 218 824 739 30 561 41 261 972 
213 263 597 60 679 471 437 384 226 
349 212 819 704 736 317 634 976 885 
385 663 493 122 695 324 855 63 642 
368 838 114 522 982 409 499 442 449 
490 916 847 948 387 194 179 762 707 
636 839 90 691 255 758 29 407 234 
171 574 112 902 901 832 265 134 560 
240 799 59 811 271 714 507 145 344 
979 570 14 367 771 685 535 693 974 
476 131 612 788 709 469 523 591 71 
818 830 289 967 553 531 332 366 262 
859 512 477 294 215 85 617 777 500 
475 195 160 456 907 725 111 291 688 
813 57 720 662 649 936 814 641 69 
272 417 377 945 933 668 479 954 805 
72 718 716 585 32 934 734 669 630 
878 378 70 223 903 796 686 834 92 
365 246 732 990 256 898 525 578 323 
946 773 793 692 681 411 66 431 87 
105 775 73 433 726 635 856 48 882 
854 242 44 144 235 517 403 188 355 
852 229 840 326 965 569 166 749 605 
462 508 632 529 135 711 49 755 537 
448 
type 1 1000 int
1 1 1 1 1 1 1 2 2 
1 1 2 2 1 2 1 1 2 
2 1 2 2 1 2 2 1 1 
2 2 2 2 1 2 1 2 2 
2 1 1 1 1 2 1 1 1 
1 2 2 2 1 2 2 2 1 
2 2 1 1 2 2 1 1 1 
2 2 1 2 2 2 1 2 2 
1 2 2 1 2 2 2 1 1 
2 1 1 2 2 2 1 1 1 
1 2 1 2 1 1 2 2 2 
2 1 1 1 2 2 1 2 2 
1 1 1 1 1 1 2 1 2 
2 2 2 2 1 2 2 2 1 
1 2 1 1 1 2 1 1 1 
1 1 1 2 2 2 2 2 1 
2 1 2 1 2 2 1 1 1 
2 1 2 1 1 1 2 1 2 
1 1 2 2 2 1 2 1 1 
2 1 1 2 2 1 1 2 2 
2 2 1 2 1 2 2 2 2 
1 1 1 1 1 1 2 1 1 
2 1 1 1 1 2 1 2 1 
1 1 2 2 2 1 2 2 2 
2 1 1 1 1 1 1 2 2 
1 2 2 1 2 2 2 2 1 
2 2 1 2 1 2 2 1 2 
1 1 2 2 1 1 1 2 2 
1 1 1 1 2 1 2 2 2 
1 2 1 2 1 2 1 2 2 
1 2 2 1 1 1 2 2 1 
1 1 1 2 2 2 1 2 1 
2 1 2 2 1 2 2 2 2 
2 1 2 1 1 2 2 1 1 
2 2 2 1 2 1 1 2 2 
2 2 2 2 1 2 1 1 1 
2 2 2 1 2 1 2 2 1 
2 2 1 1 2 2 1 1 2 
1 2 1 1 1 2 2 2 1 
2 1 2 1 2 2 1 1 2 
1 1 1 1 2 1 1 1 2 
2 1 2 1 2 1 2 2 2 
1 1 2 2 2 2 1 1 2 
1 2 1 2 2 2 2 2 2 
2 2 2 2 2 1 1 2 1 
2 2 2 1 1 1 2 1 1 
2 1 2 2 1 2 1 1 1 
2 2 1 1 1 1 1 2 2 
2 1 1 1 1 2 2 1 2 
1 2 1 2 1 2 2 1 1 
1 1 2 2 1 1 2 2 1 
1 1 2 1 2 2 1 1 2 
1 2 2 1 2 1 2 1 1 
2 1 1 1 1 1 1 1 2 
1 1 1 2 1 1 2 1 1 
1 2 1 1 2 2 1 1 1 
1 2 2 1 2 1 2 2 1 
2 2 2 2 2 2 2 1 1 
2 1 1 2 1 2 1 1 2 
2 2 1 2 2 2 1 2 2 
1 1 2 2 1 2 1 1 2 
1 1 2 2 1 2 2 1 1 
2 1 1 1 2 2 2 2 2 
1 2 2 2 2 2 1 2 2 
1 1 1 1 2 2 1 2 1 
2 1 1 1 1 1 1 1 2 
2 2 2 1 2 1 2 1 2 
1 2 2 2 1 2 1 1 1 
2 1 2 2 2 1 2 1 1 
1 2 2 1 2 1 2 1 2 
2 1 1 1 2 1 2 1 1 
2 2 1 1 2 1 1 1 2 
1 2 2 2 1 1 2 2 1 
1 1 1 1 1 2 1 1 2 
1 2 1 2 2 1 2 1 2 
1 1 2 1 1 2 2 1 2 
1 2 1 2 1 1 1 1 1 
2 1 2 1 1 2 1 2 1 
2 2 1 1 1 1 2 2 2 
2 1 1 1 2 1 1 2 2 
2 2 2 1 1 1 2 1 1 
2 1 1 2 1 2 1 2 2 
2 2 1 2 1 2 2 2 1 
2 2 2 1 1 1 1 1 2 
2 1 2 2 1 2 1 2 1 
1 2 1 2 1 1 1 1 2 
1 2 2 1 1 1 1 1 2 
1 1 2 2 1 2 1 1 2 
1 1 2 1 2 1 1 1 1 
1 1 2 2 2 1 2 2 2 
1 2 1 1 2 1 2 1 2 
1 2 1 2 2 1 1 1 1 
1 2 2 2 1 1 1 2 2 
2 2 1 2 1 2 1 1 1 
1 2 1 2 2 2 1 1 2 
1 2 1 2 1 2 2 1 1 
2 2 1 1 2 2 2 2 2 
1 1 2 2 2 1 2 2 1 
2 2 1 2 2 2 1 1 1 
2 2 1 1 1 1 2 2 1 
1 1 1 1 2 2 1 1 2 
2 1 2 2 2 2 2 2 1 
1 1 1 2 2 2 1 2 2 
1 2 2 2 1 2 2 2 2 
2 1 1 1 2 2 2 2 1 
1 1 2 2 1 2 2 2 1 
2 2 2 2 2 1 1 1 1 
1 2 1 1 2 2 2 1 2 
2 1 1 1 1 2 1 1 1 
2 1 2 1 2 2 1 2 2 
1 2 2 2 1 2 1 2 2 
1 
i 3 1000 int
208 1 0 162 1 0 -68 0 1 
211 1 1 182 1 0 -24 0 0 
139 1 0 192 1 0 82 0 0 
-17 0 0 -124 0 2 -12 0 0 
7 0 1 -42 0 1 -101 0 2 
-131 0 0 -270 -1 0 -116 0 1 
-47 0 0 -53 0 1 55 0 0 
-131 0 0 -85 0 0 70 0 1 
182 1 0 -65 0 0 72 1 1 
-122 0 0 -146 0 -1 70 1 1 
-165 0 0 -132 0 1 -10 0 0 
267 1 0 -289 -1 0 72 0 0 
153 1 0 -267 0 1 -31 0 1 
355 1 1 -10 0 1 -112 0 0 
-149 0 1 -57 0 0 21 0 0 
38 0 0 -31 0 1 198 1 0 
-81 0 0 136 1 0 -54 0 0 
196 1 0 -34 0 0 -64 0 0 
72 0 -1 -103 0 0 -210 0 2 
-143 0 0 26 0 0 2 0 0 
-266 0 0 -51 0 -1 43 1 0 
-2 0 1 -230 0 1 -108 0 0 
115 1 0 218 1 0 -123 0 0 
176 1 0 144 1 -1 -150 0 1 
-87 0 0 233 1 0 -17 0 0 
19 0 0 315 1 1 -96 0 0 
234 1 1 -9 0 0 -38 0 1 
246 1 -1 -98 0 1 54 0 -1 
-169 0 1 -59 0 -1 334 1 0 
153 1 -1 283 1 0 -81 0 0 
57 0 0 -56 0 1 -143 0 1 
214 1 2 13 0 1 -2 0 1 
-76 0 1 143 1 1 -73 0 0 
-61 0 0 -67 0 0 -110 0 0 
-21 0 -1 107 1 0 -57 0 0 
94 1 1 59 0 0 -22 0 0 
-124 0 1 -146 0 0 173 1 0 
126 1 0 68 1 0 83 1 0 
178 1 0 -145 0 0 -122 0 0 
-134 0 0 -62 0 -1 114 1 1 
220 1 0 248 1 0 9 0 0 
-10 0 -1 252 1 0 76 1 -1 
207 1 -1 -110 0 1 -130 0 -1 
-84 0 0 -109 0 0 -49 0 0 
-48 0 1 3 0 1 -37 0 1 
0 0 0 99 0 0 30 0 -1 
-183 -1 0 13 0 1 -96 0 0 
72 0 -1 -172 0 0 -35 0 0 
54 0 -1 -95 0 1 284 1 0 
251 1 0 73 0 -1 -205 0 0 
-18 0 1 285 1 1 -142 0 0 
26 0 -1 -133 0 0 -48 0 0 
-129 0 -1 -166 0 0 107 0 0 
-141 0 1 -62 0 0 -58 0 0 
-143 0 1 343 1 1 -168 0 0 
229 1 0 -59 0 1 220 1 0 
-79 0 0 123 1 -1 154 1 0 
-60 0 1 -166 0 -1 -97 0 0 
-109 0 0 -69 0 0 -234 0 -1 
-6 0 -1 50 0 0 182 1 0 
213 0 -1 -75 0 1 56 0 0 
-128 0 0 -134 0 -1 -50 0 0 
117 1 0 99 0 1 37 0 0 
154 1 -1 71 0 0 217 1 -1 
22 0 -1 279 1 0 -136 0 0 
4 0 -1 -243 -1 0 -36 0 -1 
-87 0 0 205 1 -1 -54 0 0 
-18 0 -1 -83 1 -1 50 0 -1 
-10 0 -1 14 0 -1 -182 0 -1 
137 1 -1 -90 0 0 96 0 -1 
-103 0 0 -21 0 -2 -70 0 0 
192 1 1 -237 0 0 236 1 0 
-66 0 0 -21 0 0 -149 0 -1 
-142 0 0 -184 0 0 -90 0 1 
-33 0 0 213 1 -1 -149 0 0 
-14 0 -1 -23 0 1 -12 0 -1 
-56 0 -1 0 0 0 134 1 0 
221 1 -1 -108 0 0 -12 0 -1 
-19 0 -1 209 1 -1 -82 0 0 
-218 0 0 -8 0 -1 -108 0 0 
-84 0 0 178 1 -1 -215 -1 0 
39 0 0 132 1 0 -102 0 0 
-140 0 0 -175 -1 0 122 0 0 
77 0 0 -185 -1 0 12 0 0 
113 0 0 147 0 0 117 0 0 
147 0 -1 -245 -1 0 35 0 0 
57 0 1 25 0 1 -106 0 1 
-246 -1 -1 -167 -1 0 39 0 0 
67 0 0 -104 -1 1 -218 -1 1 
19 0 1 -58 0 2 32 0 -1 
94 0 1 344 1 0 28 0 0 
17 0 0 86 0 -1 184 0 1 
-16 0 1 133 0 -1 -169 -1 -1 
124 0 0 61 0 0 -1 0 0 
-55 0 1 -116 -1 1 44 0 1 
317 1 0 40 0 0 -236 -1 0 
-153 -1 1 9 0 0 -131 -1 2 
-249 -1 0 209 0 0 39 0 1 
53 0 1 -27 0 1 -243 -1 0 
143 0 -1 121 0 1 6 0 0 
-140 -1 0 -58 0 0 91 0 -1 
44 0 0 458 1 0 99 0 -1 
-216 -1 1 -205 -1 0 -155 -1 1 
-2 0 0 58 0 1 -175 -1 0 
-373 -1 0 126 0 0 -109 -1 0 
89 0 1 -183 -1 1 -36 0 0 
-20 0 -1 -42 0 1 -111 -1 0 
20 0 0 -18 0 0 103 0 -1 
113 0 0 -243 -1 -1 75 0 0 
-47 0 1 -283 -1 -1 -135 -1 0 
114 0 0 82 0 0 265 1 1 
-88 0 1 -1 0 1 122 0 -1 
80 0 1 15 0 0 63 0 0 
76 0 0 -192 -1 -1 -163 -1 0 
93 0 1 -177 -1 -1 111 0 0 
-54 0 1 -54 0 1 -189 -1 1 
-91 -1 0 4 0 0 173 0 0 
116 0 0 -76 0 1 199 0 1 
-191 -1 0 82 0 0 82 0 0 
-255 -1 0 -158 -1 1 98 0 0 
131 0 0 84 0 -1 92 0 1 
-157 -1 2 -125 -1 0 73 0 1 
180 0 1 207 1 -1 150 0 0 
94 0 -1 -8 0 1 -88 -1 1 
63 0 0 138 0 -1 117 0 0 
63 0 0 172 0 0 49 0 -1 
97 0 0 -99 -1 1 317 1 0 
67 0 0 142 0 0 -200 -1 0 
46 0 1 -212 -1 -1 359 1 0 
-15 0 0 -12 0 0 -113 -1 1 
-176 -1 0 39 0 1 118 0 1 
86 0 0 -230 -1 0 -140 -1 0 
-188 -1 0 37 0 0 187 0 0 
-180 -1 0 210 1 0 70 0 0 
58 0 0 105 0 0 -258 -1 1 
124 0 -1 -213 -1 -1 74 0 0 
36 0 -1 -4 0 0 -145 -1 0 
37 0 0 62 0 0 44 0 -1 
-108 -1 0 100 0 0 101 0 -1 
-2 0 0 -28 0 0 59 0 0 
-125 -1 0 -198 -1 0 239 1 1 
-144 -1 0 -50 0 1 -269 -1 0 
140 0 0 61 0 -1 -15 0 -1 
-299 -1 0 -207 -1 0 27 0 0 
-177 -1 0 83 0 0 171 0 0 
-1 0 0 57 0 0 -164 -1 1 
108 0 0 41 0 0 51 0 -1 
-211 -1 0 51 0 0 87 0 -1 
-122 -1 0 -167 -1 0 65 0 0 
32 0 1 29 0 0 174 0 0 
-331 -1 -1 51 0 -1 -108 0 0 
32 0 -2 323 1 0 18 0 -1 
42 0 0 169 0 1 81 0 -1 
11 0 -1 127 0 -1 172 0 -1 
61 0 0 172 0 -1 257 0 0 
7 0 0 187 0 0 93 0 -1 
-171 -1 0 172 0 0 -123 -1 1 
109 0 -1 27 0 -1 -291 -1 -1 
-48 0 0 -209 -1 -1 169 0 0 
99 0 -1 23 0 -1 -201 -1 0 
-176 -1 0 -45 0 0 160 0 -1 
101 0 -1 134 0 -2 -35 0 -1 
-34 0 -1 -251 -1 0 69 0 -1 
416 1 0 -14 0 -1 71 0 -2 
89 0 0 37 0 -1 -204 -1 0 
57 0 -1 -166 -1 0 69 0 -1 
-244 -1 -1 231 1 1 -141 0 1 
-68 0 0 -79 0 0 206 1 1 
-61 0 1 88 1 0 -83 0 2 
247 1 -1 3 0 0 104 1 0 
-77 0 1 -13 0 0 -146 0 0 
-142 0 -1 -253 0 1 25 0 -1 
-157 0 0 -30 0 1 -164 0 1 
-119 0 0 -77 0 1 -31 0 1 
33 0 1 -159 0 1 201 1 1 
-85 0 1 219 1 0 -76 0 0 
-152 0 1 -123 0 1 14 0 0 
0 0 0 34 1 0 -26 0 0 
59 0 1 36 0 1 -68 0 -1 
-50 0 0 -51 0 1 179 1 0 
-30 0 1 56 0 1 355 1 1 
-41 0 0 309 1 0 -15 0 1 
225 1 -1 151 1 0 -68 0 1 
-99 0 0 -191 0 0 -59 0 0 
-149 0 1 -57 0 0 -233 0 1 
56 0 0 241 1 0 -6 0 0 
31 0 0 136 1 -1 -179 0 0 
-46 0 0 -109 0 1 2 0 -1 
-114 0 0 -58 0 0 269 1 0 
-97 0 1 -113 0 1 -57 0 1 
3 0 0 -142 0 1 182 1 -1 
-172 0 0 124 0 1 287 1 1 
-40 0 0 5 0 0 114 0 1 
-34 0 1 -120 0 0 -176 0 -1 
-62 0 0 128 1 0 -84 0 0 
90 0 1 60 0 -1 -6 0 0 
3 0 1 -128 0 1 221 1 0 
61 0 0 51 0 1 -57 0 1 
274 1 0 -80 0 0 -87 0 1 
-171 0 0 312 1 0 -100 0 0 
161 1 1 96 1 0 197 1 0 
159 1 1 -67 0 0 -31 0 0 
-31 0 0 -132 0 1 162 1 0 
-116 0 1 -146 0 0 147 1 -1 
42 1 0 -104 0 0 51 0 -1 
-75 0 0 -90 0 1 167 1 -1 
-108 0 0 -52 0 0 -68 0 1 
-100 0 -1 -38 0 0 -83 0 -1 
-23 0 0 -47 0 0 39 0 -1 
-179 0 0 -176 0 1 -49 0 0 
-91 0 -1 -26 0 -1 42 0 -1 
-362 -1 -1 -93 0 1 -218 0 0 
-36 0 0 -153 0 0 -187 0 0 
-28 0 1 -36 0 -1 27 0 0 
-45 0 0 196 1 1 194 1 0 
174 1 0 17 0 0 10 0 -1 
-99 0 1 127 1 0 -177 0 -1 
-128 0 0 262 1 -1 89 1 0 
-29 0 0 -55 0 0 -23 0 0 
-299 -1 -2 7 0 0 211 1 0 
-174 0 0 -4 0 -1 -51 0 0 
-106 0 0 25 0 0 244 1 -1 
263 1 -1 -124 0 1 -65 0 -1 
-72 0 0 206 1 0 -209 0 0 
164 1 -1 45 0 0 -82 0 -1 
212 1 -1 29 0 0 -49 0 0 
-23 0 0 185 1 0 151 1 -1 
-50 0 0 44 0 -1 5 0 0 
40 0 0 9 0 1 65 0 -1 
74 0 0 28 0 -1 -22 0 -1 
-129 0 0 139 1 0 167 1 -1 
-19 0 0 38 0 0 -16 0 0 
-4 0 0 38 0 -1 78 1 0 
-89 0 1 -72 0 0 -30 0 0 
-23 0 -1 234 1 0 -33 0 0 
196 1 -1 -48 0 0 259 1 0 
3 1 0 187 1 0 0 0 0 
-54 0 -1 -144 0 -1 35 0 0 
-122 0 1 -88 0 0 -88 0 0 
-151 0 0 106 0 -1 -82 0 0 
-156 0 -1 67 0 0 156 1 -1 
105 1 0 211 1 0 213 1 0 
-89 0 0 -38 0 0 -110 0 -1 
49 0 0 153 1 0 197 1 0 
126 1 -1 -139 0 0 217 1 0 
-151 0 -1 214 1 -1 -37 0 0 
-47 0 -1 78 0 0 -260 -1 -2 
-97 0 -1 -26 0 -1 -270 -1 -2 
22 0 0 -28 0 -1 -212 0 0 
214 1 0 312 1 -1 193 1 0 
-219 0 -1 -109 0 -1 190 1 -1 
230 1 -1 -144 0 0 -51 0 0 
-160 0 0 -308 -1 0 145 0 0 
-159 -1 1 62 0 1 230 0 0 
166 0 0 31 0 1 163 0 1 
-16 0 1 4 0 0 17 0 0 
126 0 0 81 0 1 -265 -1 1 
-113 -1 1 -8 0 1 52 0 0 
66 0 1 -44 0 1 226 0 1 
-223 -1 0 151 0 0 -35 -1 1 
11 0 1 -173 -1 1 0 0 0 
127 0 0 6 0 0 26 0 1 
31 0 0 36 0 1 88 0 0 
-177 0 0 2 0 0 16 0 0 
296 1 1 -107 -1 1 -136 -1 1 
49 0 1 0 0 0 96 0 1 
-92 0 0 -19 0 0 -194 -1 1 
80 0 1 206 0 0 -61 0 1 
127 0 -1 -269 -1 2 -9 0 1 
96 0 -1 61 0 0 51 0 0 
-272 -1 0 107 0 0 221 0 0 
132 0 0 114 0 0 135 0 0 
-270 -1 0 109 0 0 -281 -1 0 
60 0 0 8 0 1 -276 -1 -1 
-5 0 1 83 0 -1 389 1 1 
88 0 0 25 0 0 36 0 0 
-234 -1 0 -137 -1 0 29 0 0 
249 0 0 -229 -1 0 -289 -1 0 
120 0 0 -143 -1 1 -374 -1 0 
-182 -1 1 -21 0 1 49 0 0 
227 1 0 -184 -1 1 10 0 0 
128 0 0 45 0 0 -55 0 0 
-17 0 0 28 0 1 22 0 0 
296 1 1 -154 -1 0 15 0 0 
-62 0 1 -165 -1 0 58 0 0 
-213 -1 1 153 0 0 99 0 -1 
73 0 0 -39 0 0 439 1 0 
-193 -1 0 166 0 0 80 0 0 
100 0 0 -280 -1 1 43 0 1 
155 0 -1 -169 -1 0 32 0 1 
135 0 0 76 0 -1 392 1 0 
-143 -1 1 121 0 0 -42 -1 1 
112 0 0 159 0 0 162 0 0 
-152 -1 1 -323 -1 1 103 0 0 
153 0 0 334 1 -1 -267 -1 -1 
196 0 -1 -296 -1 1 -67 0 0 
-139 0 0 -3 0 1 -202 -1 0 
-234 -1 1 76 0 -1 124 0 0 
94 0 0 84 0 0 94 0 1 
102 0 1 -197 -1 -1 66 0 0 
76 0 0 -252 -1 1 95 0 0 
-96 -1 0 -148 -1 0 -29 0 -1 
151 0 0 -142 -1 0 -62 -1 1 
229 0 0 156 0 0 46 0 -1 
-127 -1 1 60 0 0 41 0 0 
-240 -1 1 -31 0 0 -146 -1 0 
-207 -1 -1 128 0 0 -308 -1 1 
104 0 -1 -20 0 0 24 0 0 
83 0 0 217 0 -1 -141 -1 -1 
192 0 0 -217 -1 0 -29 0 -1 
-155 -1 0 211 0 -1 76 0 -1 
-59 0 0 -310 -1 0 110 0 0 
158 0 0 -180 -1 0 99 0 0 
26 0 -1 -28 0 -1 26 0 -1 
75 0 -1 61 0 0 91 0 0 
-241 -1 -1 215 0 0 -306 -1 1 
17 0 0 22 0 0 -34 0 0 
-278 -1 -1 126 0 -1 -287 -1 -1 
103 0 -1 -124 -1 -1 171 0 -1 
184 0 -1 31 0 0 -3 0 -1 
-112 -1 0 -134 -1 -1 19 0 0 
169 0 0 -180 -1 -1 -24 -1 -1 
245 1 -1 165 0 -1 -347 -1 0 
-200 -1 0 83 0 -1 -4 0 0 
29 0 -1 -340 -1 0 93 0 -1 
24 0 -1 27 0 -1 6 0 0 
-11 0 -1 20 0 0 162 0 0 
-228 -1 0 -156 -1 0 -8 0 0 
9 0 0 86 0 -1 241 0 -1 
81 0 -1 -235 -1 0 38 0 0 
141 0 -1 -331 -1 0 33 0 -1 
-24 0 0 11 0 -1 159 0 -1 
15 0 0 -41 0 -1 154 0 0 
39 0 0 
v 3 1000 double
-88.980696932 -6.4162453057 10.528173905 -481.43006538 9.3340847037 7.3488423303 -255.4333567 16.084193659 1.2606020381 
-417.93292 8.2420323427 23.29103382 -471.33128308 7.8330154305 12.890930804 -402.18315043 -11.329929821 -27.408957781 
-413.39322468 -2.7725517016 3.4800461686 -198.54699691 -15.786260842 -0.5806628656 -331.14241692 10.51223556 16.032513265 
-240.94713117 -1.403989286 24.263134944 -352.98583974 -6.3417659531 15.648197569 -393.49241341 24.276436246 -9.3377683478 
-327.23873447 35.719736694 7.2879358132 -213.51636363 -16.371375963 10.494234415 -375.48898461 18.413273822 -3.0111800106 
-155.23814715 -14.65632106 1.4008287353 -252.96413182 13.282765347 -4.5308047464 -155.44934926 3.0931412104 -5.1090261316 
-428.63986452 -25.701930815 5.4512083633 -51.227977593 -39.601589645 21.430250399 -88.438403599 -10.662999274 5.9619444543 
-406.58996537 6.7963311603 0.96662241126 -417.84813461 44.385895187 10.612451926 -156.84589539 4.2946190411 -0.63009696784 
-133.17505826 -15.984458317 9.563256715 -233.7959516 21.900303468 -5.4777246328 -463.96083787 9.2207614346 -18.10509177 
-268.78426332 -1.343583148 -20.426686097 -310.48399933 15.918044311 -12.489517592 -362.67498645 -36.250887626 -21.96650623 
-53.635532355 -6.1200226115 -0.028281303328 -37.895444037 5.4129123471 4.7154977425 -347.44775493 4.9720124438 -18.85047617 
-95.448645 -2.9680711377 -12.380115955 -55.571347225 -9.513377819 -5.3978095364 -44.785639481 -0.64992879419 -0.41951414126 
-486.14256245 0.59442627211 -3.3474579861 -413.58227957 10.626821751 17.473252008 -327.33405668 18.279470712 -2.1888639451 
-12.524619686 0.65777374181 3.3425543269 -60.669043121 -21.189887473 -10.788214983 -332.06070786 3.7484517805 13.101765295 
-240.60933383 8.108955972 3.5480090866 -133.13952991 -17.183997925 -9.8228361719 -263.00625279 33.397177508 -10.453593574 
-42.784624886 -0.63322327568 8.9163693444 -51.853000501 -13.560801307 14.22868254 -484.31856197 19.237112365 -8.9151305505 
-350.62284717 -1.3935493577 12.844612225 -483.22211504 -0.18622981998 -16.828755466 -161.23325694 4.694078531 -6.642191491 
-205.14771276 -6.6366105139 -12.073721866 -375.12345804 23.665811197 -4.3254152357 -243.38147888 2.5426833555 -20.956312543 
-296.99300415 3.4199633135 12.130151467 -229.69945042 -4.4226474624 -8.4184492326 -486.29220588 -13.371236664 5.7161193964 
-223.1020361 -19.955837849 -1.1903923893 -89.019758058 -6.7221089744 -11.688762434 -408.76361576 17.633808937 10.7328979 
-470.48832762 -3.5221426972 3.0029615495 -280.41911037 -2.5820356417 17.920166862 -454.45077829 5.2706943796 -8.3908265654 
-23.648249091 -16.270519719 2.5331141508 -443.03926003 12.6123053 6.596837561 -249.73752281 -10.398045656 -4.0798588767 
-477.90525147 29.492387384 -11.985752077 -110.60214744 -2.3722874166 -21.519374098 -385.93583506 -22.971473208 -11.103683241 
-398.4746779 23.48218999 -11.148072747 -376.45765995 10.24073712 -24.043663234 -294.38807368 -13.446405441 6.4886709779 
-221.97694226 5.3972007266 -4.6694215141 -288.04489353 -21.890665503 -7.5762893472 -219.35620997 13.34347313 -15.602846384 
-103.88888184 -16.22890105 0.2874325061 -300.24660086 16.278150467 -0.95564116619 -470.62817507 6.7280846791 9.4297771599 
-54.788067978 4.5936782765 19.022805941 -234.44076813 14.204461948 -4.5165701931 -90.836075993 -22.263740749 8.4804779207 
-370.34280343 1.1986685202 6.004660044 -261.14123689 4.9064346597 -24.338018767 -47.240304347 -2.0034576191 -7.5185833176 
-388.05782754 -7.360564351 10.966700163 -470.45398994 -15.317398876 -0.43688773578 -143.96317781 -21.992141759 16.24845334 
-486.3189446 6.3614738363 -18.449370063 -44.283465929 -14.224051378 12.817233991 -389.77260397 -15.543810368 -5.7443147567 
-99.731548521 -6.2401326057 -24.954318903 -369.31715235 -4.5281117886 0.013020538535 -65.926113289 22.286087441 -1.9324983239 
-373.00816708 -8.2559450404 -5.5322715243 -8.4375898553 22.239110116 27.858872536 -105.52917495 -6.8969809208 -7.2937683787 
-118.23179972 -14.412107651 10.735292109 -208.55088043 -26.973227657 4.9873716364 -375.93618034 2.533211799 12.709391463 
-252.58720944 -0.95188036415 4.4258715101 -271.16595057 1.6201336466 14.667825816 -389.95767486 0.35178107189 24.937733688 
-146.95884161 -4.5173702922 -22.133607279 -499.76890117 5.080773334 20.904698877 -99.646747304 9.2055533998 -9.7221659625 
-507.99768753 21.998139057 11.814972966 -86.023175228 -15.147313172 -21.068910536 -169.36292139 6.7857301615 -42.32758757 
-281.41827175 10.793367503 -37.429467982 -294.19864541 -27.588256944 -15.494002793 -506.40069104 3.5952117742 -8.4080248202 
-424.32615851 9.1058247895 -11.656963613 -475.70011434 -8.8764979909 -6.2307028848 -401.32824837 16.839987758 -4.3026062088 
-496.19302378 8.7403621875 -8.4441167071 -404.51075666 3.3663939928 11.816250548 -333.2283948 -5.3412659622 -19.959283952 
-178.28661302 -16.64097883 -13.330152292 -235.60235855 -8.6343156263 19.773542759 -434.95845017 8.0144332419 -3.8216729259 
-164.83672676 0.8578210051 16.445788409 -383.24794976 -14.035825004 13.735867802 -189.99845803 27.629383117 -22.403131766 