ITEM: TIMESTEP
29500
ITEM: NUMBER OF ATOMS
1000
ITEM: BOX BOUNDS xy xz yz pp pp pp
0 10 0
0 10 0
-0 10 0
ITEM: ATOMS id type type x y z ix iy iz vx vy vz fx fy fz omegax omegay omegaz radius 
218 1 1 2.33218 2.68128 0.0624506 23 0 0 -214.843 21.3467 7.67956 1164.95 1569.55 69.4641 0 0 0 0.5 
731 2 2 0.294793 0.922195 1.55044 232 1 0 -374.034 -17.1043 -6.46091 -3018.2 2203.85 -1126.38 0 0 0 0.5 
127 1 1 4.16404 0.181686 1.76873 -80 0 1 -560.85 16.5137 8.4815 4452.58 -2791.61 296.787 0 0 0 0.5 
19 1 1 4.03254 1.18558 1.1868 -67 0 0 -388.6 9.80885 -11.7458 -903.74 1034.98 890.324 0 0 0 0.5 
372 1 1 1.78698 0.482192 1.44191 -89 0 1 -483.599 -1.82182 2.07084 -432.288 -2094.06 -144.345 0 0 0 0.5 
222 1 1 1.58915 1.28364 1.49907 170 1 1 -377.205 3.67531 22.4572 2169.45 1581.4 692.733 0 0 0 0.5 
759 2 2 0.196616 2.36439 1.40111 -46 0 0 -271.797 12.8513 -8.23719 113.11 786.335 1596.42 0 0 0 0.5 
121 1 1 0.00611643 2.01366 0.0960196 153 1 0 -353.958 25.4042 -8.06446 671.34 -272.241 711.953 0 0 0 0.5 
648 2 2 1.76037 0.245725 0.308782 155 1 1 -463.305 -11.8627 -23.4181 762.495 737.746 -1126.68 0 0 0 0.5 
159 1 1 3.39835 0.731699 1.8771 160 1 0 -456.76 14.0124 -17.2407 -4558.22 2524.3 1169.2 0 0 0 0.5 
341 1 1 3.76473 3.34201 1.58513 22 0 0 -176.686 14.4019 -17.7042 132.503 1478.49 1408.07 0 0 0 0.5 
594 2 2 0.964781 0.234866 1.57875 -86 0 1 -478.672 -14.8802 -18.1371 3060.91 -3878.43 -1444.49 0 0 0 0.5 
843 2 2 1.55605 2.53515 1.60795 -13 0 1 -263.864 2.92653 -0.0182818 -350.465 -268.606 -95.4569 0 0 0 0.5 
908 2 2 1.735 2.68807 0.453549 -63 0 1 -225.642 -4.20273 23.0533 -785.613 -837.134 210.073 0 0 0 0.5 
4 1 1 2.55225 1.79755 0.658239 -123 0 0 -324.802 10.2417 13.2241 -302.821 911.429 1466.45 0 0 0 0.5 
450 1 1 0.855098 2.75846 0.328615 84 1 0 -229.644 10.3357 -17.3595 2330.14 -638.399 1445.35 0 0 0 0.5 
316 1 1 1.45993 0.953344 0.483288 -90 0 0 -429.089 1.58575 -9.86177 891.168 -374.111 -2383.75 0 0 0 0.5 
872 2 2 2.86771 4.87493 1.94642 -3 0 0 -18.3882 -10.8645 6.68454 -778.795 2837.68 212.529 0 0 0 0.5 
902 2 2 2.42839 3.62741 0.484706 163 1 1 -116.946 0.0434367 -2.32441 -659.285 1870.93 -1184.17 0 0 0 0.5 
318 1 1 0.736859 1.57207 0.129651 -63 0 1 -339.286 7.49767 5.2069 -40.6525 613.278 680.756 0 0 0 0.5 
142 1 1 0.907498 2.16241 0.971356 -81 0 0 -281.507 5.01553 -3.49982 -229.443 2512.5 129.883 0 0 0 0.5 
157 1 1 1.47994 3.26258 1.11474 -43 0 1 -198.897 32.6454 -9.74923 1000.43 150.773 -689.99 0 0 0 0.5 
548 2 2 1.29385 1.59721 0.921875 -83 0 1 -319.138 -2.89485 -9.4797 501.932 818.654 -404.671 0 0 0 0.5 
857 2 2 4.72931 3.7766 0.447481 -6 0 0 -147.808 15.9902 11.6169 461.846 -133.13 -683.622 0 0 0 0.5 
217 1 1 4.83156 1.60318 1.60644 -33 0 0 -378.838 10.7984 -12.8386 -435.222 -22.9205 -129.337 0 0 0 0.5 
34 1 1 2.8905 0.224031 0.28877 135 1 1 -504.603 17.8994 -9.46689 -175.587 265.442 917.14 0 0 0 0.5 
581 2 2 3.43441 3.55178 0.210049 -13 0 1 -132.959 7.71643 17.3276 -391.825 -863.55 -1204.69 0 0 0 0.5 
842 2 2 3.74901 1.08604 0.203489 -88 0 1 -393.155 4.83833 3.10967 1482.32 -461.526 380.419 0 0 0 0.5 
990 2 2 4.3167 4.58596 1.09122 7 0 0 -17.7484 -20.4745 -7.46702 17.9199 -810.756 -437.057 0 0 0 0.5 
586 2 2 3.46171 2.57224 0.422277 163 1 1 -236.75 -19.274 0.589551 441.516 -604.66 -1417.45 0 0 0 0.5 
452 1 1 1.88091 4.71281 1.67246 27 0 0 -13.6563 3.35742 12.9608 0 0 0 0 0 0 0.5 
760 2 2 0.397067 4.68378 1.17442 -51 0 1 14.95 -9.72208 -18.6604 558.272 -1938.59 1233.45 0 0 0 0.5 
876 2 2 3.61102 1.68384 1.94738 -41 0 1 -315.148 -7.17935 -13.4411 2399.53 -2233.89 1597.91 0 0 0 0.5 
211 1 1 2.91153 2.221 1.48864 97 1 0 -246.378 -19.5917 8.82852 -2604.88 1346.16 -1545.38 0 0 0 0.5 
446 1 1 0.23593 3.94281 1.42174 -35 0 1 -130.824 -8.65909 4.67882 -661.919 906.13 -1243.36 0 0 0 0.5 
409 1 1 3.64671 4.87906 1.59423 239 1 1 1.09557 1.19022 18.4661 452.573 -2.04077 851.917 0 0 0 0.5 
787 2 2 0.787922 4.05975 0.41384 -45 0 1 -96.4586 -0.706531 3.65517 0 0 0 0 0 0 0.5 
147 1 1 3.87862 2.51587 1.22187 -94 0 0 -253.663 -5.14275 5.16187 -3758.41 183.327 969.365 0 0 0 0.5 
924 2 2 2.86469 4.24665 1.2566 -44 0 1 -48.7018 -2.85828 21.2233 -3730.06 -796.269 4.40576 0 0 0 0.5 
645 2 2 2.55455 0.44812 1.356 68 1 0 -487.932 25.4738 -5.36508 1974.83 353.772 -404.303 0 0 0 0.5 
826 2 2 0.0346046 3.17616 0.811183 191 1 0 -181.338 -1.39452 -5.25138 0 0 0 0 0 0 0.5 
531 2 2 0.902659 3.51327 1.8312 -52 0 0 -141.881 -1.00108 3.29071 -1353.23 245.187 1847.6 0 0 0 0.5 
49 1 1 2.48952 3.401 1.45691 -13 0 1 -187.625 17.0627 21.3176 342.283 2293.67 -1298.51 0 0 0 0.5 
566 2 2 2.72673 2.88224 0.827015 191 1 1 -210.305 -8.3552 11.8107 -10.4381 -1126.36 1915.61 0 0 0 0.5 
858 2 2 3.4058 4.05413 0.778502 -13 0 0 -82.0293 18.4341 12.384 2667.4 566.456 -684.276 0 0 0 0.5 
186 1 1 4.6614 0.717139 0.795243 97 1 0 -404.925 -15.443 10.1917 -1403.33 -989.823 1405.17 0 0 0 0.5 
765 2 2 4.68145 2.31106 1.17051 152 1 0 -303.809 24.2232 -16.1245 4157.09 185.209 -1094.86 0 0 0 0.5 
923 2 2 4.70668 0.571777 0.0175187 104 1 0 -460.597 -1.38412 -4.02785 -2242.11 1980.23 -1055.22 0 0 0 0.5 
110 1 1 3.20617 1.08375 2.70288 -46 0 1 -432.536 21.8637 26.9779 246.153 -450.917 -1057.68 0 0 0 0.5 
9 1 1 4.83936 3.96965 2.125 184 1 0 -95.3071 -15.5246 -20.7224 -198.815 456.96 -1275.69 0 0 0 0.5 
853 2 2 1.51942 1.88969 2.22914 110 1 0 -310.261 -0.100164 31.4018 100.166 512.071 224.082 0 0 0 0.5 
633 2 2 1.3231 0.705939 2.56006 -120 0 1 -415.469 -0.598102 -1.25139 3417.39 -3231.97 254.46 0 0 0 0.5 
196 1 1 0.589363 1.70734 3.21627 163 1 0 -305.835 8.80662 -7.66223 903.78 513.502 -38.121 0 0 0 0.5 
662 2 2 3.51481 0.961821 3.80136 -49 0 1 -423.264 21.1229 -1.13985 -122.141 -106.665 625.13 0 0 0 0.5 
263 1 1 1.75056 1.13523 3.30124 -37 0 1 -359.622 -2.35786 -13.939 -1706.99 -2462.12 -685.121 0 0 0 0.5 
966 2 2 2.36075 1.61485 2.62749 -48 0 1 -287.543 -11.3076 -4.01224 -124.075 40.5313 -58.747 0 0 0 0.5 
647 2 2 0.519231 1.56661 2.33614 -70 0 0 -332.158 6.47454 -12.541 173.481 -112.664 -330.556 0 0 0 0.5 
890 2 2 4.70595 3.31132 3.76212 -24 0 0 -94.2753 -32.5634 -10.8043 -3960.34 1532.67 705.614 0 0 0 0.5 
721 2 2 0.555976 0.168824 2.27695 138 1 1 -431.227 -29.4052 -3.05197 303.347 3764.25 398.279 0 0 0 0.5 
803 2 2 1.52267 1.97367 3.6582 132 1 0 -314.11 14.4737 -1.05194 815.279 1113.43 -1165.02 0 0 0 0.5 
137 1 1 3.07924 0.0643328 3.5332 -136 0 0 -485.452 7.50329 3.09504 -47.8918 -634.293 -286.001 0 0 0 0.5 
895 2 2 1.27896 3.53472 3.54061 -73 0 0 -138.353 -0.22523 -8.45656 483.172 -539.565 1402.46 0 0 0 0.5 
98 1 1 0.787264 0.924356 3.19298 -30 0 0 -373.14 -14.4365 8.2249 -4383.61 1274.72 -81.367 0 0 0 0.5 
939 2 2 1.61592 2.54223 3.01442 -35 0 0 -223.078 6.74536 -17.5145 1350.79 -302.823 99.9365 0 0 0 0.5 
331 1 1 0.900465 2.87557 2.7706 -2 0 0 -225.915 3.89013 -28.7206 699.761 -1300.2 -2519.75 0 0 0 0.5 
527 2 2 2.52402 3.70031 2.81952 21 0 0 -116.231 9.07894 -17.0877 -635.872 1111.96 3286.18 0 0 0 0.5 
79 1 1 0.876819 1.05595 2.1186 -73 0 1 -360.187 -6.19435 -18.1991 -1913.88 -2658.27 -768.594 0 0 0 0.5 
172 1 1 0.411837 0.00159326 3.16049 -136 0 0 -462.341 -19.8313 4.66087 1299.54 3125.52 586.469 0 0 0 0.5 
67 1 1 2.89933 2.47586 2.45195 178 1 1 -223.543 -26.7695 16.8796 158.98 -2654.85 870.419 0 0 0 0.5 
259 1 1 2.2722 0.12333 2.27244 -96 0 -1 -493.912 1.77933 8.27219 -954.363 134.93 -283.447 0 0 0 0.5 
931 2 2 2.48427 4.26951 3.55222 28 0 0 -53.9999 13.6771 10.5211 -1135.04 -1391.47 947.548 0 0 0 0.5 
538 2 2 1.33797 0.250653 3.36602 176 1 0 -462.718 -2.71913 8.33684 2466.81 68.6318 1549.99 0 0 0 0.5 
478 1 1 1.65066 3.2286 2.19517 -2 0 1 -156.203 -2.14188 17.3425 -16.476 -1172.98 -360.68 0 0 0 0.5 
350 1 1 2.48676 3.18906 3.63981 106 1 0 -186.639 1.78984 1.80635 -1070.77 628.689 -1908.29 0 0 0 0.5 
722 2 2 4.22759 1.64343 3.09561 -88 0 0 -341.039 8.09374 -6.46708 4219.28 -2591.67 815.805 0 0 0 0.5 
428 1 1 0.0979815 2.10623 2.49926 -58 0 1 -299.779 10.7057 2.97692 -1215.26 -16.6605 -119.028 0 0 0 0.5 
380 1 1 2.51539 3.06884 2.26127 -40 0 1 -168.702 1.1122 8.02334 360.693 -191.592 -540.961 0 0 0 0.5 
347 1 1 1.15973 4.6618 2.40323 -11 0 0 -48.8322 31.9158 -15.1727 2290.35 -59.3841 189.054 0 0 0 0.5 
264 1 1 1.26528 3.88561 2.74109 -19 0 0 -134.396 1.99986 4.27008 213.394 -316.434 -2241.94 0 0 0 0.5 
541 2 2 3.78259 2.63242 2.21719 104 1 0 -249.088 15.1039 2.57341 -3336.96 3451.09 -502.613 0 0 0 0.5 
495 1 1 3.51137 4.33676 3.7839 -57 0 1 -33.8798 -17.2953 21.4827 -302.681 457.208 1695.89 0 0 0 0.5 
770 2 2 4.31245 4.48605 3.4587 -44 0 0 -44.456 11.337 13.6078 -270.745 1466.36 -564.5 0 0 0 0.5 
445 1 1 0.140369 3.63778 2.47238 -19 0 0 -124.369 16.2338 1.32005 707.818 -396.214 95.8017 0 0 0 0.5 
851 2 2 4.17115 0.71304 3.10181 -122 0 0 -420.04 6.5503 15.3841 -811.202 1211.94 1149.65 0 0 0 0.5 
612 2 2 3.26554 3.15228 3.31535 -4 0 1 -179.238 12.2275 12.3117 143.102 1596.66 -2233.55 0 0 0 0.5 
12 1 1 1.37853 4.34636 3.97681 -80 0 0 -26.675 1.48042 11.6275 -474.106 -895.093 -1174.98 0 0 0 0.5 
930 2 2 0.230727 4.08394 3.6978 -16 0 0 -42.7573 6.68266 16.3562 267.129 812.953 616.77 0 0 0 0.5 
898 2 2 0.952248 4.6281 3.31129 -43 0 0 -5.16392 -8.3259 12.8793 -695.506 589.093 -570.237 0 0 0 0.5 
641 2 2 0.922696 2.74626 3.97039 -17 0 0 -202.009 7.73966 -14.7609 -988.14 -426.124 -1000.66 0 0 0 0.5 
886 2 2 4.836 4.8535 2.36376 206 1 0 -12.1306 -10.2373 6.19694 -310.729 -1699.21 242.818 0 0 0 0.5 
725 2 2 0.373413 3.37774 3.31755 -30 0 0 -140.462 -19.7885 -5.22487 -1907.68 730.668 2318.98 0 0 0 0.5 
976 2 2 0.323139 4.73926 2.41964 51 0 0 -36.4773 -1.03365 6.97534 -1413.97 181.986 -131.554 0 0 0 0.5 
828 2 2 3.07488 3.96392 2.10578 -37 0 1 -86.6415 -12.4538 8.24169 199.726 -1337.84 775.749 0 0 0 0.5 
846 2 2 3.96009 3.88752 2.31864 -46 0 1 -92.663 -2.14462 16.9404 258.338 -834.757 -363.291 0 0 0 0.5 
361 1 1 3.70719 2.33375 3.1853 -32 0 0 -232.739 -11.4724 4.3861 -2930.7 3684.2 419.404 0 0 0 0.5 
557 2 2 4.52132 0.169255 2.6274 108 1 0 -461.155 5.60261 -0.272748 -302.321 1862.56 -1766.72 0 0 0 0.5 
354 1 1 4.48523 2.16657 2.22561 -27 0 1 -337.729 20.4052 6.01237 4407.82 -2642 576.482 0 0 0 0.5 
410 1 1 4.61292 2.26553 3.68671 -34 0 0 -216.595 -2.09873 7.79482 -921.153 -1462.93 -1360.62 0 0 0 0.5 
62 1 1 4.61492 3.16724 2.80633 -43 0 0 -150.588 -32.7537 -8.19181 -14.1936 -21.5401 -148.994 0 0 0 0.5 
370 1 1 4.63351 3.99441 3.04193 -17 0 0 -63.197 -8.85484 -2.11977 789.286 -1675.87 -1080.15 0 0 0 0.5 
615 2 2 4.94307 1.11763 2.43398 125 1 0 -392.579 -0.874266 -0.913956 -292.617 263.494 181.292 0 0 0 0.5 
636 2 2 3.14031 0.000595367 2.53027 -94 0 0 -491.913 8.74637 -4.15219 950.021 -702.696 131.533 0 0 0 0.5 
193 1 1 2.5363 0.394596 5.38905 132 1 0 -449.414 -16.9656 22.3927 -274.705 -976.154 233.223 0 0 0 0.5 
163 1 1 0.112088 0.270675 5.97712 120 1 0 -486.909 31.3016 20.3074 3192.92 76.8937 545.112 0 0 0 0.5 
606 2 2 4.61963 1.38272 5.92299 -106 0 -1 -389.569 3.12287 1.54145 -323.713 -601.779 -296.908 0 0 0 0.5 
780 2 2 1.5726 2.11499 5.81457 -129 0 0 -285.768 17.004 15.5887 -785.06 -598.63 2140.86 0 0 0 0.5 
865 2 2 1.93684 0.331078 4.15592 -63 0 -1 -425.252 -14.7758 -5.17292 -339.561 924.981 -444.358 0 0 0 0.5 
675 2 2 2.50928 2.6702 5.81038 -38 0 0 -220.085 -7.89723 -5.927 -396.881 996.163 -159.233 0 0 0 0.5 
844 2 2 1.91644 1.28576 4.13248 99 1 0 -351.506 13.7557 0.0792742 693.583 -1557.24 139.174 0 0 0 0.5 
516 2 2 2.64361 3.42177 5.18679 -87 0 1 -136.473 10.2781 -14.1117 780.935 -1285.83 1087.82 0 0 0 0.5 
511 2 2 2.03091 4.45568 5.02127 -19 0 -1 -52.5586 1.90275 -5.0963 -92.2695 -315.447 104.966 0 0 0 0.5 
439 1 1 4.05868 2.13445 4.48773 -32 0 0 -250.342 -3.085 -10.9728 869.746 -402.759 -21.9072 0 0 0 0.5 
513 2 2 1.94839 3.7522 4.15764 -64 0 0 -142.821 18.1055 9.97895 4809.65 -2600.88 192.365 0 0 0 0.5 
339 1 1 0.00585384 2.11403 4.37859 -52 0 1 -309.253 22.3583 -0.648316 3286.57 -693.713 1023.33 0 0 0 0.5 
798 2 2 0.242163 0.789353 4.90782 -130 0 0 -384.676 -20.2813 -4.02478 724.082 1001.83 430.941 0 0 0 0.5 
232 1 1 1.78203 3.57164 5.04404 -60 0 1 -144.895 0.9788 11.4852 1608.42 1274.2 -708.838 0 0 0 0.5 
925 2 2 3.84961 2.48228 5.12086 72 1 0 -227.735 -11.2286 18.8085 303.784 2158.29 2148.43 0 0 0 0.5 
579 2 2 1.05448 2.41972 5.18806 -27 0 0 -248.758 13.1656 -21.2245 -1178.28 444.562 -379.341 0 0 0 0.5 
483 1 1 1.97448 0.921613 4.97563 101 1 0 -435.517 -9.35757 -13.1399 -285.741 -2083.76 -324.937 0 0 0 0.5 
773 2 2 4.33451 1.28051 5.12837 -57 0 0 -379.797 -2.64487 -11.4206 -918.166 1253.59 -1085.1 0 0 0 0.5 
659 2 2 0.00861195 0.240697 4.04132 -69 0 0 -454.725 -8.62179 8.95779 219.093 578.693 475.251 0 0 0 0.5 
433 1 1 2.06904 2.28635 4.87176 121 1 -1 -227.5 -11.4056 -13.0145 -2114.91 627.242 -1658.89 0 0 0 0.5 
277 1 1 1.82135 2.85017 4.32189 -115 0 1 -213.928 5.87813 -27.237 512.872 803.079 -153.223 0 0 0 0.5 
96 1 1 0.772325 1.91445 4.02752 -72 0 0 -308.86 -2.01986 1.61894 -89.8996 216.823 590.031 0 0 0 0.5 
284 1 1 4.46132 4.19834 5.34303 -91 0 0 -76.4396 18.1043 -16.993 -547.29 1070.06 -1282.1 0 0 0 0.5 
660 2 2 1.8963 3.27468 5.87139 22 0 0 -137.087 -12.2218 10.3686 -461.266 1481 339.736 0 0 0 0.5 
829 2 2 0.173171 1.39315 5.5526 -27 0 0 -307.055 -10.0696 20.6077 864.246 -1164.69 -134.395 0 0 0 0.5 
22 1 1 0.893712 0.569004 4.05147 88 1 0 -442.308 16.1659 18.038 -864.181 -265.521 1910.08 0 0 0 0.5 
247 1 1 3.49126 0.331646 5.51333 -131 0 0 -448.912 -10.5469 26.3366 319.967 293.663 77.9036 0 0 0 0.5 
437 1 1 3.62317 2.72217 4.09241 -81 0 0 -217.656 20.3499 -6.93595 1039.42 383.338 668.372 0 0 0 0.5 
115 1 1 1.34096 0.271541 5.70252 74 1 -1 -499.669 5.84294 -9.18205 -285.014 434.81 44.3423 0 0 0 0.5 
488 1 1 4.27422 1.50849 4.27021 -91 0 1 -309.411 -34.334 -51.8942 592.642 -1737.6 -312.542 0 0 0 0.5 
501 2 2 0.50754 1.65858 4.78592 102 1 0 -310.492 1.45396 16.0045 355.281 -1796.14 755.249 0 0 0 0.5 
265 1 1 0.111796 2.65924 5.14182 -54 0 1 -257.632 15.1386 8.64152 -377.371 353.827 -1142.81 0 0 0 0.5 
346 1 1 1.96623 1.58299 5.36867 151 1 0 -326.113 -14.9987 0.185401 -1101.06 2386.84 -1384.56 0 0 0 0.5 
821 2 2 2.55267 1.09857 5.94494 134 1 0 -387.285 -1.31563 -5.81749 2031.38 -1134.77 1100.31 0 0 0 0.5 
220 1 1 3.2873 2.73725 5.94588 204 1 0 -223.889 -13.5823 -35.7307 -713.953 1709.39 -373.37 0 0 0 0.5 
572 2 2 4.67002 2.6552 5.48905 -62 0 0 -193.523 9.93097 -7.66627 -3529.99 856.712 -246.883 0 0 0 0.5 
741 2 2 1.02711 3.4716 4.46271 -94 0 0 -119.32 3.5383 -11.3425 -48.5072 -706.124 -579.184 0 0 0 0.5 
529 2 2 0.855124 3.44944 5.34306 -9 0 0 -109.04 -20.0076 -8.34714 -2016.38 -1074.22 1305.1 0 0 0 0.5 
83 1 1 4.62456 0.388151 5.10798 120 1 0 -439.254 -7.22901 -6.46666 607.872 -1283.97 655.327 0 0 0 0.5 
73 1 1 4.08989 3.2797 5.45208 47 0 0 -154.982 24.6513 7.47369 -499.982 2179.37 -1931.65 0 0 0 0.5 
781 2 2 3.49153 1.29226 5.64801 117 1 0 -380.311 5.74941 -3.24352 1988.73 -2344.5 108.475 0 0 0 0.5 
228 1 1 2.77963 2.67093 4.30677 -86 0 1 -214.573 4.54307 7.54407 -475.329 -893.137 1364.38 0 0 0 0.5 
182 1 1 0.701212 4.24609 4.71142 55 0 -1 -66.8065 21.2219 -5.54849 1318.67 1107.48 12.6273 0 0 0 0.5 
177 1 1 3.42282 4.19815 5.95904 53 0 0 -42.7211 -37.2199 -6.65114 -1342.63 -1567.12 -615.914 0 0 0 0.5 
39 1 1 2.92865 1.80076 4.54782 -80 0 0 -257.162 -21.0275 -3.22439 11.0303 -74.9204 36.7745 0 0 0 0.5 
664 2 2 2.86897 0.0407941 4.60412 56 1 0 -460.379 -2.96129 14.079 122.696 -795.902 -1090.73 0 0 0 0.5 
111 1 1 2.78704 1.97771 5.48908 84 1 0 -313.343 0.18888 -9.16621 1805.27 -2519.34 112.454 0 0 0 0.5 
862 2 2 4.50224 4.14486 4.11303 -33 0 0 -42.2792 -11.1414 8.8519 -2015.81 -960.589 823.015 0 0 0 0.5 
464 1 1 3.50895 4.27164 5.03511 22 0 0 -58.2537 6.69634 -19.455 -7.6258 -6.50591 81.7961 0 0 0 0.5 
539 2 2 0.47344 2.42035 5.97783 -88 0 0 -260.855 -2.81413 -11.7113 596.575 2421.25 642.855 0 0 0 0.5 
961 2 2 0.652218 4.17722 5.71429 -3 0 0 -48.2093 8.65458 -0.390394 13.1551 669.194 -802.028 0 0 0 0.5 
11 1 1 3.32261 4.83051 5.919 -18 0 -1 13.8342 11.6553 -3.84805 -2814.73 1788.24 -536.152 0 0 0 0.5 
744 2 2 3.82099 0.504658 4.57876 99 1 0 -456.658 5.32736 23.7238 -173.725 -120.154 -687.584 0 0 0 0.5 
64 1 1 4.03023 3.51737 4.61011 55 0 -1 -84.8833 -16.8016 -17.3078 -102.922 157.595 -731.997 0 0 0 0.5 
794 2 2 1.3663 1.27249 6.21778 36 0 0 -334.909 -16.3547 -9.48073 120.556 -810.503 -821.951 0 0 0 0.5 
105 1 1 1.78297 0.746076 6.68812 92 1 0 -420.681 5.5411 17.5946 1132.31 -2957.84 1971.7 0 0 0 0.5 
635 2 2 4.05338 4.33796 6.11232 -208 -1 0 -26.3948 26.7821 -5.92859 2355.19 -211.375 502.481 0 0 0 0.5 
856 2 2 0.870062 0.548361 6.57852 -121 0 0 -442.463 -20.338 12.571 2408.98 2505 -1062.6 0 0 0 0.5 
573 2 2 2.27738 1.95187 7.74653 -84 0 0 -255.315 -21.8314 -4.44149 -4587.91 3185.2 674.294 0 0 0 0.5 
568 2 2 1.59842 1.99667 6.80322 -46 0 0 -297.9 -8.31071 8.80956 -3141.76 -610.066 458.225 0 0 0 0.5 
459 1 1 4.43767 4.44798 6.85326 20 0 0 -18.0194 14.8605 -18.5097 -140.981 -617.607 1268.72 0 0 0 0.5 
74 1 1 1.62733 3.01627 7.7965 23 0 0 -175.682 5.24772 -13.1226 -1090.8 321.387 -372.257 0 0 0 0.5 
940 2 2 0.812785 3.14966 6.23704 20 0 -1 -164.916 7.45311 10.9851 -1436.65 1720.13 -2949.87 0 0 0 0.5 
665 2 2 4.4077 0.0939079 6.00688 82 1 1 -495.839 -7.73963 -1.82989 -1264.47 485.66 -633.72 0 0 0 0.5 
637 2 2 2.24795 1.66257 6.61881 -64 0 1 -329.216 10.0802 -0.925496 1796.16 617.536 -542.895 0 0 0 0.5 
880 2 2 3.08256 3.50401 6.36445 22 0 0 -135.664 -4.14849 5.8276 975.612 217.025 -601.888 0 0 0 0.5 
658 2 2 3.55975 3.16494 7.50733 -33 0 0 -169.656 -7.05816 42.4338 1388.6 -2487.48 544.534 0 0 0 0.5 
43 1 1 0.503355 1.7576 7.11053 -82 0 0 -307.64 -7.46696 -15.2419 31.3517 -330.008 1500.55 0 0 0 0.5 
184 1 1 4.10658 4.93432 7.37967 50 0 0 1.93691 29.2106 15.828 -736.017 1532.95 1080.44 0 0 0 0.5 
620 2 2 1.30296 2.71126 6.89527 -2 0 0 -243.141 21.525 7.70847 1827.1 147.889 2487.33 0 0 0 0.5 
547 2 2 2.19211 4.1208 6.15696 62 0 0 -34.0471 2.07861 -33.5557 749.627 -3783.52 0.43544 0 0 0 0.5 
711 2 2 0.422477 0.211407 7.77887 71 1 -1 -517.765 14.6101 -8.04718 -1758.53 865.467 -80.7947 0 0 0 0.5 
415 1 1 2.19778 3.41028 6.81507 0 0 -1 -107.841 -4.10251 1.49959 -3588.28 3765.9 -158.486 0 0 0 0.5 
972 2 2 4.17986 3.64409 6.35936 19 0 -1 -119.654 -12.2253 8.9083 -1006.52 1082.22 387.44 0 0 0 0.5 
740 2 2 2.60687 2.94024 7.7925 -51 0 0 -192.353 -5.30691 -2.45638 1474.8 1841.7 336.448 0 0 0 0.5 
267 1 1 0.799476 1.75085 6.1822 -121 0 0 -299.845 -24.6372 6.96271 -1006.91 1712.65 -512.9 0 0 0 0.5 
708 2 2 1.45367 1.09893 7.61429 -102 0 0 -361.356 -1.2704 -32.5646 -1261.41 479.645 1279.31 0 0 0 0.5 
621 2 2 2.41744 4.163 7.45849 6 0 0 -63.2988 12.0024 8.80367 -3187.13 2315.75 310.374 0 0 0 0.5 
771 2 2 2.23521 0.740013 7.54103 -94 0 0 -384.664 -5.19773 0.282912 -1052.21 206.643 1657.24 0 0 0 0.5 
795 2 2 0.37697 2.69602 7.02266 -68 0 0 -241.166 9.00599 3.49823 653.606 -1460.02 -948.305 0 0 0 0.5 
425 1 1 0.667471 1.2628 7.90129 -103 0 0 -368.775 -16.9564 11.2639 -545.8 258.827 -148.809 0 0 0 0.5 
813 2 2 3.64459 1.95734 6.28734 146 1 0 -332.323 0.815969 2.46419 1790.11 1464.26 312.919 0 0 0 0.5 
544 2 2 1.58795 4.72334 6.28429 12 0 0 -1.34289 6.27921 -25.9983 2432.02 -1645.26 454.882 0 0 0 0.5 
687 2 2 4.63689 1.681 7.84008 117 1 0 -335.565 1.00222 -0.0180244 986.298 -1982.32 -16.4495 0 0 0 0.5 
810 2 2 2.35692 4.73096 6.74519 47 0 0 22.2989 11.3278 -25.969 1502.02 -1758.64 -549.659 0 0 0 0.5 
816 2 2 0.749434 4.48746 7.11105 -3 0 0 36.0267 -11.415 -7.57638 607.519 1365.47 -1379.36 0 0 0 0.5 
343 1 1 4.64313 0.711833 7.51609 -31 0 0 -434.755 15.7175 -4.62649 486.736 -1929.83 639.925 0 0 0 0.5 
592 2 2 4.20197 4.08055 7.61962 -22 0 -1 -115.994 18.7444 9.813 -662.259 978.546 -1978.18 0 0 0 0.5 
148 1 1 1.31755 3.88443 6.18696 -17 0 0 -60.2694 -5.3919 1.03552 -1364.74 1021.7 2171.29 0 0 0 0.5 
169 1 1 4.68395 3.63826 7.10276 156 1 0 -131.809 -3.08294 -5.02837 86.3951 814.792 621.598 0 0 0 0.5 
750 2 2 3.9189 0.591317 7.20761 -91 0 0 -442.936 -21.2509 -12.186 -612.292 -3151.73 -782.711 0 0 0 0.5 
737 2 2 2.77474 2.63729 6.79734 -40 0 0 -218.844 -5.14968 -4.3041 541.944 -133.564 -3690.58 0 0 0 0.5 
502 2 2 3.03058 1.42896 7.63584 -108 0 0 -352.907 -6.03333 23.8599 4047.4 -1213.05 -424.864 0 0 0 0.5 
514 2 2 4.00288 2.85295 6.16533 -55 0 0 -218.155 -3.93881 -13.8367 -1999.36 1123.31 92.2453 0 0 0 0.5 
521 2 2 3.21347 0.708536 7.58794 -41 0 0 -424.362 -32.0416 25.5414 1033.31 -1871.5 820.978 0 0 0 0.5 
868 2 2 3.16761 2.17316 7.22488 -72 0 1 -294.525 3.08037 11.4607 -405.614 -1602.71 2481.31 0 0 0 0.5 
903 2 2 0.785308 3.79004 7.80052 -35 0 -1 -124.988 12.0692 -29.0535 584.643 -1714.2 1383.95 0 0 0 0.5 
454 1 1 2.81772 0.961587 6.75452 140 1 0 -404.445 -12.4835 11.6434 906.725 -2071.43 1168.13 0 0 0 0.5 
806 2 2 3.05846 3.733 7.26149 -71 0 0 -99.3285 15.4475 7.19042 942.995 301.978 -865.527 0 0 0 0.5 
703 2 2 3.74679 1.15857 6.59568 -121 0 0 -418.126 8.81924 8.62396 -544.833 105.144 76.6881 0 0 0 0.5 
485 1 1 3.81773 2.87428 6.92581 -84 0 1 -212.657 -8.19045 -6.66068 171.358 -642.275 436.826 0 0 0 0.5 
937 2 2 3.9695 1.87327 7.22841 -33 0 0 -325.371 4.40897 3.37214 1747.3 -1194.72 -1291.09 0 0 0 0.5 
399 1 1 4.55187 0.834969 6.53746 -95 0 -1 -428.466 -4.55587 5.13017 -1431.47 -429.013 599.833 0 0 0 0.5 
394 1 1 4.56184 2.15578 6.12626 96 1 -1 -320.064 13.898 12.6057 2286.31 -2680.76 -1030.42 0 0 0 0.5 
270 1 1 4.58642 3.40188 7.95761 -70 0 0 -167.088 -1.13094 3.11103 728.05 -1383.55 1736.86 0 0 0 0.5 
702 2 2 4.93325 2.10598 6.96109 134 1 0 -326.539 -4.93182 -0.543188 80.6064 -895.072 1043.69 0 0 0 0.5 
352 1 1 4.92647 2.86254 7.40989 -64 0 0 -248.844 2.05379 -9.46409 2193.84 -3930.24 -295.487 0 0 0 0.5 
298 1 1 0.0559813 0.833489 9.96955 -90 0 -1 -414.027 15.4202 5.35173 1243.14 -359.411 727.568 0 0 0 0.5 
656 2 2 2.42511 2.15542 9.6959 -70 0 0 -265.274 -4.28628 3.50994 -3139.84 1019.97 -447.934 0 0 0 0.5 
487 1 1 2.10334 1.36014 9.83915 -90 0 -1 -352.139 -7.28327 18.2799 -2747 -1536.96 1926.83 0 0 0 0.5 
974 2 2 0.689303 3.00626 8.47753 258 1 0 -185.33 3.85103 -4.9352 -23.3234 -4.12242 12.0526 0 0 0 0.5 
18 1 1 1.13013 3.43398 9.53558 -29 0 0 -154.734 18.707 -18.0269 -1458.31 2274.3 293.887 0 0 0 0.5 
823 2 2 1.33523 1.59271 8.48438 166 1 -1 -340.195 -8.03358 -10.8634 216.966 1488.21 1213.5 0 0 0 0.5 
386 1 1 0.29335 0.0691308 9.93935 70 1 -1 -469.04 -29.72 -3.78055 -6169.28 2671.94 -1532.58 0 0 0 0.5 
424 1 1 4.24179 2.53743 9.87379 -8 0 0 -227.392 -15.3665 14.0767 3029 -2337.96 1427.55 0 0 0 0.5 
335 1 1 1.58709 2.72133 9.44349 -57 0 0 -203.448 11.6272 9.04731 658.142 -1421.97 -328.619 0 0 0 0.5 
165 1 1 4.28196 3.8107 8.39604 54 0 -1 -128.606 14.7789 41.0935 1845.32 457.047 2098.02 0 0 0 0.5 
17 1 1 1.76872 2.56965 8.48923 -78 0 0 -235.459 -18.3759 11.1798 -1540.18 -479.356 -183.356 0 0 0 0.5 
904 2 2 2.23881 1.55891 8.81554 76 1 -1 -321.781 -21.2118 -13.6124 811.776 -1640.15 -1943.64 0 0 0 0.5 
226 1 1 1.06339 0.2214 9.81558 -82 0 0 -454.692 -3.01165 6.21423 -716.399 -844.126 -1179.82 0 0 0 0.5 
440 1 1 3.97364 4.53192 9.90698 21 0 0 -32.1145 -5.79787 6.73119 2964.16 -2291.29 2262.03 0 0 0 0.5 
2 1 1 1.68181 1.97364 9.2807 -20 0 0 -281.825 -26.9468 6.51382 -3538.46 1983.8 -1528.44 0 0 0 0.5 
590 2 2 3.89439 2.83894 8.52965 -2 0 -1 -186.654 -25.3043 8.9663 -3282.97 -1757.85 380.063 0 0 0 0.5 
400 1 1 1.80195 0.810665 8.35303 -96 0 -1 -374.812 -24.2555 26.9239 228.379 -488.074 -1465.4 0 0 0 0.5 
23 1 1 0.79895 0.991775 9.4094 -89 0 0 -417.884 8.92329 9.24103 1736.61 -385.187 -900.272 0 0 0 0.5 
492 1 1 0.0314457 0.486846 8.84007 -122 0 0 -438.432 -8.36869 -12.7892 -3289.32 565.161 -165.936 0 0 0 0.5 
912 2 2 2.81262 4.05103 9.57609 18 0 -1 -26.2841 3.7078 2.0878 -201.878 53.9886 1559.41 0 0 0 0.5 
995 2 2 1.84244 0.699773 9.49604 -101 0 0 -461.215 11.389 -17.5556 -449.87 1593.42 165.054 0 0 0 0.5 
981 2 2 0.957898 0.327666 8.88681 66 1 -1 -493.4 -17.5928 -0.201141 3596.22 -621.498 -68.4997 0 0 0 0.5 
761 2 2 0.229049 1.49041 9.17123 -104 0 0 -400.844 25.8023 -6.76782 -1372.19 1200.6 -573.462 0 0 0 0.5 
623 2 2 3.64778 2.99685 9.68113 -47 0 0 -175.899 -14.2715 -5.04594 569.081 -851.277 13.5225 0 0 0 0.5 
61 1 1 4.75348 2.45141 9.09802 -104 0 0 -225.319 -19.4992 20.1073 -2327.27 1126.96 1123.99 0 0 0 0.5 
644 2 2 0.827183 4.31849 8.9989 220 1 0 -68.7637 -0.0168342 3.00097 -549.914 359.715 100.278 0 0 0 0.5 
565 2 2 4.0246 1.03913 9.12575 -60 0 0 -398.671 -11.888 21.6469 -767.611 -1785.09 872.892 0 0 0 0.5 
559 2 2 2.86674 0.328018 9.30716 -111 0 0 -506.531 7.20292 5.04027 -731.648 -336.392 -1006.88 0 0 0 0.5 
998 2 2 2.7886 3.36472 9.68292 -130 0 0 -131.714 -36.4596 -21.7381 -4158.61 701.294 1488.5 0 0 0 0.5 
861 2 2 2.90605 1.94529 9.21035 -26 0 0 -298.718 -2.44474 -34.8321 3264.48 -3122.28 595.452 0 0 0 0.5 
180 1 1 2.16035 4.93676 8.70594 25 0 0 25.4596 -21.3821 -4.52058 -2987.99 994.124 -534.999 0 0 0 0.5 
301 1 1 2.91559 4.44705 8.82876 68 0 -1 -41.4765 15.6917 16.359 4551 -921.135 -208.392 0 0 0 0.5 
467 1 1 0.0184524 4.8475 9.14637 214 1 0 -73.3117 24.4489 1.76338 1382.62 158.022 109.218 0 0 0 0.5 
141 1 1 4.29167 0.858341 8.34776 -28 0 0 -465.69 -6.93993 -20.4418 -1141.74 -1513.64 -70.3699 0 0 0 0.5 
685 2 2 4.8713 4.05654 8.97991 26 0 0 -57.6832 -9.51748 12.6301 -3090.04 1933.36 -641.718 0 0 0 0.5 
753 2 2 3.86114 4.65115 8.29632 62 0 0 -60.4953 25.5499 18.4986 -824.95 2234.26 -262.813 0 0 0 0.5 
891 2 2 2.83481 3.82404 8.17152 29 0 -1 -92.1094 -2.17175 32.4914 -4472.69 -1309.22 -2179.18 0 0 0 0.5 
956 2 2 0.0763724 3.06141 9.7888 -68 0 0 -155.211 -10.8764 -10.6386 -2732.18 1235.13 -1474.74 0 0 0 0.5 
41 1 1 3.72931 0.125029 9.07549 -135 0 -1 -512.361 -12.9092 -11.9547 -439.262 2136.03 -927.18 0 0 0 0.5 
863 2 2 4.59875 2.59453 8.21424 -35 0 0 -220.413 -33.2202 7.37073 2692.33 878.851 -931.692 0 0 0 0.5 
870 2 2 3.54467 3.3946 9.10938 10 0 0 -146.607 21.4521 -0.313905 827.208 1264.23 -338.801 0 0 0 0.5 
480 1 1 4.02371 1.72434 8.58565 -76 0 1 -318.118 4.59504 18.4677 1742.88 883.479 1411.84 0 0 0 0.5 
139 1 1 3.49477 3.65007 8.30115 -31 0 0 -113.57 8.57565 6.47286 1391.46 747.758 94.7492 0 0 0 0.5 
608 2 2 2.59158 2.58833 8.69945 -36 0 0 -236.951 10.4414 -0.777351 603.02 2021.1 -865.714 0 0 0 0.5 
317 1 1 3.4281 4.95362 9.49066 -8 0 0 58.3011 -5.61509 -23.1901 -2433.92 638.421 -2903.25 0 0 0 0.5 
968 2 2 3.36433 2.04887 8.26384 166 1 0 -294.656 -1.24896 5.79708 -1312.6 2705.89 -648.932 0 0 0 0.5 
960 2 2 2.92562 1.3424 9.99218 144 1 0 -380.208 3.17396 -9.84689 4157.91 -2766.31 -158.777 0 0 0 0.5 
65 1 1 4.87632 1.24712 9.42796 -32 0 0 -382.265 14.7346 -3.0777 326.399 -351.249 276.146 0 0 0 0.5 
815 2 2 1.98541 9.86167 0.682408 97 0 0 499.274 -10.9229 -6.7517 666.283 105.613 -737.684 0 0 0 0.5 
77 1 1 0.207948 8.13949 0.0522178 118 0 1 327.167 -22.4939 -5.60462 -413.909 -1076.75 -2833.33 0 0 0 0.5 
690 2 2 0.172264 9.94571 0.889101 77 0 0 517.396 12.3995 5.1873 -266.759 2174.52 -2212.19 0 0 0 0.5 
934 2 2 0.175068 7.43786 0.694899 31 0 0 229.237 5.96126 -17.7813 1460.14 -2264.13 267.68 0 0 0 0.5 
469 1 1 1.14645 8.97231 1.95771 115 0 0 412.682 -20.0494 -10.6733 -4821.34 2346.84 -1085.93 0 0 0 0.5 
907 2 2 0.575191 8.57466 1.23532 -68 -1 0 387.482 -2.0608 -11.0523 -3519.51 615.14 -1135.37 0 0 0 0.5 
679 2 2 0.73236 5.09619 0.552034 -26 0 0 -33.9849 27.0549 -9.42431 3352.72 -417.887 -1571.44 0 0 0 0.5 
563 2 2 3.30252 8.91143 0.921279 16 0 1 403.664 -1.72646 7.53843 2412.35 -3434.95 1190.44 0 0 0 0.5 
977 2 2 4.38661 9.30763 1.57889 79 0 0 407.998 0.15725 9.96732 -545.167 978.536 -694.834 0 0 0 0.5 
649 2 2 3.04608 8.06782 0.849293 26 0 1 266.413 -6.49284 -3.96679 1109.53 1364.77 -84.5343 0 0 0 0.5 
76 1 1 2.58415 8.92805 1.32119 91 0 1 407.061 -25.7859 26.4039 1442.72 -1994.92 506.92 0 0 0 0.5 
919 2 2 1.84865 8.9348 1.79469 -69 -1 0 399.235 16.4558 -1.39913 828.519 622.5 1189.31 0 0 0 0.5 
503 2 2 -0.0393096 5.59674 0.499546 -19 0 0 10.1375 21.3551 -18.7347 -1906.01 2553.29 -385.546 0 0 0 0.5 
482 1 1 2.9313 6.62296 0.985516 18 0 0 135.019 9.89442 -13.0632 912.723 -1614.25 -670.264 0 0 0 0.5 
340 1 1 3.51446 7.84975 1.81099 -10 0 0 264.964 -0.213873 -12.6316 -627.489 -174.425 222.843 0 0 0 0.5 
689 2 2 1.20925 9.05865 0.648663 -76 -1 1 393.293 13.1094 6.95143 -103.04 183.468 737.923 0 0 0 0.5 
712 2 2 2.05554 8.12915 1.96287 72 0 0 304.729 9.31533 -10.6548 1508.13 -1595.41 -428.732 0 0 0 0.5 
727 2 2 4.4232 8.07001 1.37137 -41 0 1 280.926 5.17227 -1.74081 0 0 0 0 0 0 0.5 
680 2 2 0.452791 9.37647 1.26859 -101 -1 0 452.784 1.53702 12.2757 920.889 -400.257 1773.34 0 0 0 0.5 
877 2 2 3.90736 9.83875 0.8128 153 0 1 451.968 11.814 16.0526 -741.879 1626.23 171.955 0 0 0 0.5 
755 2 2 3.36456 5.11486 0.867248 -46 0 0 42.1328 -13.1931 -23.8383 -417.267 317.913 -1415.7 0 0 0 0.5 
405 1 1 4.06324 5.88461 1.49641 7 0 0 86.3656 4.82914 -26.4575 -1494.99 2224.33 -970.634 0 0 0 0.5 
534 2 2 2.85588 5.38104 0.0191536 36 0 1 87.5791 -12.7226 7.21377 1687.01 -1536.39 161.742 0 0 0 0.5 
419 1 1 3.15742 9.83421 1.51924 76 0 0 481.721 -7.97876 -22.3251 731.644 803.422 629.451 0 0 0 0.5 
418 1 1 2.98686 9.34281 0.451943 -89 -1 1 436.03 1.00924 11.9293 -1486.14 1804.82 -2595.83 0 0 0 0.5 
32 1 1 0.764292 9.46092 0.122034 153 0 0 413.663 -5.29469 10.511 1889.73 -1961.38 305.951 0 0 0 0.5 
893 2 2 3.06184 5.70948 1.50374 9 0 0 89.8056 -9.04007 -4.50633 2763.24 -2703.76 679.09 0 0 0 0.5 
296 1 1 4.54841 6.50241 0.87463 39 0 -1 115.554 23.8501 4.1624 -723.092 936.662 -751.484 0 0 0 0.5 
248 1 1 1.37101 8.02613 1.44539 -183 -1 0 271.121 -2.67417 16.7821 5385.17 -1354.27 -700.218 0 0 0 0.5 
448 1 1 0.394673 6.38956 0.283699 0 0 1 138.81 2.56919 24.4588 -167.94 -75.4992 -185.333 0 0 0 0.5 
628 2 2 2.17363 6.07809 1.31177 31 0 1 146.781 -16.6837 17.9835 -2533.55 1832.72 -374.44 0 0 0 0.5 
809 2 2 1.66152 8.64814 0.959301 123 0 0 387.495 6.05231 14.4706 -1636.81 -177.417 787.101 0 0 0 0.5 
279 1 1 1.75894 6.88554 0.645979 287 1 0 196.322 -26.1513 30.4832 -267.779 225.517 -672.752 0 0 0 0.5 
385 1 1 1.1609 7.13699 1.64397 -152 -1 0 214.205 -6.91253 -16.459 2317.94 -3056.01 151.835 0 0 0 0.5 
507 2 2 3.65448 8.82766 1.80844 -93 -1 0 432.567 -24.754 -7.85859 -228.135 -1072.79 216.029 0 0 0 0.5 
993 2 2 2.31702 5.73731 0.422907 29 0 1 107.999 0.930257 8.75894 -1721.06 1130.93 1058.63 0 0 0 0.5 