# vtk DataFile Version 4.2
Generated by LIGGGHTS
ASCII
DATASET POLYDATA
POINTS 1000 float
3.19446 1.47198 0.0493173 2.12921 1.27914 1.73871 4.96066 3.71594 1.51489 
1.99178 2.66971 0.48621 2.48369 3.54043 1.94785 1.40311 0.705954 1.1807 
2.06372 0.0165512 1.62195 3.43788 2.08296 1.71067 4.07501 2.61388 1.15182 
2.3721 3.8708 0.972081 0.513322 3.50485 1.1661 3.30637 3.15741 1.48965 
3.99597 3.88909 1.30975 0.769138 2.53592 1.16185 4.42437 4.20861 0.45461 
1.67727 1.6033 0.834871 2.66317 2.18259 1.04493 4.38529 0.460861 1.66302 
4.12347 0.548728 0.689442 2.8961 0.590556 1.81844 4.09058 1.56886 1.13062 
1.42262 4.4021 0.863099 3.61584 2.34745 0.298776 3.30672 3.66328 0.61846 
0.506242 1.4231 0.0338661 0.756058 1.51752 1.26725 1.3424 3.43311 0.603282 
0.710545 0.13029 1.69065 1.54086 3.28128 1.698 4.32174 4.93777 1.37076 
4.59462 1.3412 0.297403 3.3219 0.0849355 1.06729 3.18874 4.51306 1.42814 
1.71863 2.30972 1.54152 1.39788 4.25894 1.85332 2.33309 0.851827 0.74353 
0.469252 4.7154 1.01807 0.431384 3.90446 0.222241 2.22691 4.78363 1.65527 
4.93635 2.72645 1.65778 3.71994 1.1532 1.96124 2.59071 2.54647 1.97358 
3.12674 1.3034 1.15593 1.09486 2.19583 0.278293 0.479561 0.568605 0.800894 
0.0175066 3.94171 1.91892 2.96298 4.55784 0.332311 4.14442 3.19951 0.298593 
0.0874036 2.09018 1.7453 4.94292 2.04865 0.921923 2.00977 4.72549 0.0771512 
0.975005 4.7615 0.0442537 4.64137 2.36757 0.017 1.82637 0.434575 2.51629 
2.73006 4.12679 2.71956 1.66839 3.67126 2.80638 4.37302 1.38363 3.26847 
2.58688 0.3541 3.24196 1.30968 3.71862 3.81762 1.64629 0.51258 3.57788 
1.19034 2.83721 3.36023 4.67509 3.12859 3.81796 4.01968 2.95013 2.16916 
3.39877 1.81711 2.69889 4.42401 3.68705 2.95057 1.8783 1.55534 3.69869 
1.0336 2.01686 2.20889 0.200224 2.37036 2.82468 0.622303 4.39148 3.54348 
1.55269 4.84547 3.81505 1.12262 1.02846 2.08478 0.249878 1.2845 3.46398 
1.7161 2.71116 2.51869 2.66967 1.1367 2.62496 3.14123 2.04125 3.7556 
2.47582 3.35923 3.30855 0.270129 1.42068 2.47169 3.75245 0.758973 3.88951 
0.327837 3.43265 3.52197 4.79464 0.878714 2.4867 3.98585 4.36198 3.54424 
4.35819 4.3873 2.2049 0.658507 0.486212 3.92117 4.88952 4.58133 3.15622 
1.87085 1.73593 2.67803 4.48806 0.243752 3.42027 3.82827 2.61914 3.11397 
4.34423 1.87378 2.37762 1.04382 1.84589 3.22969 4.76645 2.303 3.26098 
2.19865 2.5641 3.8486 0.316145 2.47392 3.81266 0.867654 0.588899 2.94606 
3.59563 0.825938 2.90099 0.684328 3.74762 2.63848 1.94072 4.71697 2.88897 
3.45469 3.55152 3.15701 3.32834 4.84421 2.36242 2.65985 2.43755 2.96524 
0.634501 2.92382 2.07376 2.79786 4.78655 3.49368 0.971954 4.70538 2.64052 
3.53 3.8268 2.1983 4.09789 2.21781 4.00687 3.17561 4.00367 4.00804 
2.42068 0.232444 4.22057 4.66533 1.05417 4.17207 1.29144 2.32551 4.21388 
4.58218 1.62694 5.41173 1.60853 3.78784 5.73348 3.40302 0.316275 4.71677 
0.195044 2.01484 5.52217 0.46457 3.40514 5.81397 3.92176 2.72911 5.62151 
0.542752 1.67509 4.37 2.40898 3.43394 4.30412 2.56312 3.94241 5.47647 
1.50129 3.21607 4.66276 4.01841 3.95845 4.54435 0.585736 3.59864 4.53838 
3.27284 4.61394 5.25384 1.56012 4.40058 4.94325 3.90565 3.73569 5.64382 
4.66455 4.42661 5.14711 2.83857 1.14013 4.06998 2.01397 1.94964 4.81071 
3.71908 1.01853 5.43278 0.448201 1.10145 5.18417 3.50594 0.0749705 5.69601 
0.548044 4.81384 4.50272 4.4788 0.5282 5.00358 1.3824 1.13916 4.46264 
1.20454 1.80249 5.40493 3.70001 3.15054 4.03976 0.56418 2.63488 4.82919 
0.655693 4.27893 5.35584 2.18382 2.37868 5.96778 3.64717 1.50957 4.55981 
4.82851 3.44114 4.8243 2.44351 2.8468 5.115 4.99216 3.00053 5.70786 
3.42662 2.47159 4.72124 2.35376 4.46818 4.33852 3.2579 3.44224 4.93961 
1.30274 2.78848 5.54458 4.04878 4.71385 5.88216 2.42005 1.04831 4.98002 
3.19058 1.8697 5.48476 1.33883 0.744394 5.46691 1.50982 0.160824 4.62706 
2.19726 0.262065 5.65818 4.57748 2.47218 4.87581 3.65772 4.87713 4.34771 
0.595498 0.110952 5.18196 4.921 4.19013 4.16747 1.99534 1.4003 5.86659 
2.86016 3.1262 5.98455 3.53098 1.20115 7.66642 0.253025 3.32206 6.96372 
1.76664 4.96835 7.07354 4.46 0.110232 6.94632 1.4538 2.77861 6.53392 
1.10068 3.71195 6.59942 2.50596 3.01162 6.94884 3.29449 4.43268 6.50942 
2.91481 1.87564 6.44683 2.56064 4.29532 7.2031 4.51677 1.52925 7.9167 
0.784345 3.14868 7.80347 4.29053 4.64227 7.22772 0.480606 2.54875 6.33017 
4.37506 0.540466 7.84576 4.61172 2.12069 7.1161 3.92189 1.59218 6.24099 
0.862042 2.22987 7.19865 1.74929 2.62707 7.47756 0.508916 4.47263 6.3325 
0.396225 1.21416 7.84873 3.69033 3.83636 7.20985 2.63807 2.07333 7.38815 
0.134692 4.86105 7.88908 3.22057 3.08059 7.66747 4.46368 2.93733 6.55633 
4.52283 3.40683 7.58494 0.0874205 2.16522 7.83182 1.68904 1.71911 6.82311 
0.7618 1.4777 6.24091 2.64447 1.08393 6.99731 4.3877 3.93382 6.49875 
3.70678 2.18363 7.60073 3.36026 4.92612 7.56949 1.68763 0.697511 6.51088 
2.33806 4.93422 7.93996 0.848019 0.865455 7.02752 3.51145 2.71913 6.77881 
3.55004 0.607995 6.75089 1.79131 3.64846 7.3199 0.871229 4.48616 7.27268 
1.92319 0.761761 7.6135 4.37477 1.1198 7.00079 1.33573 1.55701 7.76688 
2.8744 0.894547 6.03755 0.954076 0.113166 6.14324 2.56928 0.0865581 6.99701 
4.38636 0.454894 6.00987 3.00932 0.469843 8.10619 3.81678 0.326429 8.78245 
4.12922 0.705826 9.68103 3.20584 1.10697 8.93089 4.81454 3.32031 9.56077 
3.11205 2.20051 9.17167 2.43502 3.84287 9.86149 2.15823 3.96778 8.19365 
1.39426 2.35635 8.37242 3.58685 3.1907 9.32606 2.35427 2.00021 9.82654 
2.11012 1.85242 8.85707 2.29267 2.95037 9.16829 4.2769 4.03214 8.95557 
0.925976 4.51975 9.04431 1.14115 4.10663 8.15857 0.0551974 3.30683 9.21053 
3.74072 4.35277 9.73802 2.69434 2.54063 8.32551 2.67752 0.137024 8.99603 
0.179705 3.96419 8.4207 3.1617 0.497816 9.82505 2.87043 3.70816 8.84591 
1.45665 3.4318 8.82649 1.41532 0.379877 9.87824 2.02081 0.793227 8.61686 
2.87938 2.9563 9.99346 0.800909 1.64143 9.06527 2.66091 1.41461 8.14603 
4.67624 4.4149 8.12239 0.463062 2.57426 8.66528 3.5003 4.32044 8.35699 
3.95412 3.26596 8.39863 4.00813 1.71021 9.51806 4.96449 4.3247 9.62016 
0.491427 0.590785 9.47984 1.02323 0.829138 8.52597 3.79046 1.82858 8.53809 
0.243484 2.32465 9.61201 1.45133 3.95747 9.68435 2.38639 1.04746 9.51378 
4.4436 1.10816 8.82093 4.34166 2.57042 9.07011 1.89036 4.71484 8.80719 
1.38922 2.5061 9.36122 2.76467 4.6012 9.29072 1.5069 1.37902 9.8728 
4.5549 2.52701 8.09234 0.660483 7.80583 1.7984 1.27586 9.31391 1.57054 
4.38518 7.92307 0.329237 2.57073 8.17763 0.450053 3.84877 5.02557 0.493185 
3.03257 6.38355 1.57927 4.60559 8.66146 0.966842 1.89105 8.22919 1.41467 
0.0777308 8.09573 0.668594 3.06263 9.1372 0.869087 3.1572 7.32921 1.89911 
2.22828 6.06271 0.967526 4.13683 9.45065 1.48572 0.12938 5.7705 1.12349 
1.40197 6.56534 0.701894 4.06411 6.96823 0.323104 0.967257 8.47475 1.12083 
0.798015 7.41601 0.527712 1.97112 6.6425 1.74071 0.757758 6.4266 1.62309 
4.99354 6.94547 0.806273 4.20926 6.30084 1.12616 1.13044 9.02951 0.0853777 
2.41764 6.4213 0.0462492 3.92351 8.49179 1.68722 2.06226 9.00378 0.69453 
1.74514 5.68592 0.17707 3.54243 8.26842 0.74728 1.38734 5.37079 1.1426 
1.5123 8.13043 0.344012 1.49479 9.82804 0.710497 2.17794 9.0463 1.91493 
4.75098 7.13063 1.7588 4.13355 5.95235 0.187629 2.88692 8.21317 1.50462 
3.14692 7.36133 0.390589 3.91167 7.35969 1.23477 3.54328 5.52565 1.63982 
0.746464 5.86724 0.342452 0.524488 9.57434 0.704242 1.41241 7.35613 1.31625 
4.29193 9.54815 0.498818 3.27433 6.39176 0.607535 2.99138 5.43578 0.810419 
0.0616792 8.89261 1.27248 2.50379 9.89124 0.523962 0.484899 5.27355 1.95049 
3.66414 9.99689 2.17972 3.1172 5.70716 3.82856 4.28061 5.42401 2.30837 
3.15648 8.97296 2.11211 1.84738 9.42909 2.77762 0.578994 6.54023 2.6497 
4.58322 9.67175 2.58975 2.58223 6.22603 2.88403 1.38515 5.69036 2.09862 
1.47228 7.53068 2.31364 1.48493 6.75009 3.61647 0.649656 8.98007 2.30469 
0.885398 5.64299 2.97728 1.57907 6.50688 2.65067 0.0657303 5.20679 3.70324 
2.47727 6.94219 3.58134 4.39858 8.24835 2.6052 0.90268 8.27726 3.87513 
0.37681 8.90239 3.27409 1.03001 5.69411 3.98296 4.20467 7.26657 2.58577 
2.69647 9.80947 2.41043 4.70866 9.0658 3.47229 0.247481 6.17694 3.54119 
1.68607 8.80013 3.53921 2.82434 8.6426 3.14798 3.60972 7.75444 3.44837 
0.106696 7.49455 3.923 4.46029 5.1995 3.8152 3.29182 6.99051 2.88681 
3.95731 9.53019 3.94317 2.57237 5.62114 2.08171 4.54443 8.08945 3.61462 
2.39413 8.13777 2.39879 3.40914 8.0864 2.50375 2.94268 9.27032 3.95735 
1.84574 7.70133 3.27829 4.36149 7.10495 3.56227 1.82469 5.72839 3.30942 
4.96231 6.58033 2.95913 1.02564 9.66468 3.29651 3.73358 5.32535 3.13979 
0.861854 7.64471 3.1017 2.36459 7.14096 2.54381 3.44625 9.85089 3.14563 
1.47688 8.49594 2.6082 3.99902 6.29961 3.07286 3.78916 8.89391 3.06576 
3.43152 6.85981 3.87013 4.99624 5.58451 3.04412 0.0905013 9.9435 3.07793 
4.95019 6.11002 2.02313 3.90384 6.46391 2.07065 1.89963 9.17511 4.445 
3.42635 6.72448 5.93852 4.54791 8.66004 4.44339 2.09653 8.08829 4.17889 
1.59671 8.28707 5.04592 1.83617 7.27978 4.82202 3.46818 7.20562 5.06261 
2.44748 6.13923 5.23708 3.62956 8.54496 4.06054 0.799346 9.55755 4.26466 
1.8781 5.35406 4.85575 2.68963 6.83217 4.5535 2.23075 6.01449 4.17776 
4.26718 5.49982 4.84505 3.45442 9.0517 4.90468 0.709811 8.72873 4.8172 
4.01889 6.07273 4.06363 2.67668 9.6719 5.0082 1.43025 6.36443 4.66595 
4.28598 6.54086 5.44469 3.94854 8.21886 5.15461 4.80462 9.11687 5.63646 
4.76787 5.39756 5.71636 4.3216 9.54882 4.87462 2.21222 8.9349 5.50171 
0.435825 6.33077 4.51746 0.471994 7.77379 4.99486 4.04634 7.61986 4.35949 
3.80582 5.69722 5.96087 0.921737 6.07898 5.47833 3.0306 7.73014 4.26431 
4.8366 8.08859 5.62493 1.82805 7.60664 5.77741 2.92006 8.2054 5.1375 
4.97597 9.75699 4.14716 4.12247 7.44794 5.96448 4.99838 7.145 4.33404 
3.50702 6.198 4.91889 2.88428 5.38394 4.7477 0.481363 9.23413 5.64939 
0.957923 7.18636 4.34773 1.40454 9.5408 5.40502 0.596463 7.32034 5.8781 
0.374333 8.29445 5.97508 3.25804 7.77425 6.65521 1.55736 9.87841 7.31876 
2.79435 9.54501 6.18703 0.782732 6.24996 6.45377 1.35121 7.4604 7.80086 
1.45107 5.448 7.893 1.62533 8.48343 6.21567 1.03203 5.28772 6.08227 
[...]
POINT_DATA 1000
FIELD FieldData 7
id 1 1000 int
120 525 371 18 94 25 36 8 629 
5 650 14 264 223 364 107 529 515 
244 20 280 620 1000 103 536 506 626 
553 135 624 256 260 616 106 157 516 
183 625 91 257 4 522 117 511 911 
668 90 734 672 759 609 622 378 21 
682 144 502 27 965 61 680 251 517 
6 519 509 142 941 919 458 41 814 
130 12 512 151 667 38 936 531 527 
383 992 521 136 540 510 19 543 773 
555 429 316 503 896 690 641 528 225 
119 675 907 95 647 678 200 114 820 
47 824 172 718 505 524 839 937 811 
827 149 925 168 928 148 914 23 594 
539 730 689 450 549 591 243 646 374 
418 190 507 155 573 766 513 180 154 
740 657 187 127 708 204 694 28 671 
741 396 727 546 722 649 73 199 206 
198 217 116 203 80 713 233 662 229 
736 86 703 480 240 838 129 544 234 
997 606 66 583 134 201 216 724 152 
236 551 224 618 123 584 717 611 2 
749 209 227 716 596 707 205 239 732 
492 245 587 231 96 237 17 754 138 
640 637 597 104 504 774 585 743 747 
110 412 139 7 654 242 868 636 750 
670 15 607 619 495 598 642 137 226 
760 530 635 998 232 608 526 79 523 
235 341 533 330 742 100 627 497 22 
825 981 122 102 278 578 126 82 63 
150 651 453 964 605 145 105 874 676 
621 219 610 632 32 552 221 579 878 
592 590 98 113 24 673 967 599 99 
803 886 807 1 698 11 45 64 815 
287 146 175 153 182 213 417 166 932 
695 887 461 957 725 404 9 33 945 
50 162 160 976 876 699 547 746 792 
634 884 684 557 401 171 390 462 112 
443 687 532 808 631 26 174 101 336 
752 883 710 700 537 188 170 208 165 
189 159 196 720 723 922 701 721 712 
438 714 728 178 193 719 181 569 156 
192 705 184 683 446 686 179 934 709 
34 692 892 215 214 118 197 577 303 
345 550 715 202 601 603 604 55 62 
52 520 562 818 666 191 628 580 60 
173 561 143 959 346 685 613 850 57 
729 602 538 581 566 704 586 51 595 
185 652 53 31 731 49 67 665 48 
246 630 534 59 54 65 567 702 83 
563 77 88 753 81 498 600 589 726 
85 644 588 84 207 989 571 74 617 
89 501 75 92 311 70 980 560 121 
46 76 593 222 72 131 493 558 133 
218 745 68 132 71 614 30 574 78 
903 387 755 661 854 284 289 109 871 
853 659 259 798 832 262 368 393 373 
266 376 292 269 361 13 771 430 274 
389 872 697 514 770 147 359 858 768 
758 779 895 761 762 882 806 362 638 
333 370 382 899 909 366 399 893 263 
873 405 439 891 291 920 293 865 915 
410 275 400 775 411 901 780 508 767 
413 921 866 905 916 272 434 416 369 
423 431 422 392 801 889 990 999 298 
910 425 402 900 777 456 395 973 415 
313 419 427 408 898 490 340 465 314 
930 428 250 268 783 837 939 855 315 
437 16 931 894 320 449 933 323 39 
658 943 332 299 548 804 908 795 518 
435 283 335 817 679 848 805 37 913 
487 737 542 816 445 918 570 228 161 
822 329 388 643 304 500 318 944 565 
819 271 97 851 956 681 655 924 310 
365 802 348 384 656 317 385 194 354 
358 572 40 372 559 56 249 69 238 
357 125 677 862 377 568 35 852 995 
42 406 790 247 43 554 258 835 360 
195 248 786 867 265 10 861 778 273 
776 253 488 772 787 270 339 342 846 
255 784 379 856 828 261 840 276 485 
849 380 869 669 870 763 859 633 842 
845 863 108 756 764 277 267 789 991 
296 282 375 483 674 420 290 288 394 
297 286 826 782 281 367 982 254 363 
794 797 279 407 494 793 833 800 93 
799 300 996 328 904 791 433 115 983 
44 489 880 881 541 481 306 857 765 
442 491 321 810 994 823 454 885 809 
940 391 353 307 403 424 294 305 337 
319 473 788 397 902 785 309 938 923 
993 917 821 440 421 29 285 447 769 
301 897 325 452 972 890 950 796 912 
830 906 535 167 582 386 455 693 409 
575 164 696 177 664 186 432 448 464 
955 451 556 338 969 163 961 457 733 
813 962 960 469 576 927 948 929 952 
841 212 169 349 935 971 436 691 463 
751 926 942 211 978 322 158 470 954 
210 474 460 58 426 970 987 459 812 
829 706 343 615 748 466 468 312 988 
471 472 843 968 475 476 477 478 744 
946 951 467 949 688 220 486 326 836 
738 324 334 958 352 331 711 350 986 
496 241 444 974 499 308 479 124 645 
831 230 860 356 141 140 653 482 875 
484 545 877 639 781 3 947 327 398 
847 441 660 844 381 985 966 295 623 
351 176 834 879 344 252 975 414 347 
735 979 87 648 757 739 984 953 663 
111 128 963 977 612 864 888 355 564 
302 
type 1 1000 int
1 2 1 1 1 1 1 1 2 
1 2 1 1 1 1 1 2 2 
1 1 1 2 2 1 2 2 2 
2 1 2 1 1 2 1 1 2 
1 2 1 1 1 2 1 2 2 
2 1 2 2 2 2 2 1 1 
2 1 2 1 2 1 2 1 2 
1 2 2 1 2 2 1 1 2 
1 1 2 1 2 1 2 2 2 
1 2 2 1 2 2 1 2 2 
2 1 1 2 2 2 2 2 1 
1 2 2 1 2 2 1 1 2 
1 2 1 2 2 2 2 2 2 
2 1 2 1 2 1 2 1 2 
2 2 2 1 2 2 1 2 1 
1 1 2 1 2 2 2 1 1 
2 2 1 1 2 1 2 1 2 
2 1 2 2 2 2 1 1 1 
1 1 1 1 1 2 1 2 1 
2 1 2 1 1 2 1 2 1 
2 2 1 2 1 1 1 2 1 
1 2 1 2 1 2 2 2 1 
2 1 1 2 2 2 1 1 2 
1 1 2 1 1 1 1 2 1 
2 2 2 1 2 2 2 2 2 
1 1 1 1 2 1 2 2 2 
2 1 2 2 1 2 2 1 1 
2 2 2 2 1 2 2 1 2 
1 1 2 1 2 1 2 1 1 
2 2 1 1 1 2 1 1 1 
1 2 1 2 2 1 1 2 2 
2 1 2 2 1 2 1 2 2 
2 2 1 1 1 2 2 2 1 
2 2 2 1 2 1 1 1 2 
1 1 1 1 1 1 1 1 2 
2 2 1 2 2 1 1 1 2 
1 1 1 2 2 2 2 2 2 
2 2 2 2 1 1 1 1 1 
1 2 2 2 2 1 1 1 1 
2 2 2 2 2 1 1 1 1 
1 1 1 2 2 2 2 2 2 
1 2 2 1 1 2 1 2 1 
1 2 1 2 1 2 1 2 2 
1 2 2 1 1 1 1 2 1 
1 2 2 1 2 2 2 1 1 
1 2 2 2 2 1 2 2 1 
1 2 1 2 1 2 2 2 1 
2 2 2 2 2 2 2 1 2 
1 2 1 1 2 1 1 2 1 
1 2 2 1 1 1 2 2 1 
2 1 1 2 1 1 2 2 2 
1 2 2 1 1 2 2 1 2 
1 2 1 1 1 1 2 2 1 
1 1 2 1 1 1 1 2 1 
1 2 1 1 1 2 1 2 1 
2 1 2 2 2 1 1 1 2 
2 2 1 2 2 1 1 1 1 
1 1 1 1 1 1 2 1 1 
1 2 2 2 2 1 1 2 2 
2 2 2 2 2 2 2 1 2 
1 1 1 2 2 1 1 2 1 
2 1 1 2 1 2 1 2 2 
1 1 1 2 1 2 2 2 2 
1 2 2 2 2 1 1 1 1 
1 1 1 1 2 2 2 2 1 
2 1 1 2 2 1 1 2 1 
1 1 1 1 2 1 1 1 1 
2 1 1 1 2 2 2 2 1 
1 1 2 2 1 1 2 1 1 
2 2 1 1 2 2 2 2 2 
1 1 1 2 2 2 2 1 2 
1 2 2 2 1 2 2 1 1 
2 1 1 2 1 1 1 2 2 
2 1 1 2 2 2 2 2 1 
1 2 1 1 2 1 1 1 1 
1 2 1 1 2 1 1 1 1 
1 1 2 2 1 2 1 2 2 
1 1 2 1 1 2 1 2 1 
1 1 2 2 1 1 2 2 1 
2 1 1 2 2 1 1 1 2 
1 2 1 2 2 1 2 1 1 
2 1 2 2 2 2 2 2 2 
2 2 1 2 2 1 1 2 2 
1 1 1 1 2 1 1 1 1 
1 1 2 2 1 1 2 1 1 
2 2 1 1 1 2 2 2 1 
2 1 2 1 2 2 1 1 2 
1 1 2 2 2 1 1 2 2 
1 1 1 2 2 2 1 2 2 
2 1 1 1 1 1 1 1 1 
1 1 2 1 2 2 1 2 2 
2 2 2 1 1 1 1 1 2 
1 2 1 1 2 2 2 2 2 
2 2 2 1 2 1 1 2 1 
2 1 2 1 2 1 1 1 1 
2 1 2 1 2 1 2 1 2 
2 2 2 1 2 2 2 2 2 
2 1 1 1 2 2 1 2 1 
2 2 2 1 2 1 1 1 2 
1 1 1 1 1 2 2 1 2 
2 2 1 2 2 1 1 1 2 
1 1 2 2 1 1 1 1 2 
2 2 1 2 2 1 1 1 2 
2 1 1 2 1 1 2 1 2 
1 1 1 2 1 1 1 1 2 
2 1 2 1 1 1 2 1 2 
1 2 2 2 2 1 2 1 1 
2 1 2 2 1 2 2 1 2 
1 1 2 2 1 1 2 1 1 
2 2 1 2 2 2 2 2 2 
1 1 2 2 2 2 2 1 2 
1 
i 3 1000 int
0 0 0 0 0 0 0 0 0 
0 0 0 0 0 0 0 0 0 
0 0 0 0 0 0 0 0 0 
0 0 0 0 0 0 0 0 0 
0 0 0 0 0 0 0 0 0 
0 0 0 0 0 0 0 0 0 
0 0 0 0 0 0 0 0 0 
0 0 0 0 0 0 0 0 0 
0 0 0 0 0 0 0 0 0 
0 0 0 0 0 0 0 0 0 
0 0 0 0 0 0 0 0 0 
0 0 0 0 0 0 0 0 0 
0 0 0 0 0 0 0 0 0 
0 0 0 0 0 0 0 0 0 
0 0 0 0 0 0 0 0 0 
0 0 0 0 0 0 0 0 0 
0 0 0 0 0 0 0 0 0 
0 0 0 0 0 1 0 0 0 
0 0 0 0 0 0 0 0 0 
0 0 0 0 0 0 0 0 0 
0 0 0 0 0 0 0 0 0 
0 0 0 0 0 0 0 0 0 
0 0 0 0 0 0 0 0 0 
0 0 0 0 0 0 0 0 0 
0 0 0 0 0 0 0 0 0 
0 0 0 0 0 0 0 0 0 
0 0 0 0 0 0 0 0 0 
0 0 0 0 0 0 0 0 0 
0 0 0 0 0 0 0 0 0 
0 0 0 0 0 0 0 0 0 
0 0 0 0 0 0 0 0 0 
0 0 0 0 0 0 0 0 0 
0 0 0 0 0 0 0 0 0 
0 0 0 0 0 0 0 0 0 
0 0 0 0 0 0 0 0 0 
0 0 0 0 0 0 0 0 0 
0 0 0 0 0 0 0 0 0 
0 0 0 0 0 0 0 0 0 
0 0 0 0 0 0 0 0 0 
0 0 0 0 0 0 0 0 0 
0 0 0 0 0 0 0 0 0 
0 0 0 0 0 0 0 0 0 
0 0 0 0 0 0 0 0 0 
0 0 0 0 0 0 0 0 0 
0 0 0 0 0 0 0 0 0 
0 0 0 0 0 0 0 0 0 
0 0 0 0 0 0 0 0 0 
0 0 0 0 0 0 0 0 0 
0 0 0 0 0 0 0 0 0 
0 0 0 0 0 0 0 0 0 
0 0 0 0 0 0 0 0 0 
0 0 0 0 0 0 0 0 0 
0 0 0 0 0 0 0 0 0 
0 0 0 0 0 0 0 0 0 
0 0 0 0 0 0 0 0 0 
0 0 0 0 0 0 0 0 0 
0 0 0 0 0 0 0 0 0 
0 0 0 0 0 0 0 0 0 
0 0 0 0 0 0 0 0 0 
0 0 0 0 0 0 0 0 0 
0 0 0 0 0 0 0 0 0 
0 0 0 0 0 0 0 0 0 
0 0 0 0 0 0 0 0 0 
0 0 0 0 0 0 0 0 0 
0 0 0 0 0 0 0 0 0 
0 0 0 0 0 0 0 0 0 
0 0 0 0 0 0 0 0 0 
0 0 0 0 0 0 0 0 0 
0 0 0 0 0 0 0 0 0 
0 0 0 0 0 0 0 0 0 
0 0 0 0 0 0 0 0 0 
0 0 0 0 0 0 0 0 0 
0 0 0 0 0 0 0 0 0 
0 0 0 0 0 0 0 0 0 
0 0 0 0 0 0 0 0 0 
0 0 0 0 0 0 0 0 0 
0 0 0 0 0 0 0 0 0 
0 0 0 0 0 0 0 0 0 
0 0 0 0 0 0 0 0 0 
0 0 0 0 0 0 0 0 0 
0 0 0 0 0 0 0 0 0 
0 0 0 0 0 0 0 0 0 
0 0 0 0 0 0 0 0 0 
0 0 0 0 0 0 0 0 0 
0 0 0 0 0 0 0 0 0 
0 0 0 0 0 0 0 0 0 
0 0 0 0 0 0 0 0 0 
0 0 0 0 0 0 0 0 0 
0 0 0 0 0 0 0 0 0 
0 0 0 0 0 0 0 0 0 
0 0 0 0 0 0 0 0 0 
0 0 0 0 0 0 0 0 0 
0 0 0 0 0 0 0 0 0 
0 0 0 0 0 0 0 0 0 
0 0 0 0 0 0 0 0 0 
0 0 0 0 0 0 0 0 0 
0 0 0 0 0 0 0 0 0 
0 0 0 0 0 0 0 0 0 
0 0 0 0 0 0 0 0 0 
0 0 0 0 0 0 0 0 0 
0 -1 0 0 0 0 0 0 0 
0 0 0 0 0 0 0 0 0 
0 0 0 0 0 0 0 0 0 
0 0 0 0 0 0 0 0 0 
0 0 0 0 0 0 0 0 0 
0 0 0 0 0 0 0 0 0 
0 0 0 0 0 0 0 0 0 
0 0 0 0 0 0 0 0 0 
0 0 0 0 0 0 0 0 0 
0 0 0 0 0 0 0 0 0 
0 0 0 0 0 0 0 0 0 
0 0 0 0 0 0 0 0 0 
0 0 0 0 0 0 0 0 0 
0 0 0 0 0 0 0 0 0 
0 0 0 0 0 0 0 0 0 
0 0 0 0 0 0 0 0 0 
0 0 0 0 0 0 0 0 0 
0 0 0 0 0 0 0 0 0 
0 0 0 0 0 0 0 0 0 
0 0 0 0 0 0 0 0 0 
0 0 0 0 0 0 0 0 0 
0 0 0 0 0 0 0 0 0 
0 0 0 0 0 0 0 0 0 
0 0 0 0 0 0 0 0 0 
0 0 0 0 0 0 0 0 0 
0 0 0 0 0 0 0 0 0 
0 0 0 0 0 0 0 0 0 
0 0 0 0 0 0 0 0 0 
0 0 0 0 0 0 0 0 0 
0 0 0 0 0 0 0 0 0 
0 0 0 0 0 0 0 0 0 
0 0 0 0 0 0 0 0 0 
0 0 0 0 0 0 0 0 0 
0 0 0 0 0 0 0 0 0 
0 0 0 0 0 0 0 0 0 
0 0 0 0 0 0 0 0 0 
0 0 0 0 0 0 0 0 0 
0 0 0 0 0 0 0 0 0 
0 0 0 0 0 0 0 0 0 
0 0 0 0 0 0 0 0 0 
0 0 0 0 0 0 0 0 0 
0 0 0 0 0 0 0 0 0 
0 0 0 0 0 0 0 0 0 
0 0 0 0 0 0 0 0 0 
0 0 0 0 0 0 0 0 0 
0 0 0 0 0 0 0 0 0 
0 0 0 0 0 0 0 0 0 
0 0 0 0 0 0 0 0 0 
0 0 0 0 0 0 0 0 0 
0 0 0 0 0 0 0 0 0 
0 0 0 0 0 0 0 0 0 
0 0 0 0 0 0 0 0 0 
0 0 0 0 0 0 0 0 0 
0 0 0 0 0 0 0 0 0 
0 0 0 0 0 0 0 0 0 
0 0 0 0 0 0 0 0 0 
0 0 0 0 0 0 0 0 0 
0 0 0 0 0 0 0 0 0 
0 0 0 0 0 0 0 0 0 
0 0 0 0 0 0 0 0 0 
0 0 0 0 0 0 0 0 0 
0 0 0 0 0 0 0 0 0 
0 0 0 0 0 0 0 0 0 
0 0 0 0 0 0 0 0 0 
0 0 0 0 0 0 0 0 0 
0 0 0 0 0 0 0 0 0 
0 0 0 0 0 0 0 0 0 
0 0 0 0 0 0 0 0 0 
0 0 0 0 0 0 0 0 0 
0 0 0 0 0 0 0 0 0 
0 0 0 0 0 0 0 0 0 
0 0 0 0 0 0 0 0 0 
0 0 0 0 0 0 0 0 0 
0 0 0 0 0 0 0 0 0 
0 0 0 0 0 0 0 0 0 
0 0 0 0 0 0 0 0 0 
0 0 0 0 0 0 0 0 0 
0 0 0 0 0 0 0 0 0 
0 0 0 0 0 0 0 0 0 
0 0 0 0 0 0 0 0 0 
0 0 0 0 0 0 0 0 0 
0 0 0 0 0 0 0 0 0 
0 0 0 0 0 0 0 0 0 
0 0 0 0 0 0 0 0 0 
0 0 0 0 0 0 0 0 0 
0 0 0 0 0 0 0 0 0 
0 0 0 0 0 0 0 0 0 
0 0 0 0 0 0 0 0 0 
0 0 0 0 0 0 0 0 0 
0 0 0 0 0 0 0 0 0 
0 0 0 0 0 0 0 0 0 
0 0 0 0 0 0 0 0 0 
0 0 0 0 0 0 0 0 0 
0 0 0 0 0 0 0 0 0 
0 0 0 0 0 0 0 0 0 
0 0 0 0 0 0 0 0 0 
0 0 0 0 0 0 0 0 0 
0 0 0 0 0 0 0 0 0 
0 0 0 0 0 0 0 0 0 
0 0 0 0 0 0 0 0 0 
0 0 0 0 0 0 0 0 0 
0 0 0 0 0 0 0 0 0 
0 0 0 0 0 0 0 0 0 
0 0 0 0 0 0 0 0 0 
0 0 0 0 0 0 0 0 0 
0 0 0 0 0 0 0 0 0 
0 0 0 0 0 0 0 0 0 
0 0 0 0 0 0 0 0 0 
0 0 0 0 0 0 0 0 0 
0 0 0 0 0 0 0 0 0 
0 0 0 0 0 0 0 0 0 
0 0 0 0 0 0 0 0 0 
0 0 0 0 0 0 0 0 0 
0 0 0 0 0 0 0 0 0 
0 0 0 0 0 0 0 0 0 
0 0 0 0 0 0 0 0 0 
0 0 0 0 0 0 0 0 0 
0 0 0 0 0 0 0 0 0 
0 0 0 0 0 0 0 0 0 
0 0 0 0 0 0 0 0 0 
0 0 0 0 0 0 0 0 0 
0 0 0 0 0 0 0 0 0 
0 0 0 0 0 0 0 0 0 
0 0 0 0 0 0 0 0 0 
0 0 0 0 0 0 0 0 0 
0 0 0 0 0 0 0 0 0 
0 0 0 0 0 0 0 0 0 
0 0 0 0 0 0 0 0 0 
0 0 0 0 0 0 0 0 0 
0 0 0 0 0 0 0 0 0 
0 0 0 0 0 0 0 0 0 
0 0 0 0 0 0 0 0 0 
0 0 0 0 0 0 0 0 0 
0 0 0 0 0 0 0 0 0 
0 0 0 0 0 0 0 0 0 
0 0 0 0 0 0 0 0 0 
0 0 0 0 0 0 0 0 0 
0 0 0 0 0 0 0 0 0 
0 0 0 0 0 0 0 0 0 
0 0 0 0 0 0 0 0 0 
0 0 0 0 0 0 0 0 0 
0 0 0 0 0 0 0 0 0 
0 0 0 0 0 0 0 0 0 
0 0 0 0 0 0 0 0 0 
0 0 0 0 0 0 0 0 0 
0 0 0 0 0 0 0 0 0 
0 0 0 0 0 0 0 0 0 
0 0 0 0 0 0 0 0 0 
0 0 0 0 0 0 0 0 0 
0 0 0 0 0 0 0 0 0 
0 0 0 0 0 0 0 0 0 
0 0 0 0 0 0 0 0 0 
0 0 0 0 0 0 0 0 0 
0 0 0 0 0 0 0 0 0 
0 0 0 0 0 0 0 0 0 
0 0 0 0 0 0 0 0 0 
0 0 0 0 0 0 0 0 0 
0 0 0 0 0 0 0 0 0 
0 0 0 0 0 0 0 0 0 
0 0 0 0 0 0 0 0 0 
0 0 0 0 0 0 0 0 0 
0 0 0 0 0 0 0 0 0 
0 0 0 0 0 0 0 0 0 
0 0 0 0 0 0 0 0 0 
0 0 0 0 0 0 0 0 0 
0 0 0 0 0 0 0 0 0 
0 0 0 0 0 0 0 0 0 
0 0 0 0 0 0 0 0 0 
0 0 0 0 0 0 0 0 0 
0 0 0 0 0 0 0 0 0 
0 0 0 0 0 0 0 0 0 
0 0 0 0 0 0 0 0 0 
0 0 0 0 0 0 0 0 0 
0 0 0 0 0 0 0 0 0 
0 0 0 0 0 0 0 0 0 
0 0 0 0 0 0 0 0 0 
0 0 0 0 0 0 0 0 0 
0 0 0 0 0 0 0 0 0 
0 0 0 0 0 0 0 0 0 
0 0 0 0 0 0 0 0 0 
0 0 0 0 0 0 0 0 0 
0 0 0 0 0 0 0 0 0 
0 0 0 0 0 0 0 0 0 
0 0 0 0 0 0 0 0 0 
0 0 0 0 0 0 0 0 0 
0 0 0 0 0 0 0 0 0 
0 0 0 0 0 0 0 0 0 
0 0 0 0 0 0 0 0 0 
0 0 0 0 0 0 0 0 0 
0 0 0 0 0 0 0 0 0 
0 0 0 0 0 0 0 0 0 
0 0 0 0 0 0 0 0 0 
0 0 0 0 0 0 0 0 0 
0 0 0 0 0 0 0 0 0 
0 0 0 0 0 0 0 0 0 
0 0 0 0 0 0 0 0 0 
0 0 0 0 0 0 0 0 0 
0 0 0 0 0 0 0 0 0 
0 0 0 0 0 0 0 0 0 
0 0 0 0 0 0 0 0 0 
0 0 0 0 0 0 0 0 0 
0 0 0 0 0 0 0 0 0 
0 0 0 0 0 0 0 0 0 
0 0 0 0 0 0 0 0 0 
0 0 0 0 0 0 0 0 0 
0 0 0 0 0 0 0 0 0 
0 0 0 0 0 0 0 0 0 
0 0 0 0 0 0 0 0 0 
0 0 0 0 0 0 0 0 0 
0 0 0 0 0 0 0 0 0 
0 0 0 0 0 0 0 0 0 
0 0 0 0 0 0 0 0 0 
0 0 0 0 0 0 0 0 0 
0 0 0 0 0 0 0 0 0 
0 0 0 0 0 0 0 0 0 
0 0 0 0 0 0 0 0 0 
0 0 0 0 0 0 0 0 0 
0 0 0 0 0 0 0 0 0 
0 0 0 0 0 0 0 0 0 
0 0 0 0 0 0 0 0 0 
0 0 0 0 0 0 0 0 0 
0 0 0 0 0 0 0 0 0 
0 0 0 0 0 0 0 0 0 
0 0 0 0 0 0 0 0 0 
0 0 0 0 0 0 0 0 0 
0 0 0 0 0 0 0 0 0 
0 0 0 0 0 0 0 0 0 
0 0 0 0 0 0 0 0 0 
0 0 0 0 0 0 0 0 0 
0 0 0 0 0 0 0 0 0 
0 0 0 0 0 0 0 0 0 
0 0 0 0 0 0 0 0 0 
0 0 0 0 0 0 0 0 0 
0 0 0 
v 3 1000 double
0 0 0 0 0 0 0 0 0 
0 0 0 0 0 0 0 0 0 
0 0 0 0 0 0 0 0 0 
0 0 0 0 0 0 0 0 0 
0 0 0 0 0 0 0 0 0 
0 0 0 0 0 0 0 0 0 
0 0 0 0 0 0 0 0 0 
0 0 0 0 0 0 0 0 0 
0 0 0 0 0 0 0 0 0 
0 0 0 0 0 0 0 0 0 
0 0 0 0 0 0 0 0 0 
0 0 0 0 0 0 0 0 0 
0 0 0 0 0 0 0 0 0 
0 0 0 0 0 0 0 0 0 
0 0 0 0 0 0 0 0 0 
0 0 0 0 0 0 0 0 0 
0 0 0 0 0 0 0 0 0 
0 0 0 0 0 0 0 0 0 
0 0 0 0 0 0 0 0 0 
0 0 0 0 0 0 0 0 0 
0 0 0 0 0 0 0 0 0 
0 0 0 0 0 0 0 0 0 
0 0 0 0 0 0 0 0 0 
0 0 0 0 0 0 0 0 0 
0 0 0 0 0 0 0 0 0 
0 0 0 0 0 0 0 0 0 
0 0 0 0 0 0 0 0 0 
0 0 0 0 0 0 0 0 0 
0 0 0 0 0 0 0 0 0 
0 0 0 0 0 0 0 0 0 
0 0 0 0 0 0 0 0 0 
0 0 0 0 0 0 0 0 0 
0 0 0 0 0 0 0 0 0 
0 0 0 0 0 0 0 0 0 
0 0 0 0 0 0 0 0 0 
0 0 0 0 0 0 0 0 0 
0 0 0 0 0 0 0 0 0 
0 0 0 0 0 0 0 0 0 
0 0 0 0 0 0 0 0 0 
0 0 0 0 0 0 0 0 0 
0 0 0 0 0 0 0 0 0 
0 0 0 0 0 0 0 0 0 
0 0 0 0 0 0 0 0 0 
0 0 0 0 0 0 0 0 0 
0 0 0 0 0 0 0 0 0 
0 0 0 0 0 0 0 0 0 
0 0 0 0 0 0 0 0 0 
0 0 0 0 0 0 0 0 0 
0 0 0 0 0 0 0 0 0 
0 0 0 0 0 0 0 0 0 
0 0 0 0 0 0 0 0 0 
0 0 0 0 0 0 0 0 0 
0 0 0 0 0 0 0 0 0 
0 0 0 0 0 0 0 0 0 
0 0 0 0 0 0 0 0 0 
0 0 0 0 0 0 0 0 0 
0 0 0 0 0 0 0 0 0 
0 0 0 0 0 0 0 0 0 
0 0 0 0 0 0 0 0 0 
0 0 0 0 0 0 0 0 0 
0 0 0 0 0 0 0 0 0 
0 0 0 0 0 0 0 0 0 
0 0 0 0 0 0 0 0 0 
0 0 0 0 0 0 0 0 0 
0 0 0 0 0 0 0 0 0 
0 0 0 0 0 0 0 0 0 
0 0 0 0 0 0 0 0 0 
0 0 0 0 0 0 0 0 0 
0 0 0 0 0 0 0 0 0 
0 0 0 0 0 0 0 0 0 
0 0 0 0 0 0 0 0 0 
0 0 0 0 0 0 0 0 0 
0 0 0 0 0 0 0 0 0 
0 0 0 0 0 0 0 0 0 
0 0 0 0 0 0 0 0 0 
0 0 0 0 0 0 0 0 0 
0 0 0 0 0 0 0 0 0 
0 0 0 0 0 0 0 0 0 
0 0 0 0 0 0 0 0 0 
0 0 0 0 0 0 0 0 0 
0 0 0 0 0 0 0 0 0 
0 0 0 0 0 0 0 0 0 
0 0 0 0 0 0 0 0 0 
0 0 0 0 0 0 0 0 0 
0 0 0 0 0 0 0 0 0 
0 0 0 0 0 0 0 0 0 
0 0 0 0 0 0 0 0 0 
0 0 0 0 0 0 0 0 0 
0 0 0 0 0 0 0 0 0 
0 0 0 0 0 0 0 0 0 
0 0 0 0 0 0 0 0 0 
0 0 0 0 0 0 0 0 0 
0 0 0 0 0 0 0 0 0 
0 0 0 0 0 0 0 0 0 
0 0 0 0 0 0 0 0 0 
0 0 0 0 0 0 0 0 0 
0 0 0 0 0 0 0 0 0 
0 0 0 0 0 0 0 0 0 
0 0 0 0 0 0 0 0 0 
0 0 0 0 0 0 0 0 0 
0 0 0 0 0 0 0 0 0 
0 0 0 0 0 0 0 0 0 
0 0 0 0 0 0 0 0 0 
0 0 0 0 0 0 0 0 0 
0 0 0 0 0 0 0 0 0 
0 0 0 0 0 0 0 0 0 
0 0 0 0 0 0 0 0 0 
0 0 0 0 0 0 0 0 0 
0 0 0 0 0 0 0 0 0 
0 0 0 0 0 0 0 0 0 
0 0 0 0 0 0 0 0 0 
0 0 0 0 0 0 0 0 0 
0 0 0 0 0 0 0 0 0 
0 0 0 0 0 0 0 0 0 
0 0 0 0 0 0 0 0 0 
0 0 0 0 0 0 0 0 0 
0 0 0 0 0 0 0 0 0 
0 0 0 0 0 0 0 0 0 
0 0 0 0 0 0 0 0 0 
0 0 0 0 0 0 0 0 0 
0 0 0 0 0 0 0 0 0 
0 0 0 0 0 0 0 0 0 
0 0 0 0 0 0 0 0 0 
0 0 0 0 0 0 0 0 0 
0 0 0 0 0 0 0 0 0 
0 0 0 0 0 0 0 0 0 
0 0 0 0 0 0 0 0 0 
0 0 0 0 0 0 0 0 0 
0 0 0 0 0 0 0 0 0 
0 0 0 0 0 0 0 0 0 
0 0 0 0 0 0 0 0 0 
0 0 0 0 0 0 0 0 0 
0 0 0 0 0 0 0 0 0 
0 0 0 0 0 0 0 0 0 
0 0 0 0 0 0 0 0 0 
0 0 0 0 0 0 0 0 0 
0 0 0 0 0 0 0 0 0 
0 0 0 0 0 0 0 0 0 
0 0 0 0 0 0 0 0 0 
0 0 0 0 0 0 0 0 0 
0 0 0 0 0 0 0 0 0 
0 0 0 0 0 0 0 0 0 
0 0 0 0 0 0 0 0 0 
0 0 0 0 0 0 0 0 0 
0 0 0 0 0 0 0 0 0 
0 0 0 0 0 0 0 0 0 
0 0 0 0 0 0 0 0 0 
0 0 0 0 0 0 0 0 0 
0 0 0 0 0 0 0 0 0 
0 0 0 0 0 0 0 0 0 
0 0 0 0 0 0 0 0 0 
0 0 0 0 0 0 0 0 0 
0 0 0 0 0 0 0 0 0 
0 0 0 0 0 0 0 0 0 
0 0 0 0 0 0 0 0 0 
0 0 0 0 0 0 0 0 0 
0 0 0 0 0 0 0 0 0 
0 0 0 0 0 0 0 0 0 
0 0 0 0 0 0 0 0 0 
0 0 0 0 0 0 0 0 0 
0 0 0 0 0 0 0 0 0 
0 0 0 0 0 0 0 0 0 
0 0 0 0 0 0 0 0 0 
0 0 0 0 0 0 0 0 0 
0 0 0 0 0 0 0 0 0 
0 0 0 0 0 0 0 0 0 
0 0 0 0 0 0 0 0 0 
0 0 0 0 0 0 0 0 0 
0 0 0 0 0 0 0 0 0 
0 0 0 0 0 0 0 0 0 
0 0 0 0 0 0 0 0 0 
0 0 0 0 0 0 0 0 0 
0 0 0 0 0 0 0 0 0 
0 0 0 0 0 0 0 0 0 
0 0 0 0 0 0 0 0 0 
0 0 0 0 0 0 0 0 0 
0 0 0 0 0 0 0 0 0 
0 0 0 0 0 0 0 0 0 
0 0 0 0 0 0 0 0 0 
0 0 0 0 0 0 0 0 0 
0 0 0 0 0 0 0 0 0 
0 0 0 0 0 0 0 0 0 
0 0 0 0 0 0 0 0 0 
0 0 0 0 0 0 0 0 0 
0 0 0 0 0 0 0 0 0 
0 0 0 0 0 0 0 0 0 
0 0 0 0 0 0 0 0 0 
0 0 0 0 0 0 0 0 0 
0 0 0 0 0 0 0 0 0 
0 0 0 0 0 0 0 0 0 
0 0 0 0 0 0 0 0 0 
0 0 0 0 0 0 0 0 0 
0 0 0 0 0 0 0 0 0 
0 0 0 0 0 0 0 0 0 
0 0 0 0 0 0 0 0 0 
0 0 0 0 0 0 0 0 0 
0 0 0 0 0 0 0 0 0 
0 0 0 0 0 0 0 0 0 
0 0 0 0 0 0 0 0 0 
0 0 0 0 0 0 0 0 0 
0 0 0 0 0 0 0 0 0 
0 0 0 0 0 0 0 0 0 
0 0 0 0 0 0 0 0 0 
0 0 0 0 0 0 0 0 0 
0 0 0 0 0 0 0 0 0 
0 0 0 0 0 0 0 0 0 
0 0 0 0 0 0 0 0 0 
0 0 0 0 0 0 0 0 0 
0 0 0 0 0 0 0 0 0 
0 0 0 0 0 0 0 0 0 
0 0 0 0 0 0 0 0 0 
0 0 0 0 0 0 0 0 0 
0 0 0 0 0 0 0 0 0 
0 0 0 0 0 0 0 0 0 
0 0 0 0 0 0 0 0 0 
0 0 0 0 0 0 0 0 0 
0 0 0 0 0 0 0 0 0 
0 0 0 0 0 0 0 0 0 
0 0 0 0 0 0 0 0 0 
0 0 0 0 0 0 0 0 0 
0 0 0 0 0 0 0 0 0 
0 0 0 0 0 0 0 0 0 
0 0 0 0 0 0 0 0 0 
0 0 0 0 0 0 0 0 0 
0 0 0 0 0 0 0 0 0 
0 0 0 0 0 0 0 0 0 
0 0 0 0 0 0 0 0 0 
0 0 0 0 0 0 0 0 0 
0 0 0 0 0 0 0 0 0 
0 0 0 0 0 0 0 0 0 
0 0 0 0 0 0 0 0 0 
0 0 0 0 0 0 0 0 0 
0 0 0 0 0 0 0 0 0 
0 0 0 0 0 0 0 0 0 
0 0 0 0 0 0 0 0 0 
0 0 0 0 0 0 0 0 0 
0 0 0 0 0 0 0 0 0 
0 0 0 0 0 0 0 0 0 
0 0 0 0 0 0 0 0 0 
0 0 0 0 0 0 0 0 0 
0 0 0 0 0 0 0 0 0 
0 0 0 0 0 0 0 0 0 
0 0 0 0 0 0 0 0 0 
0 0 0 0 0 0 0 0 0 
0 0 0 0 0 0 0 0 0 
0 0 0 0 0 0 0 0 0 
0 0 0 0 0 0 0 0 0 
0 0 0 0 0 0 0 0 0 
0 0 0 0 0 0 0 0 0 
0 0 0 0 0 0 0 0 0 
0 0 0 0 0 0 0 0 0 
0 0 0 0 0 0 0 0 0 
0 0 0 0 0 0 0 0 0 
0 0 0 0 0 0 0 0 0 
0 0 0 0 0 0 0 0 0 
0 0 0 0 0 0 0 0 0 
0 0 0 0 0 0 0 0 0 
0 0 0 0 0 0 0 0 0 
0 0 0 0 0 0 0 0 0 
0 0 0 0 0 0 0 0 0 
0 0 0 0 0 0 0 0 0 
0 0 0 0 0 0 0 0 0 
0 0 0 0 0 0 0 0 0 
0 0 0 0 0 0 0 0 0 
0 0 0 0 0 0 0 0 0 
0 0 0 0 0 0 0 0 0 
0 0 0 0 0 0 0 0 0 
0 0 0 0 0 0 0 0 0 
0 0 0 0 0 0 0 0 0 
0 0 0 0 0 0 0 0 0 
0 0 0 0 0 0 0 0 0 
0 0 0 0 0 0 0 0 0 
0 0 0 0 0 0 0 0 0 
0 0 0 0 0 0 0 0 0 
0 0 0 0 0 0 0 0 0 
0 0 0 0 0 0 0 0 0 
0 0 0 0 0 0 0 0 0 
0 0 0 0 0 0 0 0 0 
0 0 0 0 0 0 0 0 0 
0 0 0 0 0 0 0 0 0 
0 0 0 0 0 0 0 0 0 
0 0 0 0 0 0 0 0 0 
0 0 0 0 0 0 0 0 0 
0 0 0 0 0 0 0 0 0 
0 0 0 0 0 0 0 0 0 
0 0 0 0 0 0 0 0 0 
0 0 0 0 0 0 0 0 0 
0 0 0 0 0 0 0 0 0 
0 0 0 0 0 0 0 0 0 
0 0 0 0 0 0 0 0 0 
0 0 0 0 0 0 0 0 0 
0 0 0 0 0 0 0 0 0 
0 0 0 0 0 0 0 0 0 
0 0 0 0 0 0 0 0 0 
0 0 0 0 0 0 0 0 0 
0 0 0 0 0 0 0 0 0 
0 0 0 0 0 0 0 0 0 
0 0 0 0 0 0 0 0 0 
0 0 0 0 0 0 0 0 0 
0 0 0 0 0 0 0 0 0 
0 0 0 0 0 0 0 0 0 
0 0 0 0 0 0 0 0 0 
0 0 0 0 0 0 0 0 0 
0 0 0 0 0 0 0 0 0 
0 0 0 0 0 0 0 0 0 
0 0 0 0 0 0 0 0 0 
0 0 0 0 0 0 0 0 0 
0 0 0 0 0 0 0 0 0 
0 0 0 0 0 0 0 0 0 
0 0 0 0 0 0 0 0 0 
0 0 0 0 0 0 0 0 0 
0 0 0 0 0 0 0 0 0 
0 0 0 0 0 0 0 0 0 
0 0 0 0 0 0 0 0 0 
0 0 0 0 0 0 0 0 0 
0 0 0 0 0 0 0 0 0 
0 0 0 0 0 0 0 0 0 
0 0 0 0 0 0 0 0 0 
0 0 0 0 0 0 0 0 0 
0 0 0 0 0 0 0 0 0 
0 0 0 0 0 0 0 0 0 
0 0 0 0 0 0 0 0 0 
0 0 0 0 0 0 0 0 0 
0 0 0 0 0 0 0 0 0 
0 0 0 0 0 0 0 0 0 
0 0 0 0 0 0 0 0 0 
0 0 0 0 0 0 0 0 0 
0 0 0 0 0 0 0 0 0 
0 0 0 0 0 0 0 0 0 
0 0 0 0 0 0 0 0 0 
0 0 0 0 0 0 0 0 0 
0 0 0 0 0 0 0 0 0 
0 0 0 0 0 0 0 0 0 
0 0 0 
f 3 1000 double
0 0 0 0 0 0 0 0 0 
0 0 0 0 0 0 -0.011999298441 -0.039274593155 0.015136071567 
0 0 0 0 0 0 0 0 0 
0 0 0 0 0 0 0 0 0 
0 0 0 0 0 0 0 0 0 
0.011999298441 0.039274593155 -0.015136071567 0 0 0 0 0 0 
0 0 0 0 0 0 0 0 0 
0 0 0 0 0 0 0 0 0 
0.77660158183 0.18745419492 -0.31543698074 0 0 0 0 0 0 
0 0 0 0 0 0 0 0 0 
-0.15002618511 -0.097899054517 0.29332011316 0 0 0 0 0 0 
0 0 0 0 0 0 0 0 0 
0 0 0 0 0 0 0 0 0 
0 0 0 0 0 0 0 0 0 
0 0 0 0 0 0 -105.71048454 2339.444764 227.41624751 
0 0 0 0 0 0 0 0 0 
0 0 0 0 0 0 0 0 0 
0 0 0 0 0 0 0 0 0 
0 0 0 0 0 0 0 0 0 
0 0 0 0 0 0 0 0 0 
0 0 0 0 0 0 0 0 0 
0 0 0 0.090352701138 -0.13917689561 -0.12242032154 0 0 0 
0 0 0 0 0 0 0 0 0 
0 0 0 0 0 0 0 0 0 
0 0 0 0 0 0 0 0 0 
0 0 0 0 0 0 0 0 0 
0 0 0 0 0 0 -0.14397187219 -0.033980419487 0.023944885898 
0 0 0 0 0 0 0 0 0 
0 0 0 0 0 0 0 0 0 
0 0 0 0 0 0 0 0 0 
0 0 0 0 0 0 0 0 0 
0 0 0 0 0 0 0 0 0 
0 0 0 0 0 0 0 0 0 
0 0 0 0 0 0 0 0 0 
0 0 0 0 0 0 -0.034694199623 0.042089199069 -0.039737654365 
0 0 0 0 0 0 0 0 0 
0 0 0 0 0 0 0 0 0 
0 0 0 0 0 0 0 0 0 
0 0 0 -0.047121976686 -0.055290495819 0.017840263233 0 0 0 