# vtk DataFile Version 4.2
Generated by LIGGGHTS
ASCII
DATASET POLYDATA
POINTS 1000 float
0.171446 0.13398 0.563647 1.79588 2.31237 1.56006 1.27176 2.41114 0.349974 
1.20859 1.36443 1.81605 0.753784 1.76725 1.04242 0.21206 2.37292 0.423975 
3.80074 4.8618 0.233639 4.10512 3.02065 0.448965 0.275073 0.963043 1.16268 
2.01554 0.158073 1.09875 4.58621 4.73283 0.838637 1.34084 3.51395 0.478346 
4.7634 2.57842 0.474786 0.327763 0.238032 1.4753 2.44619 3.87226 1.40493 
0.140759 2.66793 1.59562 2.24087 4.46958 0.779305 2.79539 2.56645 1.70019 
2.1963 3.2942 0.736181 0.322115 2.11667 1.31498 2.81893 4.14406 0.555395 
1.3992 3.06046 1.35048 2.90881 3.70576 0.0216249 1.61872 0.116244 0.245072 
2.02545 1.55984 1.26486 1.79671 0.890375 0.733145 0.800952 1.30669 0.300365 
3.10305 3.41068 1.23178 0.56925 4.99169 0.18132 4.07726 4.50783 1.5514 
1.14587 4.06957 1.54725 0.594034 3.31508 0.985728 2.39877 0.161742 0.0423581 
4.57251 2.96464 1.24277 4.04089 0.848746 0.610325 4.26427 3.81043 0.771578 
3.68239 4.13584 0.72059 0.0989869 3.69539 0.0860458 4.53873 0.735194 1.95744 
1.71114 4.94001 0.670287 2.93209 0.774396 1.5688 2.88554 2.00292 0.236552 
3.47832 1.43874 0.873637 2.86513 2.88361 0.116044 0.183283 4.19307 0.861352 
2.90138 1.67209 1.67605 3.94599 3.37717 1.51799 2.8676 1.15141 0.0459738 
2.56622 2.5817 0.878106 2.81691 4.96202 1.57728 3.76037 0.890321 1.51561 
3.6706 2.53487 1.91788 3.73986 2.12444 0.336997 4.42692 1.77491 0.964024 
4.87198 3.89049 1.31235 0.289457 3.40277 2.03351 0.696571 0.804249 3.17264 
4.33943 3.4273 2.29236 0.416512 0.341927 3.99473 1.70624 2.57837 3.33684 
0.0118128 1.4523 3.31922 1.92884 4.1653 2.11662 2.18111 3.96184 3.63643 
2.4752 2.94152 2.50667 1.34493 3.18713 3.56794 0.697133 2.2667 3.40592 
1.15052 3.28817 2.28471 3.20873 3.02772 3.96513 0.154955 1.10702 2.39682 
2.12129 2.22883 3.8266 1.75564 3.31011 2.68051 0.78313 1.51929 3.67924 
2.26559 0.796055 2.19864 0.582208 2.45332 2.35896 1.67841 1.57918 3.00826 
2.62052 1.90254 3.45025 2.71109 2.06608 2.52805 1.57693 0.680749 3.61519 
2.28984 0.26431 2.95466 1.04391 1.97773 2.48647 2.70314 4.90934 3.99512 
0.518805 3.09211 3.37524 2.89976 0.6042 3.63016 0.922377 4.80741 3.73383 
3.61407 4.19708 2.43868 0.779171 4.94563 2.52746 3.04264 4.61543 3.11914 
1.18871 3.95403 2.94632 3.67141 0.41313 2.96246 3.77517 4.28413 3.51559 
4.49506 4.21568 2.85279 1.82981 4.80732 3.20452 4.5898 2.09658 2.38514 
3.88196 1.26322 2.36702 1.17649 4.03192 3.84494 4.53669 0.266112 3.10395 
0.348701 3.95436 3.29228 4.36855 0.682497 3.93971 4.18264 1.22666 3.34932 
3.11371 1.29624 3.02766 4.17223 3.0188 3.05025 4.09094 2.5067 3.77586 
2.83368 3.67998 2.05013 4.30709 3.73415 3.95796 4.36018 2.14121 3.24638 
4.99343 0.161004 2.40742 4.93698 3.0073 2.20277 1.58206 3.49989 4.45239 
4.21335 3.68007 4.81072 2.21243 0.612314 5.73137 0.325221 0.479971 4.99454 
1.04824 1.9313 4.64891 1.24364 1.23146 4.29372 4.43559 1.07982 5.46613 
1.80171 2.84185 5.18938 4.62394 4.63537 4.53959 1.77078 1.23873 5.02239 
1.69491 1.93706 5.51636 4.2567 3.21911 5.54093 2.97184 1.00195 5.06456 
1.18404 0.431583 5.90626 0.0603021 1.58782 4.26415 2.25028 3.77745 5.37046 
1.21847 1.2157 5.96811 4.48546 2.62654 5.94867 0.557324 2.60231 4.24591 
1.19162 0.372676 4.75641 1.82039 2.38091 4.49623 0.392632 1.05585 5.74708 
2.17776 0.272097 4.98289 0.0356853 4.92754 4.06616 4.58413 3.07978 4.61623 
1.31026 3.89247 5.44222 2.24888 4.79277 5.56301 0.142603 0.182032 5.94239 
4.36211 0.339525 4.89078 3.03979 1.7755 4.4072 3.92516 1.94273 4.73504 
2.8703 1.89015 5.35934 4.03589 4.15403 5.48006 3.70529 1.41098 4.37991 
0.500945 4.87676 5.78482 3.64915 2.0932 5.82072 3.63819 2.84453 4.77993 
1.62904 4.52245 4.58186 4.52487 0.2273 5.85063 3.29193 0.199845 5.0434 
2.78656 2.81972 5.39838 3.96296 0.876565 4.62758 3.96906 2.43586 5.14093 
3.87944 1.26065 5.87505 0.557222 3.9732 5.92755 4.91958 2.64587 4.00144 
4.77668 3.02076 7.17204 3.68039 2.12014 6.69838 2.6417 0.50699 6.90877 
2.01316 1.01147 7.30631 3.98856 0.40399 6.59253 1.85835 0.400168 6.56731 
2.99757 1.29716 7.33179 4.82918 0.972644 7.54533 1.61867 0.270478 7.86454 
1.4642 3.68916 6.61881 0.250249 1.47667 7.945 2.86911 1.91055 6.84542 
0.21128 1.02699 6.74808 2.36414 1.40966 6.06367 1.45139 1.44954 7.75075 
2.50149 2.29002 7.59145 4.60768 4.1301 7.94959 0.0930231 0.615536 7.61289 
2.4438 0.542986 7.91711 3.63824 3.32315 6.05524 2.46234 3.78109 7.35816 
2.00815 1.89905 6.58457 3.4749 4.68758 7.36109 0.407597 2.88001 6.39986 
1.27837 4.8078 7.76476 3.696 2.35161 7.58919 4.07093 1.71507 6.65312 
0.389945 2.65957 7.9174 0.405455 4.48715 7.23661 2.93475 4.38474 6.65352 
4.10228 3.29785 7.72603 1.2554 4.84291 6.47934 2.97553 3.13793 7.26921 
0.991559 4.04059 7.2591 3.62329 2.79942 6.6194 4.55159 1.50925 7.11781 
4.72406 3.92354 6.06909 4.41479 4.63236 6.31913 4.88872 2.2703 7.49893 
4.93546 4.75777 7.14698 2.81341 3.91738 8.40885 2.046 3.34185 9.07255 
0.451618 1.91963 8.70647 1.21567 2.43174 9.33337 3.50227 3.36676 8.63205 
1.83779 2.70041 8.31897 1.74281 0.796183 8.6906 0.315559 2.71407 8.92448 
4.53235 1.71911 9.9498 3.38197 1.26951 8.18516 0.927462 3.04075 9.69409 
1.32433 1.19497 9.44465 1.98552 4.10576 9.57447 0.567161 1.00935 8.71604 
1.85766 1.94823 8.27353 1.40025 0.160108 9.5477 4.43844 2.86272 8.10771 
0.456479 1.62375 9.58247 2.13319 1.20752 9.82165 0.900644 0.346477 8.90859 
2.277 1.53586 8.85148 0.936509 0.640573 8.00792 2.52153 2.84679 9.2874 
4.18591 1.26242 8.16655 0.811404 0.510365 9.92381 1.93323 2.0613 9.26315 
1.24368 3.04242 8.09876 3.54321 3.22679 9.69171 1.4752 3.70103 8.79366 
2.855 1.75007 8.17511 4.08187 2.4617 9.56872 3.0965 2.33739 9.39463 
3.2339 3.85424 9.22445 2.00314 4.60105 8.15226 3.63893 4.46185 8.54257 
0.984449 3.85546 8.08384 2.14982 4.85395 9.09404 0.668427 3.70726 9.11367 
3.01385 2.53026 8.38869 1.15745 4.22278 9.9714 2.86219 4.47919 9.40643 
0.402689 3.1896 9.98075 4.02298 4.13835 9.83993 3.95648 1.62287 9.03516 
0.396773 4.56547 9.34774 2.52707 3.13146 8.30089 0.245349 3.82216 8.2688 
2.71992 4.69196 8.52547 3.80346 2.55261 8.74452 3.07365 1.47204 9.12363 
4.11525 0.0536344 8.73073 4.8199 0.0122814 9.82036 4.80435 4.20293 8.94507 
4.08166 7.68753 1.27554 3.66111 8.2216 0.773627 3.61471 6.63388 0.194303 
4.22416 9.827 1.60079 3.41722 5.7327 0.997791 3.07357 8.77968 1.49317 
3.94833 8.96342 1.24401 0.576193 5.07893 1.46275 3.56553 7.44002 0.478196 
0.34493 8.60281 1.66312 3.87263 5.71643 0.370226 1.59346 6.39028 0.855676 
1.25527 7.19943 0.91523 3.31908 7.99178 1.86417 1.73994 8.11817 1.21586 
0.150797 7.84957 0.826142 1.10492 8.51941 1.40512 2.26895 9.90482 1.96674 
2.86987 5.80084 1.54214 3.14576 9.91139 1.75596 3.81831 6.60046 1.17018 
0.483629 9.36404 0.412614 0.669394 9.52762 1.64812 3.45537 9.04727 0.417344 
0.959985 8.70047 0.551665 0.132791 7.05882 1.24814 4.81968 6.00757 0.728186 
1.34669 8.1032 0.446986 1.49567 5.86321 0.20247 2.4641 8.32832 0.616225 
1.07918 7.44932 0.0588369 2.40738 9.31315 0.874948 1.174 5.14403 1.02009 
2.43784 7.29062 0.566529 4.41416 5.84666 1.54315 0.128232 5.87171 0.321144 
2.47232 6.90418 1.81521 2.02542 7.67017 1.89972 4.78321 7.08309 1.06843 
1.81063 6.9846 1.49547 2.41347 5.85364 0.623707 1.93417 5.83646 1.51391 
1.02223 6.05586 1.7458 3.08305 6.79598 1.22562 3.29242 9.86788 0.901576 
4.5573 6.60831 1.83815 4.636 8.41764 0.605024 4.66735 6.28549 0.0786642 
1.61291 8.89235 3.15813 0.739728 8.6372 3.9236 2.59073 6.0216 3.09953 
3.1051 5.50249 3.03208 0.0689854 8.96858 3.87321 3.39636 6.44257 2.04907 
4.72377 8.78041 3.46111 4.22528 6.4723 3.41301 4.18967 5.17993 3.40329 
3.36466 6.78257 3.45465 2.72922 6.77155 2.64581 2.74839 7.20926 3.62087 
3.48165 5.07268 2.32991 3.3707 8.12021 3.58448 3.85283 6.99925 2.67 
3.81086 9.10762 2.08943 2.63564 7.69674 2.50176 2.94746 8.7106 3.87894 
4.7018 9.54707 3.63866 0.0722288 9.70917 3.23874 3.42651 7.65698 2.84639 
1.74555 7.55163 2.87198 0.722703 9.76965 3.87058 4.28025 5.00564 2.45605 
4.12259 7.85811 2.22474 0.963902 9.49819 2.98355 0.222026 6.24128 2.39797 
3.40039 8.81727 2.98735 4.1279 8.52424 2.77911 1.60536 6.54712 3.4841 
4.82068 7.15949 3.8199 2.25879 6.04859 3.92688 2.3185 5.66853 2.3281 
0.017267 6.65316 3.28082 1.47179 5.61997 3.23237 2.17217 7.71999 3.70206 
3.80072 5.75601 3.20995 1.54596 6.73643 2.46249 1.45837 8.0041 2.14499 
2.4141 8.47263 3.04979 0.614933 5.74548 2.85194 2.43177 9.46043 3.37608 
3.8381 5.83047 2.16984 1.13662 8.50637 2.37266 0.448498 7.14204 2.29629 
0.620761 5.71406 3.5728 1.05862 6.93575 3.96311 3.05804 9.44185 2.55098 
0.363908 7.24318 3.98236 4.70016 9.22941 2.27516 3.4332 5.23908 5.92517 
0.545168 8.04555 4.69651 1.86882 9.52594 5.4843 4.53351 6.70713 5.61061 
0.0157289 7.81726 5.57179 0.385916 8.87135 5.9658 2.70106 6.45151 4.66714 
3.99459 7.20009 4.08738 0.731638 9.47701 5.01143 1.30229 8.71928 5.76719 
3.00784 6.98719 5.94477 4.37742 7.88963 4.68724 4.58731 5.13865 5.49684 
2.42775 7.62814 5.7729 0.147933 9.56922 4.59663 3.29626 7.62206 4.43602 
3.17325 6.22762 5.48493 1.36702 5.40049 4.77324 4.25305 8.98933 5.51975 
3.1299 9.5947 4.14192 0.698013 9.71232 5.65933 3.43645 8.86873 4.64825 
3.79034 5.70966 4.17855 0.368262 6.13948 5.17975 4.01495 8.41782 4.92068 
0.44776 8.72611 5.02034 3.69839 9.53142 5.2561 3.7007 7.50924 5.32972 
3.95912 6.31793 4.82477 1.46029 9.71929 4.04836 1.1325 7.64618 4.52248 
0.250186 6.97817 5.15587 -0.0271263 6.3469 4.32863 1.73489 6.84522 5.49689 
1.06934 6.84515 4.87937 1.18704 7.7372 5.54368 1.93143 7.72148 5.00114 
1.98442 6.04233 5.25654 4.06981 8.82019 4.05858 2.51244 5.757 5.96365 
1.49669 8.52283 4.84587 4.30985 7.32373 5.99437 4.4401 8.21327 5.72541 
2.48016 9.24925 4.92087 0.439362 5.34591 5.04877 2.27448 9.86692 4.24254 
0.797168 6.00289 4.31891 1.97722 6.8929 4.5883 4.47297 7.11654 4.93319 
4.35972 5.40588 4.80514 4.83013 8.90032 4.46349 4.8878 9.75276 4.63115 
3.87485 6.93689 7.97561 2.90138 9.19702 7.44826 3.85353 8.92021 7.77433 
0.175497 8.83799 6.93375 1.64887 8.34858 7.40144 1.40341 9.26124 7.95613 
[...]
POINT_DATA 1000
FIELD FieldData 7
id 1 1000 int
701 509 660 395 726 689 911 354 556 
960 891 268 582 194 472 547 735 843 
687 465 214 307 577 643 108 339 711 
797 403 893 971 912 859 361 19 461 
347 511 683 198 483 147 22 665 21 
909 631 561 25 274 913 833 787 443 
568 254 771 980 923 428 783 386 526 
91 598 919 406 970 267 588 778 542 
128 503 823 693 182 158 786 207 642 
418 712 126 741 90 810 986 952 641 
186 196 293 828 38 414 562 995 232 
654 58 845 640 149 956 954 62 896 
994 390 658 548 763 459 76 206 450 
50 821 747 270 185 454 737 42 780 
248 551 278 777 993 327 951 445 225 
565 24 674 282 871 178 482 908 510 
492 168 714 608 210 504 159 675 65 
910 610 112 721 400 224 8 662 491 
879 346 264 441 61 43 348 422 655 
1 575 479 464 590 667 525 929 827 
374 607 369 978 676 650 249 204 200 
380 764 987 796 298 644 738 350 460 
485 717 550 861 495 733 809 865 257 
671 692 645 863 115 722 132 573 544 
47 431 277 148 858 579 280 899 537 
391 382 98 305 924 554 136 383 165 
130 266 981 977 992 276 67 241 290 
599 670 586 801 916 839 310 12 109 
323 478 44 286 774 341 696 739 335 
170 574 316 680 439 882 569 874 984 
141 807 468 405 404 493 135 324 438 
20 437 285 723 379 632 83 768 657 
814 703 664 317 636 151 500 625 340 
902 81 218 659 707 153 87 731 174 
888 176 679 197 434 709 918 181 855 
838 754 502 451 647 442 387 982 934 
75 516 633 576 85 857 3 259 725 
358 342 14 975 202 455 255 811 490 
444 118 5 669 260 691 66 166 907 
617 203 367 289 653 522 903 817 409 
535 949 605 421 246 45 591 914 512 
864 824 117 64 63 765 583 11 122 
330 523 145 250 543 730 476 732 818 
120 889 233 231 398 72 458 227 507 
546 105 30 32 781 775 872 622 99 
389 578 922 973 195 415 666 790 193 
967 749 28 245 359 585 494 757 866 
564 15 94 223 175 584 813 265 840 
668 953 192 555 55 474 377 965 506 
392 505 345 239 235 321 27 651 411 
275 37 183 107 886 171 292 162 677 
852 920 370 498 73 146 420 381 928 
734 789 18 567 517 846 349 539 397 
100 513 57 355 242 758 878 291 77 
103 979 252 303 706 137 462 635 315 
4 326 302 217 150 247 360 695 868 
521 425 842 557 637 189 524 2 410 
80 284 699 724 288 96 648 16 904 
440 742 216 393 423 78 623 549 138 
329 630 1000 23 163 56 287 958 309 
9 947 761 13 263 140 939 533 104 
895 744 806 318 697 957 848 228 808 
142 243 894 593 850 619 190 480 333 
803 921 930 39 629 652 251 139 927 
700 10 999 520 831 213 603 161 816 
530 702 101 312 612 79 35 566 844 
6 974 596 399 798 357 989 785 356 
86 905 860 609 133 782 624 673 364 
484 835 378 614 592 481 746 352 131 
470 366 917 743 446 337 486 487 552 
931 938 205 826 620 961 435 199 477 
792 983 875 740 540 272 769 40 613 
766 926 125 897 31 815 7 82 751 
157 84 770 33 413 606 580 661 311 
812 95 336 988 685 621 155 611 154 
759 572 767 748 180 616 800 102 184 
830 222 804 532 314 862 892 208 595 
253 656 17 173 426 373 853 93 932 
969 940 211 237 338 672 430 880 106 
601 402 319 300 877 97 283 496 372 
849 541 188 756 427 497 772 628 219 
353 587 408 736 53 563 795 536 646 
950 955 945 144 281 694 937 433 959 
167 201 881 209 887 906 773 110 368 
713 191 529 822 962 728 261 684 997 
847 114 825 376 46 313 841 686 325 
226 394 634 160 424 794 832 942 514 
429 946 269 41 870 966 143 212 453 
538 515 581 152 760 851 528 571 597 
925 727 51 471 273 396 745 401 941 
626 604 779 449 215 385 708 164 299 
262 890 59 820 68 221 29 344 279 
88 238 230 681 883 234 560 129 936 
545 873 447 944 594 948 416 187 704 
518 436 799 177 466 26 963 295 553 
407 49 784 452 351 788 306 715 915 
488 119 996 519 258 901 240 92 998 
297 802 663 729 791 964 639 294 469 
900 169 558 456 836 70 570 328 121 
985 375 334 71 602 990 776 179 600 
473 698 48 417 499 172 457 649 74 
755 362 236 332 968 638 935 363 834 
690 867 467 308 229 705 531 752 589 
271 256 898 371 448 501 127 972 331 
475 124 615 123 69 34 688 113 527 
156 720 819 716 793 829 220 719 304 
365 869 885 322 678 627 854 933 534 
412 856 432 89 36 134 301 508 837 
876 618 762 559 710 296 753 750 52 
419 805 943 463 343 489 244 976 54 
682 60 718 111 320 884 384 388 116 
991 
type 1 1000 int
2 2 2 1 2 2 2 1 2 
2 2 1 2 1 1 2 2 2 
2 1 1 1 2 2 1 1 2 
2 1 2 2 2 2 1 1 1 
1 2 2 1 1 1 1 2 1 
2 2 2 1 1 2 2 2 1 
2 1 2 2 2 1 2 1 2 
1 2 2 1 2 1 2 2 2 
1 2 2 2 1 1 2 1 2 
1 2 1 2 1 2 2 2 2 
1 1 1 2 1 1 2 2 1 
2 1 2 2 1 2 2 1 2 
2 1 2 2 2 1 1 1 1 
1 2 2 1 1 1 2 1 2 
1 2 1 2 2 1 2 1 1 
2 1 2 1 2 1 1 2 2 
1 1 2 2 1 2 1 2 1 
2 2 1 2 1 1 1 2 1 
2 1 1 1 1 1 1 1 2 
1 2 1 1 2 2 2 2 2 
1 2 1 2 2 2 1 1 1 
1 2 2 2 1 2 2 1 1 
1 2 2 2 1 2 2 2 1 
2 2 2 2 1 2 1 2 2 
1 1 1 1 2 2 1 2 2 
1 1 1 1 2 2 1 1 1 
1 1 2 2 2 1 1 1 1 
2 2 2 2 2 2 1 1 1 
1 1 1 1 2 1 2 2 1 
1 2 1 2 1 2 2 2 2 
1 2 1 1 1 1 1 1 1 
1 1 1 2 1 2 1 2 2 
2 2 2 1 2 1 1 2 1 
2 1 1 2 2 1 1 2 1 
2 1 2 1 1 2 2 1 2 
2 2 2 1 2 1 1 2 2 
1 2 2 2 1 2 1 1 2 
1 1 1 2 1 1 1 2 1 
1 1 1 2 1 2 1 1 2 
2 1 1 1 2 2 2 2 1 
2 2 2 1 1 1 2 2 2 
2 2 1 1 1 2 2 1 1 
1 2 1 1 2 2 1 2 2 
1 2 1 1 1 1 1 1 2 
2 1 1 1 2 2 2 2 1 
1 2 2 2 1 1 2 2 1 
2 2 1 1 1 2 1 2 2 
2 1 1 1 1 2 2 1 2 
2 2 1 2 1 1 1 2 2 
1 2 1 1 1 1 1 2 1 
1 1 1 1 2 1 1 1 2 
2 2 1 1 1 1 1 1 2 
2 2 1 2 2 2 1 2 1 
1 2 1 1 1 2 2 1 1 
1 2 1 1 2 1 1 2 1 
1 1 1 1 1 1 1 2 2 
2 1 2 2 2 1 2 1 1 
1 1 2 2 1 1 2 1 2 
1 2 1 1 1 1 2 2 1 
1 2 2 1 1 1 1 2 1 
1 2 2 1 1 1 2 2 1 
2 2 2 1 2 2 2 1 2 
1 1 2 2 2 2 1 1 1 
2 2 2 1 2 2 1 1 2 
2 1 2 2 2 1 2 1 2 
2 2 1 1 2 1 1 2 2 
1 2 2 1 2 1 2 2 1 
1 2 2 2 1 2 2 2 1 
1 2 1 2 2 1 2 1 1 
1 1 2 2 1 1 1 1 2 
2 2 1 2 2 2 1 1 1 
2 2 2 2 2 1 2 1 2 
2 2 1 2 1 2 1 1 2 
1 1 2 1 1 2 2 2 1 
2 1 1 2 2 2 1 2 1 
2 2 2 2 1 2 2 1 1 
2 1 2 2 1 2 2 1 2 
1 2 1 1 1 1 2 1 2 
2 2 1 1 1 2 1 2 1 
2 1 1 1 2 1 1 1 1 
2 2 1 2 1 1 2 2 1 
1 2 1 2 1 2 2 2 2 
2 2 2 1 1 2 2 1 2 
1 1 2 1 2 2 2 1 1 
2 1 2 2 2 2 1 2 2 
2 1 2 1 1 1 2 2 1 
1 1 2 1 1 2 2 2 2 
1 2 1 1 2 2 1 1 1 
2 2 2 1 2 2 2 2 2 
2 2 1 1 1 1 2 1 2 
2 2 2 1 1 1 2 1 1 
1 2 1 2 1 1 1 1 1 
1 1 1 2 2 1 2 1 2 
2 2 1 2 2 2 1 1 2 
2 1 2 1 1 1 2 1 2 
1 1 2 1 1 2 1 2 2 
1 1 2 2 1 2 1 1 2 
1 2 2 2 2 2 2 1 1 
2 1 2 1 2 1 2 1 1 
2 1 1 1 2 2 2 1 2 
1 2 1 1 1 1 1 2 1 
2 1 1 1 2 2 2 1 2 
2 2 1 1 1 2 2 2 2 
1 1 2 1 1 2 1 2 1 
1 1 2 1 1 1 2 1 2 
1 2 2 2 2 2 1 2 1 
1 2 2 1 2 2 2 2 2 
1 2 1 1 1 1 1 2 2 
2 2 2 2 2 1 2 2 1 
1 2 2 1 1 1 1 2 1 
2 1 2 1 1 2 1 1 1 
2 
i 3 1000 int
144 1 0 -139 0 0 -37 0 1 
174 1 0 197 1 0 -168 0 1 
-328 -1 -1 -82 0 1 179 1 -1 
237 1 1 8 0 0 33 0 0 
-26 0 0 -319 0 0 11 0 1 
47 0 0 48 0 0 -45 0 1 
227 1 1 -43 0 1 -31 0 0 
289 1 -1 257 1 0 56 1 2 
-206 0 1 -94 0 1 192 1 0 
249 1 0 -9 0 0 16 0 0 
45 0 1 -2 0 0 -268 0 2 
-76 0 0 -169 0 0 369 1 0 
-30 0 -1 -26 0 0 120 1 0 
-13 0 1 225 1 0 -147 0 0 
214 1 0 201 1 1 -109 0 1 
-135 0 1 34 0 0 111 1 0 
-168 0 0 -293 -1 -1 -53 0 0 
-43 0 0 -92 0 1 182 1 0 
-94 0 0 -27 0 0 -197 0 0 
235 1 2 202 1 0 -108 0 1 
-111 0 1 113 0 0 -155 0 1 
-30 0 0 -103 0 1 -249 -1 0 
-74 0 1 210 0 -1 -198 0 0 
120 1 1 -172 0 1 -246 0 1 
108 1 1 72 1 0 278 1 -1 
101 1 -1 27 0 -1 -131 0 1 
-190 0 1 246 1 1 -330 -1 0 
-165 0 1 158 1 0 277 1 -1 
-123 0 0 47 0 0 31 0 1 
57 0 1 -32 0 0 -29 0 0 
256 1 0 319 1 0 -164 0 1 
-84 0 1 -77 0 1 194 1 0 
118 0 1 -159 0 1 -115 0 1 
-101 0 1 37 0 -1 -44 0 0 
-144 0 0 -17 0 0 -124 0 1 
245 1 0 -59 0 0 -25 0 -1 
82 0 0 180 1 -1 -94 0 0 
-167 0 1 147 1 1 -10 0 0 
107 0 1 -48 0 1 210 1 0 
33 0 0 264 1 0 -227 0 0 
-136 0 1 -27 0 0 290 1 0 
-97 0 0 -108 0 0 -189 0 0 
-293 0 0 76 1 0 268 1 -1 
-222 0 -1 34 0 1 -72 0 0 
-55 0 0 -51 0 0 -159 0 0 
-149 0 0 246 1 -1 -76 0 0 
297 1 0 -10 0 0 117 1 0 
143 1 0 -96 0 1 -74 0 -1 
-159 0 0 124 1 0 -506 2 0 
-60 0 0 213 1 0 65 0 0 
302 1 -1 -92 0 -1 -94 0 0 
-67 0 1 43 0 -1 46 1 0 
270 1 0 -157 0 0 -197 0 0 
126 1 1 -152 0 1 135 1 -1 
169 0 1 300 1 0 -27 0 -1 
19 0 0 -163 0 0 -169 0 0 
-41 0 0 -354 -1 -2 -280 0 0 
-242 0 -1 227 1 -1 82 0 0 
8 0 0 -36 0 -1 -63 0 0 
-324 -1 -1 -34 0 1 -69 0 0 
-35 0 0 72 0 0 -26 0 0 
18 0 -1 129 0 -1 -57 0 0 
-98 0 1 -147 0 1 -157 0 0 
-43 0 1 -47 0 0 257 1 0 
26 0 -1 -165 0 -1 401 1 0 
268 1 0 261 1 -1 -34 0 0 
-132 0 1 -133 0 0 45 0 0 
-86 0 0 -107 0 1 89 0 -1 
241 1 -1 -130 0 -1 -77 0 0 
-38 0 0 208 1 -1 184 1 -1 
-84 0 0 203 1 -1 -156 0 -1 
25 0 0 -151 0 0 -30 0 0 
-171 0 -1 -160 0 -1 -164 0 0 
-48 0 0 -8 0 -1 -66 0 -1 
-171 0 0 -174 0 -1 188 1 0 
-18 0 -1 -314 -1 -2 -67 0 -1 
63 0 -1 -54 0 0 -303 -1 -1 
-14 0 -1 -96 0 0 11 0 -1 
-81 0 -1 -334 -1 -1 155 1 -1 
201 1 -1 -148 0 0 -306 -1 0 
338 1 1 380 1 1 241 1 0 
127 1 -1 -143 0 0 336 1 0 
-323 -1 -1 -171 -1 0 -7 0 1 
134 0 1 -96 0 0 102 0 1 
-321 -1 0 -33 0 1 111 0 0 
110 0 1 -264 -1 1 21 0 0 
56 0 0 48 0 0 -161 -1 1 
172 0 0 47 0 1 -173 -1 0 
-224 -1 0 -108 -1 0 1 0 1 
268 0 0 151 0 0 248 0 1 
-148 -1 1 -160 -1 1 5 0 1 
22 0 0 27 0 1 242 0 0 
23 0 0 156 0 0 13 0 0 
-258 -1 0 -81 0 0 53 0 -1 
121 0 0 -240 -1 0 45 0 0 
185 0 0 -139 0 -1 124 0 0 
-290 -1 2 -218 -1 0 149 0 0 
-1 0 1 -219 -1 1 6 0 0 
88 0 0 -24 0 0 20 0 0 
356 1 1 95 0 1 10 0 0 
-178 -1 0 -420 -1 0 15 0 0 
25 0 0 390 1 0 109 0 -1 
472 1 1 92 0 1 9 0 0 
164 0 0 -169 -1 0 181 0 0 
-149 -1 0 172 0 0 -301 -1 0 
20 0 1 -155 -1 0 -156 0 1 
58 0 1 -129 -1 0 35 0 0 
-264 -1 0 105 0 -1 84 0 -1 
329 1 1 -111 0 1 -232 -1 1 
132 0 0 102 0 1 -74 -1 0 
56 0 0 -208 -1 -1 -10 0 -1 
-106 -1 0 -3 0 1 64 0 1 
291 1 1 139 0 0 49 0 0 
-227 -1 1 86 0 0 -261 -1 0 
107 0 1 202 0 1 21 0 -1 
-352 -1 0 -172 -1 0 288 1 0 
-146 -1 0 104 0 -1 -190 -1 0 
117 0 1 -210 -1 0 174 0 -1 
-316 -1 -1 386 1 0 -1 0 1 
-19 0 -1 87 0 0 450 1 1 
145 0 0 97 0 1 54 0 0 
241 0 -1 240 0 0 142 0 1 
-374 -1 1 59 0 0 96 0 -1 
-13 0 1 43 0 0 -226 -1 0 
45 0 -1 136 0 0 336 1 0 
-196 -1 1 -22 0 0 147 0 0 
85 0 -1 -187 -1 1 179 0 0 
-48 0 1 -217 -1 1 -262 -1 -1 
-184 -1 1 -356 -1 1 171 0 0 
-202 -1 0 1 0 0 -160 -1 0 
-41 0 1 137 0 -1 202 0 0 
45 0 0 -193 -1 1 -232 -1 0 
49 0 0 192 0 0 54 0 0 
231 0 -1 207 0 0 -210 -1 -1 
12 0 0 67 0 0 -249 -1 -1 
-123 -1 -1 141 0 -1 21 0 0 
6 0 0 -303 -1 1 -8 0 -1 
-22 -1 0 -270 -1 0 237 0 -1 
203 0 -1 -271 -1 0 97 0 -1 
-24 0 0 13 0 0 -190 -1 0 
59 0 -1 99 0 0 55 0 -1 
41 0 0 -196 -1 2 2 0 0 
37 0 -1 55 0 -1 -157 -1 0 
254 0 0 -48 0 0 -6 0 0 
43 0 0 101 0 -1 49 0 0 
-32 0 -1 184 0 0 80 0 0 
-354 -1 1 100 0 -1 -136 -1 0 
-7 0 -1 -247 -1 0 243 0 0 
-329 -1 0 54 0 -1 -22 0 -1 
-203 -1 0 33 0 -1 6 0 -1 
-212 -1 -1 -364 -1 -1 158 0 -2 
-312 -1 1 408 1 -1 -14 0 -1 
-412 -1 -1 248 1 -1 49 0 0 
-277 -1 0 -248 -1 0 -4 0 -1 
237 0 0 -53 -1 -1 -1 0 0 
-67 -1 0 72 0 0 42 0 -1 
-50 0 0 -72 0 -1 -42 0 0 
61 0 0 20 0 0 -36 0 0 
82 0 0 -103 0 0 114 0 -1 
3 0 -1 -75 0 -1 175 0 0 
177 0 0 -386 -1 0 21 0 -1 
157 0 0 -175 -1 0 184 0 0 
46 0 0 115 0 0 253 1 0 
186 0 0 71 0 0 -247 -1 -1 
159 0 -1 -388 -1 0 67 0 0 
-217 -1 -1 26 0 0 142 0 -1 
-106 0 0 145 1 0 -199 0 0 
-309 -1 1 142 1 0 -123 0 2 
-126 0 1 -198 0 1 -155 0 1 
230 1 0 -162 0 2 257 1 0 
-112 0 2 -81 0 1 -81 0 0 
-69 0 1 -124 0 0 20 0 -1 
-259 0 0 -65 0 -1 -138 0 0 
272 1 1 -158 0 1 228 1 0 
-46 0 0 1 0 -1 -133 0 1 
186 1 0 -325 -1 1 -42 0 1 
-59 0 1 -165 0 0 -63 0 1 
-157 0 1 140 1 1 -131 0 0 
-152 0 1 245 1 1 -70 0 0 
250 1 1 246 1 2 138 1 0 
360 1 0 -32 0 1 -184 0 1 
24 0 0 -130 0 1 169 1 1 
-62 0 0 357 1 0 -11 0 0 
-121 0 0 241 1 0 -117 0 0 
-107 0 1 -55 0 -1 20 0 0 
-247 0 1 -135 0 1 58 0 0 
-116 0 -1 -61 0 0 5 0 0 
-8 0 1 83 0 1 -109 0 1 
-58 0 1 -144 0 2 -62 0 0 
299 1 0 -85 0 1 -73 0 0 
-119 0 0 -196 0 -1 -64 0 1 
-95 0 0 -68 0 0 2 0 0 
186 1 1 -196 0 1 -49 0 0 
65 0 1 72 0 0 350 1 1 
259 1 0 -13 0 1 -26 0 0 
-91 0 2 272 1 0 -116 0 0 
-3 0 1 -67 0 1 -140 0 1 
-149 0 1 332 1 1 231 1 0 
23 0 -1 452 1 0 -131 0 0 
-138 0 -1 -193 0 0 -287 0 1 
37 0 0 354 1 1 14 0 0 
-45 0 1 -85 0 0 -36 0 1 
-56 0 0 191 1 1 55 0 -1 
5 0 -1 205 1 -1 -76 0 0 
20 0 0 -65 0 1 -207 0 0 
197 1 0 -46 0 0 54 0 -1 
-73 0 -1 -106 0 0 148 1 0 
161 1 -1 -3 0 1 36 0 0 
-75 0 0 -55 0 0 207 1 0 
292 1 1 -144 0 -1 69 0 -1 
19 0 0 -7 0 -1 -49 1 -1 
351 1 0 -51 0 0 -38 0 0 
59 0 -1 -239 0 -1 125 0 0 
314 1 0 -31 0 -1 -71 0 1 
-107 0 0 -356 -1 0 -233 0 -1 
-73 0 1 -52 0 0 -71 0 0 
-74 0 0 234 1 0 -377 -1 0 
114 1 0 222 1 0 200 1 -1 
-99 0 0 21 0 -1 224 1 1 
-88 0 0 96 0 0 -73 0 0 
311 1 0 -71 0 0 -162 0 -2 
267 1 -1 -102 0 -1 -40 0 0 
-1 0 1 -50 0 0 85 0 0 
3 0 0 33 0 1 -4 0 0 
24 0 0 -56 0 0 -24 0 0 
-98 0 -1 -115 0 0 -113 0 0 
292 1 -1 -24 0 0 -64 0 0 
416 1 0 -43 0 -1 52 0 0 
394 1 -1 335 1 0 -196 0 -1 
51 0 0 -121 0 0 -54 0 0 
54 0 -1 -63 0 1 167 1 0 
-235 0 0 -131 0 1 -152 0 -1 
242 1 0 183 1 -2 -185 0 -1 
226 1 -1 206 1 -1 -107 0 0 
167 1 0 -42 0 -2 226 1 0 
-158 0 0 178 1 0 -26 0 -1 
-43 0 0 -9 0 0 -83 0 -1 
162 1 0 -244 0 0 66 1 -1 
166 1 -1 268 1 0 75 1 -1 
-186 0 0 89 0 -1 -180 0 0 
43 0 0 269 1 -1 24 0 0 
-147 0 1 -33 0 -1 179 0 0 
-58 0 1 42 0 1 20 0 -1 
192 1 0 -11 0 0 -50 0 -1 
-295 0 1 78 0 0 42 0 0 
-104 0 -1 -229 0 0 -74 0 0 
35 0 -2 0 0 1 130 1 -1 
29 0 -1 -15 0 -1 -255 0 0 
-140 0 0 296 1 -1 223 1 0 
234 1 -1 -92 0 0 -19 0 -1 
-343 -1 -1 206 0 0 132 0 1 
-153 -1 0 -148 -1 1 82 0 0 
-246 -1 1 196 0 0 -21 0 1 
-171 -1 1 -204 -1 0 40 0 1 
9 0 0 98 0 1 75 0 1 
41 0 0 -312 -1 -1 155 0 -1 
-234 -1 0 103 0 1 -232 -1 -1 
105 0 0 92 0 -1 171 0 -1 
-247 -1 1 265 1 -1 113 0 -1 
104 0 0 3 0 1 -33 -1 0 
28 0 0 85 0 0 -142 -1 0 
23 0 1 112 0 0 -206 -1 0 
-174 0 0 -4 0 1 -108 -1 1 
126 0 0 212 0 0 80 0 0 
241 0 1 -293 -1 -1 -35 0 1 
83 0 1 -59 0 1 -163 0 0 
112 0 0 65 0 1 -167 -1 1 
172 0 0 10 0 1 -42 -1 1 
110 0 1 -238 -1 2 10 0 1 
-103 -1 1 77 0 0 -74 -1 0 
-92 -1 -1 141 0 1 13 0 0 
44 0 0 94 0 0 -315 -1 0 
-189 -1 1 107 0 -1 27 0 0 
-235 -1 0 -88 -1 -1 110 0 -1 
-194 -1 0 150 0 0 100 0 1 
145 0 0 89 0 0 -501 1 0 
60 0 0 -293 -1 0 124 0 0 
41 0 1 22 0 0 -50 0 0 
71 0 0 -289 -1 0 57 0 0 
142 0 -1 -250 -1 0 54 0 1 
-87 0 1 -205 -1 1 269 0 0 
-128 -1 0 -39 0 1 139 0 -1 
-284 -1 0 71 0 0 167 0 0 
52 0 1 151 0 0 185 0 0 
129 0 0 185 0 -1 -350 -1 1 
64 0 0 38 0 0 -43 0 1 
25 0 0 1 0 1 136 0 0 
83 0 -1 198 0 0 74 0 0 
-116 0 1 19 0 0 -143 -1 0 
-224 -1 -1 -160 -1 1 -183 -1 0 
-257 -1 1 105 0 0 -88 0 0 
135 0 -1 100 0 1 123 0 0 
223 0 1 47 0 -1 73 0 -1 
141 0 0 105 0 0 174 0 0 
-238 -1 0 275 0 0 89 0 0 
-132 -1 0 141 0 -1 112 0 0 
-334 -1 1 45 0 -1 294 0 -1 
120 0 0 272 1 -1 113 0 0 
128 0 0 159 0 0 22 0 0 
-208 -1 0 126 0 0 -25 0 1 
76 0 0 115 0 -1 92 0 -1 
148 0 0 105 0 0 -218 -1 0 
70 0 -1 77 0 0 -52 -1 0 
-36 0 -1 90 0 0 -247 -1 0 
-138 0 0 272 0 0 115 0 -1 
-84 0 0 107 0 -1 72 0 0 
179 0 -1 70 0 0 414 1 0 
-128 -1 1 -195 -1 0 -199 -1 0 
-60 0 0 44 0 -2 124 0 0 
-26 0 0 41 0 0 -28 0 0 
-22 0 0 55 0 0 267 1 0 
-221 -1 0 24 0 -1 -13 0 -1 
87 0 0 158 0 0 184 0 -1 
-4 0 -1 -184 -1 0 184 0 0 
-97 -1 1 42 0 -1 2 0 -1 
99 0 0 49 0 -1 -59 0 0 
-18 0 -1 179 0 -1 -121 -1 0 
380 1 0 190 0 0 -249 -1 0 
-284 -1 -1 32 0 0 73 0 -1 
182 0 -1 67 0 -1 8 0 -1 
55 0 -1 -8 0 0 57 0 0 
-307 -1 0 -238 -1 0 73 0 0 
-202 -1 0 -289 -1 -1 -192 -1 -1 
79 0 -1 -370 -1 0 -297 -1 -1 
-135 -1 0 -155 -1 1 -175 -1 0 
-210 -1 0 100 0 -1 88 0 -2 
72 0 0 -193 -1 0 206 0 0 
144 0 -1 -175 -1 -1 -217 -1 0 
198 0 0 -146 -1 0 118 0 -2 
-422 -1 -1 67 0 -1 95 0 0 
54 0 -1 55 0 0 -251 -1 0 
170 0 -1 42 0 0 109 0 0 
-5 0 -1 -240 -1 0 77 0 0 
79 0 -1 
v 3 1000 double
-522.54089793 17.781358328 -5.7873739604 -253.77473011 0.40169616681 16.282237156 -286.78108026 3.3949550753 5.5473832696 
-338.84761575 -17.072499772 3.4471733047 -328.13625925 -0.90303590348 7.3522337237 -258.7311295 -22.80977205 -13.581150464 
0.98771000861 -1.7690245565 -15.87175392 -218.98828755 -14.77441006 -6.1208370971 -454.78842068 18.800916447 5.4493686112 
-508.75330579 -8.8061501061 20.098160408 -87.731656035 28.521876827 1.2919578622 -177.61818962 8.8395771729 -7.1336001297 
-274.54849869 -0.54377738739 -18.651180757 -529.94022717 16.623140895 23.536666095 -108.47918028 1.8147043936 0.21036280171 
-254.97504001 23.017501199 3.3676911649 -55.336321205 -0.38447589242 -0.015938432449 -264.15872922 11.245637975 -3.801999394 
-190.83114585 9.6502133327 -6.7142848794 -294.7415334 -7.0262480335 4.2350497908 -78.299677994 3.2981154891 11.150372777 
-228.24699752 18.044660771 -6.0354175396 -149.68097727 3.2074424143 -1.7860770276 -526.51127745 -11.569288136 32.192031465 
-340.34111592 -2.9288498976 -6.2296740502 -450.3570597 17.536900279 8.0273412296 -392.04479654 3.2672675487 9.2837100323 
-154.64875989 -7.3613166374 -42.545729948 5.3988169433 -9.9477410517 33.193198042 -35.37629105 -8.0529799127 1.2790088819 
-34.237409507 -10.147995665 26.357539985 -187.02340869 2.7989122447 8.2963792323 -522.94455349 6.8157575508 -12.509182731 
-231.96095977 2.0547743055 18.253035479 -421.98792815 -5.0579145922 -28.866731926 -119.99046684 -4.0127587424 -16.710496 
-102.64511816 -6.0772969718 8.3110551884 -131.82613831 4.364486459 4.162249448 -412.08886227 1.1515726716 -3.7495782465 
-19.06789157 6.8910170387 -1.2790959171 -425.91724173 -17.549490515 -5.9879411538 -301.32340453 -23.029678678 8.8755827426 
-373.03857904 7.2797055583 -5.5477923808 -214.97365079 -15.640938615 18.83865043 -37.500834148 -22.806807907 42.471256961 
-347.16164711 -0.35370982191 3.0737464729 -196.1938233 5.6511949626 -2.0942025041 -413.12138985 -1.4221338628 7.4905931647 
-244.70694162 -26.425937986 6.9701315118 24.540181364 -31.031468644 4.5260196047 -399.04812318 -5.8833092869 7.8554052352 
-261.89107766 0.3682997264 8.5782516172 -284.53286385 8.9133293958 -10.010012763 -355.01350106 15.07802994 9.2820601146 
-161.37907252 8.1897765833 -11.990451167 -178.64974306 17.462152299 24.889784643 -423.43367663 -2.3172511001 -19.725620191 
-138.87538993 8.4440403568 -7.2070021175 -462.10517282 22.727436242 -8.1651859655 -265.80733647 -0.82251087795 -25.424839114 
-349.86522887 1.931181483 13.185151235 -65.349007676 -1.9951886165 25.739462083 -106.19376608 10.561202074 27.430249276 
-209.81612284 8.7161897383 12.020538103 -205.03265007 24.865856377 18.622281744 -274.21337185 8.7915072597 -14.929228561 
-189.2947904 -4.5457978031 -19.718731848 -153.64154102 -7.686014223 -17.488138632 -359.58349288 -6.1376564345 3.4210045819 
-302.92099201 7.997110681 -1.1374285271 -187.76792582 20.530817874 16.046934033 -345.38169686 8.7561478012 1.6111980797 
-433.80194171 9.6739689105 11.1549709 -270.75834038 16.46081257 3.1393481747 -367.69349336 3.4973014961 -14.397217342 
-329.01300759 10.536948458 -33.808992321 -307.71626864 -5.0096519399 4.1740885614 -422.71571241 -3.2524461245 -32.670034447 
-451.31055265 -5.9980827228 12.884273257 -289.85131395 -13.2481085 16.583957344 -10.700126722 -2.0792526414 16.634698365 
-198.7562349 4.2999177485 -6.9646191829 -451.13253401 5.3156382871 11.666432227 -9.1762882092 9.3373629296 20.108651344 
-14.375101888 -32.312554052 13.396939464 37.646867308 -24.712417712 -10.567098061 -26.886185365 -9.5315197994 2.2933813659 
-122.72698827 20.628157701 10.085293328 -459.80246678 -0.93691589797 5.4441231349 -57.452255811 -7.3944364734 12.976866864 
-69.613086823 -6.7307432853 20.275200107 -7.663198069 -8.4017702676 -1.5776514122 -294.8232329 -5.4055290685 -3.2309786308 
-393.32420181 17.768585257 18.003961545 -106.80546617 4.5059315758 29.976198437 -459.99354042 1.0192569713 18.218536428 
-105.62412412 13.115688776 7.441341191 -421.21111763 -14.705318197 -8.0545015069 -343.48999758 -5.1044073572 6.878290827 
-325.62796296 -9.9905492248 13.170327175 -129.45805411 -19.649839445 -14.806726493 -223.27509859 -12.120602049 37.377322602 
-115.02223646 0.34940515301 28.697470365 -87.895222822 -20.061743696 8.1447712593 -262.24348153 -15.478996495 -2.0808141834 
-466.00387632 0.70155411854 -8.7304106754 -164.39763252 -12.565658807 -3.1187394796 -114.24310894 -11.399415139 24.358427527 
-105.03045722 11.475036563 -0.39379982691 -416.59387762 -4.9234860932 -7.7102309242 -415.73283943 -2.5624612485 7.2531504739 
-287.04319914 -12.560575621 21.075313398 -368.83875479 -9.5124055589 11.69813915 -373.56330084 10.477458833 -6.6634031731 
-194.85749464 16.06469185 30.682387741 -42.683754624 5.1046193061 1.1716933574 -345.14045212 -9.9446249057 -15.304705453 
-268.15953027 13.598713956 3.577153233 -150.31953543 18.260967166 -12.321065241 -387.20091002 5.6905079658 -2.8690096301 