ITEM: TIMESTEP
25000
ITEM: NUMBER OF ATOMS
1000
ITEM: BOX BOUNDS xy xz yz pp pp pp
0 10 0
0 10 0
-0 10 0
ITEM: ATOMS id type type x y z ix iy iz vx vy vz fx fy fz omegax omegay omegaz radius 
213 1 1 2.0308 3.07895 0.954662 119 1 1 -235.24 24.6591 -3.25682 1522.84 838.782 -1062.06 0 0 0 0.5 
106 1 1 0.516603 2.68394 0.629 -34 0 0 -247.442 16.3371 -14.2899 -425.889 933.772 267.968 0 0 0 0.5 
409 1 1 2.33826 4.32723 1.95354 195 1 1 -40.9136 -5.42586 18.235 -309.913 1940.5 244.519 0 0 0 0.5 
857 2 2 4.55515 4.38117 1.00992 -2 0 0 -38.0564 0.499596 23.9885 1812.02 -2640.15 -1716.59 0 0 0 0.5 
909 2 2 2.5974 0.897201 0.712028 -26 0 1 -376.857 28.6532 -3.41869 1818.4 -518.961 1509.25 0 0 0 0.5 
548 2 2 1.66938 1.52166 0.86454 -70 0 1 -287.614 -24.3309 -2.76904 369.485 79.7105 -246.369 0 0 0 0.5 
21 1 1 0.154773 2.2632 1.51901 -85 0 1 -324.275 34.2702 -21.5613 2702.22 -1537.95 2762.37 0 0 0 0.5 
280 1 1 2.50287 0.0673529 1.05225 -66 0 0 -438.877 -16.6808 1.9246 -1240.22 1133.77 -2398.38 0 0 0 0.5 
587 2 2 4.04206 2.72774 1.17788 -27 0 1 -213.563 2.14732 1.53954 661.647 -169.648 -964.011 0 0 0 0.5 
598 2 2 1.92973 4.18207 0.914186 -28 0 1 -69.8844 -11.0984 -2.61562 805.111 -2268.68 -1162.85 0 0 0 0.5 
67 1 1 2.19927 2.42802 0.313166 142 1 1 -248.69 3.21441 2.86915 806.998 -714.203 505.547 0 0 0 0.5 
127 1 1 1.19166 0.884102 0.346997 -60 0 1 -361.619 10.6375 15.3597 -1061.01 2358.98 1043.64 0 0 0 0.5 
886 2 2 4.40696 3.61656 0.66044 163 1 0 -129.797 -7.47213 14.5826 -638.729 1712.65 -271.314 0 0 0 0.5 
767 2 2 1.29629 2.77495 1.53777 -49 0 1 -173.94 -11.9304 -7.68407 -4747.49 821.12 1321.4 0 0 0 0.5 
776 2 2 1.99392 0.731798 1.26399 -68 0 1 -336.705 -18.6513 7.77509 -3781.77 2730.5 2842.66 0 0 0 0.5 
204 1 1 0.547996 1.71934 1.88242 -98 0 1 -341.638 -8.19897 -2.20697 -542.333 -132.448 334.332 0 0 0 0.5 
282 1 1 3.16887 0.756744 1.72675 123 1 0 -394.817 12.4501 -4.94761 909.254 1459.04 -840.481 0 0 0 0.5 
222 1 1 0.109659 0.0145781 1.46442 143 1 1 -472.967 4.36651 22.67 -794.024 3726.2 -1413.41 0 0 0 0.5 
670 2 2 2.01087 2.11265 1.51526 -17 0 1 -270.312 -14.4181 -9.20645 443.685 -1428.92 2169.77 0 0 0 0.5 
839 2 2 2.67984 3.99365 0.336892 -32 0 1 -74.8863 2.07342 -1.76523 -674.04 1365.54 -1467.3 0 0 0 0.5 
584 2 2 1.22431 2.22901 0.682304 -45 0 1 -251.064 0.475874 9.20617 820.619 858.394 281.809 0 0 0 0.5 
79 1 1 4.3927 1.302 0.949906 -56 0 1 -339.485 13.5575 4.35854 -1553.69 -2924.19 357.014 0 0 0 0.5 
233 1 1 1.45883 0.256346 0.24651 -50 0 1 -422.489 -15.5435 14.5162 -47.3802 -98.1025 -233.381 0 0 0 0.5 
259 1 1 1.29195 1.39729 1.90072 -78 0 -1 -325.16 -13.8653 -21.7127 641.673 -1104.53 1047.99 0 0 0 0.5 
526 2 2 3.99897 1.09428 0.0491181 -69 0 1 -312.699 -9.05309 -8.35282 420.792 -199.303 -269.071 0 0 0 0.5 
335 1 1 1.79014 4.90343 0.443951 -53 0 1 7.29981 -1.21676 -25.5647 -32.9238 957.644 850.087 0 0 0 0.5 
770 2 2 2.92489 3.50758 1.86096 -42 0 0 -136.405 -0.0278927 22.4604 -460.913 1196.71 435.568 0 0 0 0.5 
941 2 2 0.760442 4.33402 0.363355 -4 0 0 -22.6073 -14.2093 -12.822 -694.355 559.568 -1637.06 0 0 0 0.5 
612 2 2 3.46899 3.77681 0.895202 4 0 1 -94.6122 -6.56849 -12.1414 -1825.19 -2344.79 81.0813 0 0 0 0.5 
865 2 2 3.41077 2.88295 1.92972 -45 0 -1 -181.191 -27.5038 4.87466 821.024 -1702.75 1324.01 0 0 0 0.5 
351 1 1 0.190273 4.32092 1.48861 -19 0 1 -74.2487 4.59614 -10.0018 1494.18 -4438.93 153.178 0 0 0 0.5 
984 2 2 3.78071 2.23617 0.0201831 96 1 1 -253.581 -40.5862 7.96983 -214.805 -901.741 -404.721 0 0 0 0.5 
830 2 2 4.16769 4.67805 0.350005 125 1 0 -9.91408 1.22967 -19.8988 10.5038 -520.432 819.683 0 0 0 0.5 
648 2 2 2.65064 1.93037 0.791978 127 1 1 -311.905 -9.0937 9.28408 1522.12 -1963.27 -1167.65 0 0 0 0.5 
234 1 1 4.51654 2.94407 1.98855 -62 0 0 -210.011 6.5943 7.12122 -168.911 848.291 364.29 0 0 0 0.5 
582 2 2 3.74579 3.77784 0.0756174 9 0 0 -101.548 10.3343 -16.2011 -2196.22 796.379 1148.09 0 0 0 0.5 
385 1 1 3.93718 0.444667 1.05458 -126 0 0 -477.49 13.875 36.4705 1442.27 2114.2 -23.6594 0 0 0 0.5 
976 2 2 1.35732 4.8626 1.35076 51 0 0 35.0192 -12.2517 3.2112 -2106.24 2577.72 1563.58 0 0 0 0.5 
680 2 2 2.58832 0.0164789 0.138497 -78 0 0 -469.892 -4.94676 -8.34264 -286.569 -2664.46 -228.395 0 0 0 0.5 
327 1 1 2.94295 2.07396 1.54998 -27 0 0 -276.294 14.403 -7.53382 -256.654 1805.32 -510.102 0 0 0 0.5 
955 2 2 3.8878 4.84718 1.25577 11 0 1 4.32241 -4.28483 -4.71625 -2309.57 1055.82 -0.199034 0 0 0 0.5 
783 2 2 0.706668 3.26922 1.35007 -26 0 1 -177.999 1.97275 24.6572 -1543.51 620.834 -1597.57 0 0 0 0.5 
149 1 1 0.97752 3.96694 0.917811 -5 0 0 -58.6298 -8.624 18.6149 -159.849 -1742.11 2118.09 0 0 0 0.5 
755 2 2 2.71397 4.95633 0.149645 -49 0 0 11.4656 12.4229 -7.11199 1744.96 -2676.4 3137.75 0 0 0 0.5 
661 2 2 3.09542 2.86218 0.952077 -36 0 0 -219.684 -1.2464 -2.01594 964.925 1981.44 -89.4213 0 0 0 0.5 
516 2 2 2.73813 4.00533 1.26418 -83 0 1 -78.3927 6.35247 -3.87715 325.285 502.56 -140.526 0 0 0 0.5 
843 2 2 3.36889 1.54396 0.519242 -1 0 1 -308.182 -8.79572 10.7867 676.42 -683.296 -93.7194 0 0 0 0.5 
647 2 2 3.50568 1.59604 1.4558 -55 0 0 -293.492 -2.27693 1.72227 1558.71 -2404.73 -383.87 0 0 0 0.5 
495 1 1 3.75236 2.94031 0.150181 -51 0 1 -159.504 -5.20494 18.749 -1114.54 1496.07 344.64 0 0 0 0.5 
288 1 1 3.84624 3.76453 1.56926 -6 0 -1 -120.908 -2.81458 11.9872 -416.128 -1351.92 -262.558 0 0 0 0.5 
807 2 2 4.92858 2.1913 1.6636 -33 0 0 -241.463 -8.25635 4.34445 -1230.03 709.756 -3.80267 0 0 0 0.5 
833 2 2 4.93396 3.30425 0.250786 18 0 0 -125.465 -1.04465 0.685268 2137.58 -2461.56 93.1171 0 0 0 0.5 
9 1 1 2.13921 2.85441 2.0362 145 1 0 -218.246 9.34388 -1.22541 933.956 -405.677 -513.07 0 0 0 0.5 
851 2 2 2.36143 0.334066 2.93358 -101 0 0 -481.889 4.60037 -7.13377 2533.71 -2659.38 -632.319 0 0 0 0.5 
15 1 1 4.25561 3.07427 3.656 -61 0 1 -200.772 1.38199 -3.67778 1783.35 215.267 258.213 0 0 0 0.5 
12 1 1 2.42607 1.92143 3.26364 -72 0 0 -300.567 8.79246 -17.5853 1443.69 -4235.52 -634.043 0 0 0 0.5 
75 1 1 1.82033 3.41105 3.2582 96 1 1 -123.283 -14.0475 16.2567 -784.528 -895.358 -457.267 0 0 0 0.5 
641 2 2 1.76457 2.58614 2.98851 -9 0 0 -229.05 -16.1815 12.9175 -1976.71 1605.33 -223.565 0 0 0 0.5 
725 2 2 4.21372 3.99046 2.30166 -29 0 0 -124.784 8.91881 0.710115 2103.34 -2044.44 -268.708 0 0 0 0.5 
25 1 1 3.39793 1.56436 3.81292 -85 0 0 -401.213 21.0724 -8.38153 3450.77 -4125.76 106.268 0 0 0 0.5 
258 1 1 1.97916 1.07192 3.01504 -59 0 1 -402.435 -4.46747 -14.7669 600.687 2115.66 2182.29 0 0 0 0.5 
265 1 1 3.97807 3.03873 2.72226 -45 0 1 -199.685 -11.07 22.573 1366.29 -2366.57 -1070.3 0 0 0 0.5 
609 2 2 1.61479 1.70783 2.95529 -25 0 0 -321.292 1.41516 -15.9389 -1052.06 2731.84 -858.562 0 0 0 0.5 
456 1 1 2.56187 2.80174 2.76284 -13 0 0 -227.956 24.7558 13.6713 41.0692 70.8214 -597.836 0 0 0 0.5 
907 2 2 2.53901 1.00778 2.31711 -48 0 0 -388.686 10.3432 -1.44025 -112.645 55.367 -2.65926 0 0 0 0.5 
585 2 2 0.21455 1.02717 2.5286 -65 0 1 -380.907 -12.3602 -1.22933 -3125.77 644.797 -619.896 0 0 0 0.5 
19 1 1 0.810563 1.73386 3.21597 -52 0 0 -318.961 4.68142 -3.02585 -1793.58 1284.44 -1028.6 0 0 0 0.5 
211 1 1 0.820155 0.41488 3.61138 71 1 0 -536.712 21.8586 -27.2937 -426.832 503.025 -0.687104 0 0 0 0.5 
18 1 1 1.19213 3.03282 2.46578 -22 0 1 -159.749 -1.60708 7.70685 -1880.55 1254.77 -2152 0 0 0 0.5 
313 1 1 1.06864 0.850985 2.69798 -87 0 0 -418.902 4.01927 -3.8727 2467.21 2309.31 -104.393 0 0 0 0.5 
378 1 1 1.99895 0.466264 3.64597 -95 0 0 -491.056 -17.7904 10.2879 26.0357 -1772.2 367.629 0 0 0 0.5 
445 1 1 3.3713 3.6603 2.69267 -15 0 0 -133.637 1.77552 24.9984 34.1478 3419.06 -2007.25 0 0 0 0.5 
596 2 2 1.55001 3.9619 2.58515 -42 0 1 -85.519 -9.4541 -12.9641 1232.54 -1415.99 -418.571 0 0 0 0.5 
129 1 1 1.4491 0.228948 2.64903 -91 0 0 -481.25 -36.4709 -21.8076 1008.7 -1930.35 -18.3822 0 0 0 0.5 
853 2 2 2.87603 2.14626 2.36487 80 1 0 -262.309 -18.5058 -16.3024 -1480.03 632.883 857.202 0 0 0 0.5 
625 2 2 1.2342 2.80919 3.86383 -5 0 0 -265.691 21.9704 -8.21176 -514.437 330.673 -529.663 0 0 0 0.5 
208 1 1 4.52566 3.80139 3.13532 3 0 0 -149.607 11.4015 -5.43749 547.492 1875.77 589.645 0 0 0 0.5 
394 1 1 0.989411 1.20275 3.84762 69 1 -1 -415.979 8.3475 17.2806 -1389.39 -962.948 771.271 0 0 0 0.5 
272 1 1 3.74362 0.823902 2.56536 -94 0 0 -405.172 10.8074 25.9498 32.744 214.272 -53.2439 0 0 0 0.5 
600 2 2 1.78028 4.0704 3.87192 -24 0 1 -78.9864 -5.13456 -0.278824 783.105 -239.532 -215.438 0 0 0 0.5 
228 1 1 2.1388 2.51222 3.83424 -77 0 1 -261.049 23.4883 28.502 -1200.76 544.733 -577.561 0 0 0 0.5 
679 2 2 2.42081 4.74488 2.95556 -22 0 0 -87.2423 21.2457 -4.75366 -139.351 -125.446 -1157.42 0 0 0 0.5 
760 2 2 0.0676876 3.6091 2.09265 -48 0 1 -128.563 -6.36925 15.0054 218.454 471.065 -419.095 0 0 0 0.5 
244 1 1 0.792537 3.85043 3.42726 -199 -1 0 -97.4896 -12.2571 2.51737 924.217 -270.759 163.288 0 0 0 0.5 
921 2 2 1.01668 4.59623 2.69748 -51 0 1 -62.6642 -1.57812 -4.72639 3195.75 -896.495 -128.882 0 0 0 0.5 
555 2 2 3.45758 4.46897 2.1261 -23 0 0 -77.8556 13.9041 1.29991 -3832.35 758.433 -1370.4 0 0 0 0.5 
364 1 1 3.64414 3.33699 3.94909 -28 0 0 -183.398 14.1482 16.3521 -2187.21 -335.102 703.257 0 0 0 0.5 
370 1 1 0.230445 2.88783 2.66425 -9 0 0 -155.438 -31.7286 25.0714 44.4963 363.617 -298.8 0 0 0 0.5 
298 1 1 4.85928 0.151413 2.43684 -70 0 0 -454.621 9.98634 5.30369 -2853.29 2435.4 868.367 0 0 0 0.5 
925 2 2 4.37401 2.19339 3.54833 39 1 0 -294.31 -16.6719 -19.0315 -1061.86 1179.26 969.989 0 0 0 0.5 
322 1 1 2.51341 1.37423 3.88468 36 1 0 -400.98 11.423 3.60747 1166 759.18 1546.14 0 0 0 0.5 
214 1 1 2.86108 3.25895 3.91609 8 0 0 -199.589 -5.16606 -5.87384 -1669.98 844.284 1335.89 0 0 0 0.5 
354 1 1 2.65335 3.87792 3.20081 -17 0 1 -146.873 -1.70222 -17.1982 -321.777 672.937 753.026 0 0 0 0.5 
868 2 2 3.14668 2.77936 3.30946 -61 0 1 -216.682 10.394 2.39431 2826.29 -8.43021 464.852 0 0 0 0.5 
331 1 1 3.98275 4.1276 3.62866 4 0 0 -143.834 4.55829 32.4224 -520.234 -372.689 -531.652 0 0 0 0.5 
256 1 1 0.315665 4.85633 2.82 -13 0 0 -19.018 -4.86922 -11.4563 -2565.06 -1124.02 2418.61 0 0 0 0.5 
186 1 1 3.34947 2.03362 3.01248 69 1 0 -283.9 -18.5193 -4.86306 221.882 401.149 662.984 0 0 0 0.5 
731 2 2 3.8846 1.74646 2.33612 200 1 0 -307.514 -0.99558 -10.3711 1430.45 -579.508 -182.524 0 0 0 0.5 
827 2 2 3.84213 4.52639 2.8933 -38 0 0 -97.6972 6.30894 -7.65719 1232.91 2999.02 4478.4 0 0 0 0.5 
483 1 1 1.77211 1.1483 3.98845 74 1 0 -423.649 12.2765 -23.3717 1134.4 -258.093 -167.073 0 0 0 0.5 
159 1 1 4.8341 1.46099 3.1282 133 1 0 -337.507 -7.16397 4.34823 1149.26 -1829.46 -1049.46 0 0 0 0.5 
506 2 2 2.84547 2.24397 4.19295 -63 0 0 -278.697 2.76365 13.0158 -1248.45 761.052 1517.92 0 0 0 0.5 
23 1 1 1.61738 1.16795 5.72128 -72 0 0 -384.411 -25.5051 22.71 -5130.06 -152.449 1929.34 0 0 0 0.5 
187 1 1 1.29423 1.71843 5.22117 -63 0 0 -302.916 -1.51995 -13.0257 -1661.34 812.211 -279.273 0 0 0 0.5 
460 1 1 4.02119 4.88877 4.12573 -7 0 0 -37.684 -1.59271 3.16562 1453.73 -697.594 -1356.17 0 0 0 0.5 
541 2 2 0.115197 1.42063 4.13586 73 1 0 -409.49 33.9825 -9.67864 -1283.66 1442.08 -1734.03 0 0 0 0.5 
290 1 1 0.605104 1.01984 4.77107 95 1 0 -436.018 34.9765 -16.798 782.03 -856.393 -1304.79 0 0 0 0.5 
96 1 1 2.20239 0.825408 5.38266 -55 0 0 -445.884 -1.34645 8.43891 2356.92 1191.23 -1190.42 0 0 0 0.5 
102 1 1 3.26877 4.38519 4.29127 1 0 -1 -59.6708 -9.95077 -24.4491 321.673 3.27164 -410.732 0 0 0 0.5 
120 1 1 0.977345 0.497747 5.39543 -95 0 -1 -475.947 22.071 -33.1887 -8.65711 2341.71 1617.3 0 0 0 0.5 
278 1 1 1.66875 0.660536 4.55879 122 1 -1 -516.381 17.8867 7.37379 218.102 -218.361 1200.46 0 0 0 0.5 
894 2 2 3.62723 4.94905 5.27206 9 0 0 -22.1135 21.4605 11.575 1610.34 -4018.09 -1710.68 0 0 0 0.5 
932 2 2 2.19791 1.50121 4.92559 -32 0 0 -332.196 0.226507 4.79237 1981.7 -83.9125 -2450.77 0 0 0 0.5 
311 1 1 1.97145 4.08827 5.83567 -10 0 0 -107.443 -14.8208 13.3933 325.639 -1593.84 33.2769 0 0 0 0.5 
746 2 2 4.28422 2.71212 5.93082 -7 0 0 -211.475 8.8201 -8.52303 -1549.74 1087.2 -434.308 0 0 0 0.5 
509 2 2 0.0554045 2.00602 5.0609 -58 0 0 -285.647 -30.8034 -32.3152 336.588 -1212.92 262.437 0 0 0 0.5 
39 1 1 1.57359 3.1659 5.73655 -71 0 0 -190.977 11.2862 -0.546186 -1296.68 -646.027 -1161.02 0 0 0 0.5 
247 1 1 0.279681 0.182635 4.35284 -108 0 0 -516.457 15.7244 1.91881 2684.52 995.058 2528.6 0 0 0 0.5 
251 1 1 0.475967 2.69923 5.86726 -25 0 0 -211.736 -3.02739 8.69785 -2442.3 1195.86 2346.29 0 0 0 0.5 
603 2 2 1.71995 1.80831 4.41163 107 1 0 -321.891 3.31345 -17.6883 -367.747 1514.24 -1139.37 0 0 0 0.5 
653 2 2 4.75265 2.78166 4.39066 149 1 0 -203.063 -15.5369 -2.13562 973.354 -440.884 -349.594 0 0 0 0.5 
232 1 1 0.610124 1.84162 5.717 -49 0 1 -291.355 -25.2975 9.46491 -1143.3 -450.44 579.27 0 0 0 0.5 
434 1 1 2.2486 2.48494 5.22836 -56 0 0 -274.139 -4.92894 12.6947 -635.001 172.645 457.637 0 0 0 0.5 
200 1 1 2.56727 1.6176 5.71366 -108 0 0 -362.987 16.5158 -7.25682 2854.6 -1803.87 551.876 0 0 0 0.5 
939 2 2 1.51998 2.49127 4.61147 -24 0 0 -273.614 26.0586 13.4362 196.079 1163.72 -132.548 0 0 0 0.5 
33 1 1 4.42253 1.79029 4.63693 143 1 0 -271.93 -24.336 -16.1194 -16.5221 82.702 461.805 0 0 0 0.5 
780 2 2 0.97709 2.61115 5.17553 -116 0 0 -275.006 12.3803 31.1876 2382.45 1058.01 -1630.17 0 0 0 0.5 
722 2 2 3.01334 3.00902 5.89953 -80 0 0 -209.056 7.68683 -8.90821 -78.0154 965.568 -781.972 0 0 0 0.5 
615 2 2 2.29211 0.0289298 5.79253 100 1 0 -559.945 5.39676 -3.82429 4106.32 366.094 -162.591 0 0 0 0.5 
988 2 2 2.04721 4.62737 5.18024 34 0 0 -40.7344 -4.14682 5.70344 357.747 1944.31 -391.338 0 0 0 0.5 
407 1 1 2.85055 4.50325 5.02141 21 0 0 -13.2389 -22.8557 27.6649 363.649 -1174.69 661.924 0 0 0 0.5 
637 2 2 4.61492 1.85205 5.58601 -49 0 1 -305.563 -4.78084 2.46482 756.277 -471.882 56.1997 0 0 0 0.5 
671 2 2 0.571127 3.67738 5.84768 -1 0 0 -128.304 3.84134 9.45725 806.011 -1255.56 126.722 0 0 0 0.5 
437 1 1 4.44687 3.77856 5.03044 -72 0 0 -144.46 -10.557 15.7553 -964.666 -960.15 223.922 0 0 0 0.5 
326 1 1 3.28669 3.34712 5.09789 -16 0 0 -147.022 2.82784 -0.862327 -2364.25 1693.71 1289.02 0 0 0 0.5 
245 1 1 2.59768 3.60574 4.61969 -37 0 0 -173.708 8.23369 9.66411 -635.267 587.959 808.691 0 0 0 0.5 
443 1 1 2.45286 0.356409 4.87794 51 1 0 -512.559 -0.160121 -14.1541 1749.94 -2511.02 -1195.12 0 0 0 0.5 
78 1 1 0.209924 4.21238 5.21959 12 0 1 -129.471 12.4113 14.2053 2730.24 -1179.2 844.267 0 0 0 0.5 
952 2 2 0.828603 4.75991 5.68381 38 0 0 -0.281709 -12.198 -0.0764866 -1069.32 -2262.35 -1238.72 0 0 0 0.5 
579 2 2 1.38951 4.63508 4.39403 -21 0 0 -55.4084 -14.9773 12.5299 -99.7589 -1531.11 -925.393 0 0 0 0.5 
465 1 1 3.01839 3.9546 5.89637 -3 0 0 -125.959 15.0513 17.4269 0.724286 135.612 -0.453274 0 0 0 0.5 
967 2 2 3.42579 0.944813 5.63705 97 1 -1 -433.377 14.4559 -15.8652 -97.6305 31.6486 175.748 0 0 0 0.5 
249 1 1 3.83035 2.17661 5.27415 -60 0 1 -262.284 -19.7542 8.0242 -574.161 1250.54 -53.2088 0 0 0 0.5 
340 1 1 0.337558 4.51708 4.07935 -13 0 0 -40.8978 -4.38886 -7.08877 -1232.04 2253.66 -1471.26 0 0 0 0.5 
524 2 2 3.99532 2.91742 4.72947 -24 0 1 -201.789 -8.17974 26.1803 1835.98 -1318.11 -1212.9 0 0 0 0.5 
511 2 2 4.23374 4.49981 4.89678 -18 0 -1 -47.4423 12.9204 -3.31933 1144.2 473.24 328.447 0 0 0 0.5 
789 2 2 0.55947 3.75719 4.43392 -70 0 0 -142.507 -0.7704 -9.26851 2352.92 -2145.39 1660.52 0 0 0 0.5 
762 2 2 3.01784 2.35053 5.11904 -74 0 0 -254.578 -8.14863 5.03449 -566.84 275.47 269.852 0 0 0 0.5 
691 2 2 4.93777 1.17869 5.24099 78 1 0 -342.77 -41.7143 -27.8473 -4936.15 1131.4 1005.95 0 0 0 0.5 
786 2 2 4.9696 0.709077 4.36165 -88 0 1 -375.267 -15.7309 -29.2712 -1617.18 1006.87 -1359.79 0 0 0 0.5 
488 1 1 4.4399 2.14518 7.79568 -79 0 1 -247.261 -0.985942 -20.5897 -1749.63 -427.474 -1543.21 0 0 0 0.5 
389 1 1 2.21374 2.71079 6.22884 -34 0 0 -194.457 3.39019 4.84312 -2561.28 73.5476 -2303.05 0 0 0 0.5 
573 2 2 1.86048 0.280194 7.25879 -70 0 0 -454.94 42.2522 13.038 3815.26 653.126 -885.141 0 0 0 0.5 
877 2 2 4.04381 0.0512989 7.98536 130 1 0 -432.328 -6.69688 -11.6748 -185.798 839.649 3641.95 0 0 0 0.5 
486 1 1 1.1905 0.435999 7.60195 95 1 0 -417.161 27.1909 10.8313 -2661.42 -234.723 487.632 0 0 0 0.5 
970 2 2 1.48116 0.392025 6.38684 129 1 -1 -443.927 21.539 -31.964 -924.875 -679.249 -1107.02 0 0 0 0.5 
43 1 1 1.15312 1.02683 6.89484 -66 0 0 -395.134 13.3007 -3.43781 2646.38 -935.611 431.597 0 0 0 0.5 
425 1 1 2.22008 0.311771 6.54819 -85 0 0 -471.17 16.8771 12.9413 4654.92 -2310.18 -499.186 0 0 0 0.5 
98 1 1 1.7854 1.90222 6.09256 -14 0 0 -324.062 21.1516 -20.1674 -1652.99 2610.72 722.356 0 0 0 0.5 
975 2 2 0.462519 0.884294 6.08601 111 1 1 -414.308 -5.77115 8.18451 -723.572 543.278 970.584 0 0 0 0.5 
530 2 2 3.83107 1.52496 7.3164 -34 0 1 -332.642 0.628784 15.3879 303.865 1452.01 -851.466 0 0 0 0.5 
729 2 2 0.719067 0.110962 6.81116 114 1 1 -423.425 14.2777 -21.3506 -2075.38 783.286 421.486 0 0 0 0.5 
687 2 2 0.654855 1.76055 6.61969 87 1 0 -324.166 1.85834 30.6132 -2005.25 2952.37 -1082.27 0 0 0 0.5 
169 1 1 1.55536 3.20836 6.77026 115 1 0 -147.397 -0.107287 -21.1818 -2046.21 3214.49 854.371 0 0 0 0.5 
972 2 2 1.69337 3.92853 7.29199 25 0 -1 -71.6344 2.28931 11.5433 -171.206 -1104.59 -869.511 0 0 0 0.5 
502 2 2 0.323803 0.914291 7.26902 -92 0 0 -406.876 -8.38913 -1.25738 728.436 -105.609 553.957 0 0 0 0.5 
640 2 2 1.14932 1.62982 7.65246 -86 0 0 -328.805 7.8397 -18.6755 1780.48 316.482 518.856 0 0 0 0.5 
418 1 1 0.444657 0.102255 7.98214 -68 0 0 -389.654 2.52707 5.78014 -2336.25 -2093.81 209.581 0 0 0 0.5 
913 2 2 0.860259 2.72469 7.35976 6 0 0 -154.217 -19.639 -5.36898 -4321.11 -944.868 2670.15 0 0 0 0.5 
785 2 2 1.74282 2.59955 7.23729 177 1 0 -211.234 2.34307 21.3656 4694.97 -1503.03 582.26 0 0 0 0.5 
654 2 2 3.15978 3.60806 7.92636 -60 0 1 -116.169 15.8539 -10.4782 -740.976 989.969 -167.144 0 0 0 0.5 
918 2 2 2.05418 1.20114 6.61688 -60 0 0 -372.074 4.86649 -0.126364 -909.564 -564.184 97.764 0 0 0 0.5 
205 1 1 2.45187 1.86803 7.29439 -105 0 -1 -313.64 -11.9114 23.4432 -2013.67 -322.446 51.8022 0 0 0 0.5 
189 1 1 1.65385 1.81438 6.92123 101 1 0 -310.709 0.321123 1.22219 -2732.48 1777.46 315.557 0 0 0 0.5 
46 1 1 3.84791 4.49979 6.49238 90 0 0 -41.2125 10.872 -7.84248 -1133.22 179.193 -2198.63 0 0 0 0.5 
568 2 2 4.12007 3.68982 6.2849 -36 0 0 -94.4824 -18.6857 2.04823 -4226.37 1654.39 -888.101 0 0 0 0.5 
651 2 2 0.112708 4.8766 7.80138 32 0 -1 56.3689 -17.0059 -1.05951 -2214.73 936.978 849.312 0 0 0 0.5 
375 1 1 2.95355 1.0979 6.48715 81 1 -1 -398.782 -6.07205 14.7773 2453.09 -791.898 -502.788 0 0 0 0.5 
439 1 1 3.53466 2.57597 6.24214 -21 0 0 -217.966 -21.4243 7.29822 -2051.65 -2815.17 199.342 0 0 0 0.5 
708 2 2 3.42754 0.676467 7.60117 -84 0 0 -378.523 -4.4002 -7.22797 -1169.97 2071.53 -1109.45 0 0 0 0.5 
608 2 2 0.367392 3.04257 6.66916 -26 0 0 -165.325 -5.11731 10.8507 -329.899 231.166 716.778 0 0 0 0.5 
366 1 1 4.5572 4.30333 7.00326 -15 0 0 -85.4421 11.0702 6.10239 -169.907 1745.1 2263.1 0 0 0 0.5 
87 1 1 1.77925 4.67674 7.93249 5 0 0 26.6129 -14.935 1.73172 191.326 2033.8 -329.987 0 0 0 0.5 
646 2 2 3.60373 4.51155 7.79505 -37 0 0 -27.1852 2.34104 -4.82863 0 0 0 0 0 0 0.5 
420 1 1 0.817668 4.59768 7.55531 7 0 0 45.3911 -24.9202 3.70565 1285.85 28.2447 2031.01 0 0 0 0.5 
676 2 2 4.93785 0.255397 6.83067 87 1 -1 -408.11 4.51354 -12.9496 -843.035 -1708.16 1662.69 0 0 0 0.5 
621 2 2 0.855231 4.521 6.57771 6 0 0 -37.4716 -13.7622 23.7616 854.576 653.356 -949.571 0 0 0 0.5 
737 2 2 3.18391 1.96285 7.41654 -29 0 0 -323.42 9.34771 35.0949 1043.89 2174.14 514.034 0 0 0 0.5 
478 1 1 3.26792 2.82453 7.12617 5 0 0 -207.695 15.1324 -5.83242 -1593.97 -131.98 2574.71 0 0 0 0.5 
485 1 1 2.77647 1.98321 6.49022 -70 0 1 -311.263 20.2981 6.05836 4509.31 -1726.94 408.202 0 0 0 0.5 
590 2 2 0.519056 3.93344 7.72527 6 0 -1 -65.2718 -22.8538 -10.6396 -188.927 -192.665 -12.3263 0 0 0 0.5 
207 1 1 4.09377 0.949771 6.63774 108 1 1 -378.13 -13.3607 -25.7253 -172.01 392.659 460.258 0 0 0 0.5 
559 2 2 4.4042 0.915276 7.59041 -90 0 0 -395.993 1.09273 -3.38601 -107.69 -1588.34 -927.088 0 0 0 0.5 
752 2 2 2.09875 4.77823 6.93654 5 0 -1 37.9167 -1.8674 -14.0814 2901.56 -888.66 750.255 0 0 0 0.5 
501 2 2 4.1416 2.77672 6.90935 67 1 0 -224.332 3.82903 -0.377008 -733.715 2485.84 -111.786 0 0 0 0.5 
220 1 1 1.73457 4.89476 6.06869 166 1 0 -13.4855 4.41612 35.2844 -23.2909 -1918.51 -4463.21 0 0 0 0.5 
936 2 2 1.42442 4.9818 7.22227 5 0 0 42.0055 -14.1721 0.612223 -68.7368 -1630.37 -3760.66 0 0 0 0.5 
547 2 2 4.33558 3.50832 7.50996 66 0 0 -125.995 6.6924 5.88879 -179.64 198.741 -1797.64 0 0 0 0.5 
912 2 2 4.65612 4.78462 7.69582 19 0 -1 -38.9065 22.6847 11.7947 1508.83 -152.819 1146.97 0 0 0 0.5 
424 1 1 4.76185 2.48691 7.0186 2 0 0 -236.087 14.5203 -1.42675 1573.11 768.659 -1269.15 0 0 0 0.5 
173 1 1 4.78639 1.79733 6.63922 85 1 0 -347.739 -13.3732 2.24506 -2990.99 3209.25 -2137.67 0 0 0 0.5 
781 2 2 4.98633 0.977986 6.29558 91 1 0 -372.063 5.40746 -32.2459 156.826 -1311.28 -548.087 0 0 0 0.5 
523 2 2 1.26022 0.148404 8.4918 -66 0 1 -411.215 2.2216 33.0937 345.919 -815.97 -1859.43 0 0 0 0.5 
287 1 1 1.23387 0.809126 8.95845 100 1 0 -361.218 13.8586 8.51952 1378.58 875.894 -392.379 0 0 0 0.5 
126 1 1 1.74901 1.56015 8.57344 103 1 -1 -308.437 -13.1893 -1.45108 -237.742 -357.006 189.21 0 0 0 0.5 
281 1 1 1.55624 2.48412 9.78078 15 0 -1 -235.179 4.31278 8.31474 -476.502 3505.03 496.128 0 0 0 0.5 
674 2 2 2.00128 2.00585 9.2972 -19 0 -1 -235.082 -8.17912 -3.47883 1436.54 -490.258 -620.726 0 0 0 0.5 
998 2 2 1.0399 0.986025 8.08413 -121 0 0 -394.924 20.7993 22.3655 -808.364 870.681 1414.61 0 0 0 0.5 
881 2 2 2.23064 4.17841 8.12321 -8 0 -1 -17.7591 -22.8224 -8.71049 2843.09 -3104.83 1011.85 0 0 0 0.5 
902 2 2 2.13029 2.67677 8.68427 124 1 0 -213.676 -6.00286 -21.0658 -770.404 542.694 78.96 0 0 0 0.5 
613 2 2 0.521106 2.16339 8.08141 -28 0 0 -262.213 -11.4814 6.41958 -1673.29 1891.92 -109.589 0 0 0 0.5 
242 1 1 1.50307 3.97307 9.63739 -160 -1 0 -94.1052 19.5704 10.6426 -453.752 -783.143 140.258 0 0 0 0.5 
141 1 1 1.17616 2.30405 8.97517 -12 0 0 -236.496 -15.5701 8.40414 -1357.19 157.157 -135.44 0 0 0 0.5 
496 1 1 4.14593 4.99707 8.69451 95 0 0 13.4468 5.77816 -1.06829 -170.132 -396.21 -278.973 0 0 0 0.5 
968 2 2 0.873772 1.1822 9.51071 135 1 0 -335.936 8.45898 10.7865 -1436.49 -692.628 379.354 0 0 0 0.5 
61 1 1 1.96142 1.22465 9.66184 -93 0 0 -331.519 -7.54851 24.6753 -3432.55 2935.57 530.488 0 0 0 0.5 
71 1 1 0.345707 0.0642823 9.90181 42 1 0 -436.806 -4.84119 31.4041 -1946.42 1796.16 752.761 0 0 0 0.5 
40 1 1 2.20977 4.04459 8.99109 -11 0 0 -86.1016 26.8563 16.9482 -256.09 22.9331 -666.95 0 0 0 0.5 
384 1 1 2.35195 3.30977 9.07447 -34 0 0 -115.424 -0.931047 15.1572 -241.596 -1633.34 -843.387 0 0 0 0.5 
42 1 1 4.56546 2.79986 9.00119 -53 0 0 -205.941 -14.7167 -3.16032 2864.2 -3304.67 -1231.72 0 0 0 0.5 
644 2 2 1.41864 2.31008 8.16707 184 1 0 -255.189 24.4788 -11.5853 431.955 -590.399 -1199.32 0 0 0 0.5 
876 2 2 0.75974 2.04881 9.90696 -28 0 0 -226.369 -23.5325 3.98217 -1524.02 2565.43 1022.77 0 0 0 0.5 
812 2 2 1.98129 3.2688 9.95101 41 0 0 -105.808 10.4907 24.4579 -1597.98 -676.472 -994.715 0 0 0 0.5 
196 1 1 2.49129 0.711809 9.89829 134 1 -1 -367.126 -5.20646 20.7858 426.516 1878.51 -1354.12 0 0 0 0.5 
316 1 1 3.82749 0.237019 9.74162 -69 0 -1 -434.456 -4.31943 9.79615 2301.9 -184.252 -168.94 0 0 0 0.5 
372 1 1 2.47922 0.957111 8.98308 -71 0 0 -380.087 1.51745 -1.45884 329.386 -0.247403 -890.087 0 0 0 0.5 
283 1 1 1.82481 0.299928 9.31416 -95 0 0 -362.152 4.99999 29.2427 -430.949 -1226.28 -226.547 0 0 0 0.5 
348 1 1 3.90762 4.06563 8.73038 -9 0 0 -70.2484 19.0373 -12.7797 -1335.74 2222.29 -383.551 0 0 0 0.5 
581 2 2 4.29058 3.44893 8.69883 -7 0 0 -102.395 0.877527 -11.1402 -800.747 1326.91 280.992 0 0 0 0.5 
180 1 1 2.33653 4.84288 9.30677 23 0 0 15.1956 9.72146 15.3977 354.14 358.113 574.872 0 0 0 0.5 
374 1 1 0.262593 3.46403 9.8156 -16 0 0 -83.5043 -23.8035 -5.6437 -589.455 -95.7853 330.592 0 0 0 0.5 
49 1 1 0.514806 3.15692 8.13164 -4 0 0 -129.691 -28.3199 18.2822 -64.2845 779.136 295.526 0 0 0 0.5 
219 1 1 4.87185 4.77829 8.64655 16 0 -1 8.22377 8.83461 3.36248 300.185 -249.557 -1793.42 0 0 0 0.5 
51 1 1 0.22842 4.07344 9.25106 4 0 0 -25.5637 -3.61881 -29.7531 -759.534 -468.58 394.906 0 0 0 0.5 
944 2 2 2.89328 2.29925 8.6887 -68 0 0 -203.735 -17.1279 2.67108 -231.647 -449.322 -370.959 0 0 0 0.5 
236 1 1 2.93328 1.61134 9.68856 -73 0 0 -317.443 -15.7384 17.6518 -2074.34 426.29 1015.88 0 0 0 0.5 
823 2 2 3.9761 0.887152 8.79813 138 1 -1 -364.242 14.2897 -2.83036 -1084.15 -147.794 522.795 0 0 0 0.5 
86 1 1 3.62953 3.09189 9.16992 -20 0 1 -114.626 -24.036 -22.5674 -5653.1 820.667 2256.96 0 0 0 0.5 
399 1 1 2.65806 1.36244 8.15843 -79 0 -1 -378.529 17.908 1.49958 73.6804 166.999 -339.764 0 0 0 0.5 
212 1 1 4.80495 0.427095 9.42906 127 1 -1 -428.645 31.792 26.7638 28.98 781.088 2228.98 0 0 0 0.5 
750 2 2 3.15706 0.452014 9.43568 -73 0 0 -404.046 -3.51049 -0.637586 -394.246 -367.028 -1244.87 0 0 0 0.5 
688 2 2 4.40081 3.25521 9.61721 2 0 0 -148.371 19.3995 17.4551 1924.04 669.203 -2752.84 0 0 0 0.5 
454 1 1 4.61334 0.101689 8.88765 114 1 0 -338.298 2.51857 5.24716 -9289.01 -385.588 -3020.18 0 0 0 0.5 
935 2 2 3.62999 2.97984 8.03243 -29 0 0 -122.241 -8.10501 -6.02233 -53.16 239.795 -1811.1 0 0 0 0.5 
438 1 1 0.859422 4.33311 8.66126 26 0 -1 -28.809 -10.1831 -23.7343 1012.88 40.69 -978.846 0 0 0 0.5 
403 1 1 3.65733 4.4003 9.59488 -1 0 -1 -38.3301 20.7057 -7.7673 -662.586 1869.7 -1278.63 0 0 0 0.5 
264 1 1 2.97434 3.29012 9.80097 -12 0 -1 -106.579 -5.99279 -0.282749 -1367.43 1283.63 -797.062 0 0 0 0.5 
754 2 2 3.50782 1.52308 9.13433 -63 0 0 -356.681 15.84 -16.2898 717.064 1102.49 -940.069 0 0 0 0.5 
826 2 2 1.10958 3.41589 8.9047 155 1 -1 -76.3411 -17.547 7.50341 13.9539 -51.1628 13.5791 0 0 0 0.5 
227 1 1 3.19037 0.462992 8.47971 -68 0 0 -367.513 0.232988 10.109 -196.729 -113.276 -1015.06 0 0 0 0.5 
983 2 2 1.43595 4.93977 9.50998 14 0 -1 11.7476 5.01643 -3.27252 797.738 -1534.02 -376.22 0 0 0 0.5 
908 2 2 2.79145 2.46348 9.58188 -54 0 0 -242.446 21.1085 -5.94768 -248.835 -940.951 487.802 0 0 0 0.5 
138 1 1 3.7769 2.28377 8.39557 -34 0 0 -207.578 -24.2815 13.2164 205.585 -1229.21 1409.57 0 0 0 0.5 
956 2 2 4.58866 2.43448 9.98593 -59 0 0 -239.206 -0.0737505 6.96736 3650.33 -996.387 -314.205 0 0 0 0.5 
586 2 2 4.74417 3.15543 8.19359 128 1 0 -114.894 -27.0005 -18.6882 -88.7838 -445.509 -453.529 0 0 0 0.5 
314 1 1 4.75761 2.06914 8.94234 -53 0 0 -231.252 -39.2178 1.49686 1667.1 443.139 793.559 0 0 0 0.5 
974 2 2 4.74135 4.14019 9.39643 220 1 0 -65.8148 2.59089 -10.3796 -1953.24 2657.02 1980.92 0 0 0 0.5 
269 1 1 4.78249 0.50594 8.39715 -95 0 0 -421.152 41.1009 -22.5136 1637.85 673.697 198.092 0 0 0 0.5 
66 1 1 4.87469 1.54082 8.22047 -19 0 0 -286.025 -23.3406 -32.7414 -4578.31 3906.55 1904.84 0 0 0 0.5 
824 2 2 4.84997 4.0768 8.24388 10 0 0 -69.693 -6.75165 10.1885 -3338.03 937.286 -769.349 0 0 0 0.5 
386 1 1 0.949688 8.58351 1.57993 48 0 0 363.274 0.949413 -7.13524 622.709 -477.708 -127.746 0 0 0 0.5 
419 1 1 3.18322 8.85264 0.256182 56 0 0 392.515 17.2759 -11.6307 539.998 -2061.58 -3399.22 0 0 0 0.5 
906 2 2 1.94068 9.14761 1.04692 53 0 0 499.612 -19.6118 3.43395 -3773.02 2260.96 -958.339 0 0 0 0.5 
885 2 2 4.61523 6.58988 1.74532 20 0 0 168.715 -2.86864 -1.1169 1167.22 -317.504 1241.49 0 0 0 0.5 
701 2 2 0.268684 9.10593 1.71964 40 0 0 372.129 27.5915 -3.75725 199.503 -3392.75 2021.66 0 0 0 0.5 
938 2 2 1.61783 6.39974 1.62935 13 0 0 133.964 -17.6538 -32.5454 -1895.78 746.519 -1156.57 0 0 0 0.5 
494 1 1 3.38882 5.42077 1.79128 11 0 0 37.7597 9.68321 -13.773 -939.195 446.819 235.524 0 0 0 0.5 
562 2 2 -0.0578156 7.80404 1.66872 97 0 1 322.985 -5.674 9.85269 -5936.66 2073.89 -198.013 0 0 0 0.5 
131 1 1 2.70163 7.71439 1.52685 49 0 0 302.751 -13.0705 1.42177 -2458.58 2871.58 -2229.59 0 0 0 0.5 
589 2 2 3.47783 7.47718 0.974392 34 0 1 293.708 -33.2087 -9.48495 -3703 -12.4557 -33.3004 0 0 0 0.5 
911 2 2 1.29419 9.62982 1.00196 -121 -1 -1 507.524 -6.20232 11.6726 -2122.53 509.553 -1132.45 0 0 0 0.5 
6 1 1 1.44469 5.87097 0.0254601 3 0 0 110.134 12.0791 9.3326 997.477 433.797 -2469.04 0 0 0 0.5 
95 1 1 0.688369 5.09479 0.0374207 -10 0 0 15.5512 21.3397 18.3716 -96.789 776.779 74.0725 0 0 0 0.5 
197 1 1 4.04409 7.99389 1.67885 50 0 0 271.582 11.1995 -11.9282 3076.56 -218.358 -267.911 0 0 0 0.5 
160 1 1 2.71679 8.57135 1.13044 60 0 0 371.464 12.4899 13.8098 3937.5 -4224.84 698.366 0 0 0 0.5 
363 1 1 3.7483 6.82068 1.8041 16 0 -1 219.933 -22.003 -31.5267 -1251.9 -237.807 80.9965 0 0 0 0.5 
174 1 1 3.06387 7.15471 1.85154 52 0 -1 229.895 -28.6514 3.58476 -711.974 -1621.33 1847.92 0 0 0 0.5 
990 2 2 2.98945 6.02704 0.786044 4 0 0 132.157 -5.98357 -1.79365 -913.743 408.396 203.176 0 0 0 0.5 
37 1 1 4.62788 5.62807 0.967822 -182 -1 0 70.9821 4.05303 5.68482 1056.24 93.7975 -1208.25 0 0 0 0.5 
804 2 2 1.82683 9.87749 1.6603 -98 -1 0 534.464 -8.18013 -11.7286 -539.941 -75.7956 1637.42 0 0 0 0.5 
497 1 1 1.69452 9.59502 0.118926 131 0 1 523.963 -33.083 6.26599 -193.709 -1110.49 979.98 0 0 0 0.5 
850 2 2 4.58106 7.74543 0.171034 66 0 1 309.345 5.02997 -6.97821 -3101.69 1515.61 -505.756 0 0 0 0.5 
533 2 2 3.8689 5.65492 0.583763 175 1 0 112.267 -12.0061 -7.77557 -1803.81 513.831 -755.417 0 0 0 0.5 
297 1 1 0.346998 8.88287 0.11016 97 0 0 388.38 5.20861 -4.99285 1121.89 1299.62 -968.352 0 0 0 0.5 
334 1 1 0.0470492 8.33586 0.815512 35 0 0 354.707 -3.53798 -4.42812 -405.009 -599.409 -1374.16 0 0 0 0.5 
4 1 1 2.96292 9.51946 0.693427 -103 -1 0 502.946 -2.23235 3.532 753.943 -300.612 226.366 0 0 0 0.5 
796 2 2 2.08293 5.72422 1.52013 17 0 0 72.5477 -10.2618 -6.5534 1623.18 -668.184 2221.13 0 0 0 0.5 
430 1 1 2.16718 6.59029 1.767 -23 0 1 153.348 40.1299 -25.2851 404.606 148.11 -2089.21 0 0 0 0.5 
164 1 1 0.0405515 5.86139 0.475522 35 0 0 104.966 -20.675 11.4686 -1615.41 -161.019 -349.2 0 0 0 0.5 
563 2 2 0.869965 5.58329 1.64027 8 0 1 29.887 23.0245 -15.3766 260.371 30.9469 -1709.96 0 0 0 0.5 
312 1 1 1.82474 5.70851 0.743366 -9 0 1 99.6296 17.4326 8.09513 854.93 -936.857 -1179.49 0 0 0 0.5 
683 2 2 1.15836 6.78637 1.87714 16 0 0 160.209 0.143981 3.95252 -1986.25 697.188 -35.4464 0 0 0 0.5 
447 1 1 0.132363 7.35118 0.926314 52 0 1 209.125 -5.84992 8.90457 374.512 -1678.25 -1977.15 0 0 0 0.5 