ITEM: TIMESTEP
12000
ITEM: NUMBER OF ATOMS
1000
ITEM: BOX BOUNDS xy xz yz pp pp pp
0 10 0
0 10 0
-0 10 0
ITEM: ATOMS id type type x y z ix iy iz vx vy vz fx fy fz omegax omegay omegaz radius 
535 2 2 1.18277 0.0394624 0.0889671 40 1 1 -548.463 2.6057 6.81571 113.955 230.115 -555.643 0 0 0 0.5 
800 2 2 1.31621 1.07336 1.09326 60 1 0 -410.344 6.89364 -13.4687 2470.02 -1084.01 2044.18 0 0 0 0.5 
10 1 1 0.0529808 1.9007 0.164384 -21 0 1 -299.325 -12.3827 -20.9824 2119.05 -2274.66 -1396.96 0 0 0 0.5 
13 1 1 2.48688 4.08466 0.545069 -25 0 0 -61.2515 -2.93295 -12.8389 -316.136 46.6536 63.9427 0 0 0 0.5 
487 1 1 1.98941 2.6976 0.174544 -33 0 0 -220.266 3.96704 12.6947 2495.23 -652.991 -1415.49 0 0 0 0.5 
747 2 2 0.565256 0.826525 1.40027 -52 0 1 -414.789 13.2666 -17.8206 32.6378 -2918.32 1542.99 0 0 0 0.5 
774 2 2 3.70295 1.76157 0.537501 -15 0 1 -261.052 -11.7118 0.464487 -1975.92 -1402.77 -1496.88 0 0 0 0.5 
881 2 2 4.86154 4.2105 0.413222 1 0 0 -34.6326 -7.96763 21.1174 -898.797 814.987 564.234 0 0 0 0.5 
531 2 2 0.381532 2.85476 1.73437 -17 0 0 -228.065 21.8591 8.78234 2188.33 -2997.26 270.849 0 0 0 0.5 
559 2 2 1.27144 1.81965 1.51273 -51 0 1 -318.592 24.2247 -20.6753 3409.98 -223.76 -498.292 0 0 0 0.5 
826 2 2 0.305405 1.64963 0.959519 45 1 0 -317.471 6.22766 -8.25444 -161.199 -2374.01 -334.43 0 0 0 0.5 
819 2 2 4.81007 2.77419 0.587352 -9 0 1 -198.197 -9.48855 9.76294 -1784.06 -669.163 993.175 0 0 0 0.5 
655 2 2 0.358929 0.0603823 1.84542 -64 0 1 -494.512 3.54602 -10.482 654.15 -473.496 -1367.73 0 0 0 0.5 
807 2 2 0.556398 2.05801 1.72356 -8 0 0 -285.778 4.15301 -0.211673 -386.377 223.507 171.212 0 0 0 0.5 
35 1 1 2.08894 0.612961 1.4731 -33 0 1 -433.538 -1.04677 16.9097 291.111 -173.444 143.093 0 0 0 0.5 
583 2 2 1.21475 2.95135 0.726868 -17 0 1 -140.559 -10.6888 16.9334 -1569.72 365.934 2564.5 0 0 0 0.5 
96 1 1 2.24311 2.37433 1.10372 -8 0 1 -186.034 -17.0254 9.35606 -109.828 -53.048 -51.0771 0 0 0 0.5 
506 2 2 2.24741 1.32249 0.185576 -14 0 0 -309.572 -0.238067 22.8106 0 0 0 0 0 0 0.5 
636 2 2 0.95008 1.27737 0.224076 -24 0 1 -338.535 7.40307 24.9195 -1371.57 764.262 -3256.12 0 0 0 0.5 
264 1 1 1.46068 4.97401 0.0454364 -1 0 0 1.94093 -6.95251 -8.00243 1154.39 130.378 -172.846 0 0 0 0.5 
136 1 1 3.17089 4.28128 1.68034 -15 0 0 -37.2299 20.3919 -9.58902 454.888 -1442.26 -1042.29 0 0 0 0.5 
99 1 1 3.39629 1.0308 0.0711931 -8 0 0 -340.341 -9.49856 4.60029 -3080.32 1742.99 -1683.44 0 0 0 0.5 
538 2 2 0.0777132 2.62254 0.997089 56 1 0 -197.473 -23.7456 -18.4367 -545.799 3219.88 -563.787 0 0 0 0.5 
134 1 1 0.514551 3.26621 0.392591 -12 0 1 -141.941 -19.554 3.28551 -31.7485 -952.06 -271.527 0 0 0 0.5 
759 2 2 0.902427 3.71238 1.31453 -11 0 0 -99.8734 5.08163 -1.1282 -170.261 -718.917 -290.716 0 0 0 0.5 
623 2 2 4.03961 1.53697 1.59763 -10 0 1 -256.897 -21.2894 26.1615 -733.458 -2027.45 -655.407 0 0 0 0.5 
903 2 2 3.19666 2.36866 0.801739 -6 0 0 -227.881 -15.5711 -4.06677 -1848.25 642.603 552.258 0 0 0 0.5 
16 1 1 4.79987 0.259771 1.289 -35 0 0 -456.496 -17.87 19.9893 -2775.53 68.9124 1957.94 0 0 0 0.5 
473 1 1 1.66185 4.50606 1.81852 3 0 0 -51.0191 -3.90068 3.9755 427.496 -829.339 -203.715 0 0 0 0.5 
138 1 1 -0.0274728 3.52626 1.46418 -5 0 1 -113.065 11.137 6.15601 -1813.07 4120.69 -1459.75 0 0 0 0.5 
739 2 2 3.28134 4.8736 0.217819 3 0 1 17.6748 -12.2873 -2.46511 365.567 -148.957 71.7432 0 0 0 0.5 
100 1 1 0.0806717 4.76558 1.74391 -3 0 0 1.91584 -12.5567 -3.4049 -34.3152 1173.5 -544.258 0 0 0 0.5 
579 2 2 3.84582 2.4494 1.68762 -7 0 0 -165.408 -14.3554 -13.3394 184.965 1277.69 390.189 0 0 0 0.5 
102 1 1 3.66823 3.52033 0.543374 2 0 0 -130.87 6.33652 -12.6303 -2007.61 708.599 -297.107 0 0 0 0.5 
849 2 2 4.40697 3.31392 0.415797 -9 0 1 -138.066 14.6493 -12.0596 -342.244 2007.07 -880.746 0 0 0 0.5 
342 1 1 4.5668 3.77465 1.25018 -7 0 1 -121.076 0.143966 -12.8145 253.503 381.73 555.915 0 0 0 0.5 
360 1 1 4.02587 0.663134 0.323685 -30 0 1 -381.173 -14.529 32.6168 2006.77 -2195.23 -58.3885 0 0 0 0.5 
984 2 2 3.6446 0.323029 1.62703 36 1 1 -438.282 17.0462 -1.70788 1394.93 593.368 1750.85 0 0 0 0.5 
882 2 2 3.56299 2.62227 0.104265 -5 0 0 -200.736 15.0066 -1.35101 2886.15 -3184.6 1414.46 0 0 0 0.5 
871 2 2 1.54559 4.22357 0.735457 -7 0 0 -71.9657 -15.5304 3.66322 326.89 35.3111 60.2379 0 0 0 0.5 
27 1 1 4.42097 1.6184 0.661913 -22 0 1 -270.453 16.9921 -4.89506 1702.57 1361.99 -800.472 0 0 0 0.5 
921 2 2 3.11815 0.486755 0.885468 -16 0 1 -410.709 -11.3225 15.0158 -1464.91 455.588 -2063.48 0 0 0 0.5 
228 1 1 3.22258 1.56053 1.36953 -37 0 1 -274.255 -27.1733 5.49691 -89.1862 616.578 -906.61 0 0 0 0.5 
231 1 1 3.06875 2.77313 1.4877 -21 0 1 -189.04 -16.3771 11.6485 -348.669 930.907 536.322 0 0 0 0.5 
530 2 2 3.09043 3.53116 1.29991 -7 0 1 -128.136 14.1421 -21.5776 -612.15 -327.5 479.131 0 0 0 0.5 
590 2 2 4.14793 4.41604 0.83288 4 0 0 -59.5731 3.30721 1.18137 -1128.44 2722.49 -135.088 0 0 0 0.5 
108 1 1 4.67924 0.948891 0.905989 -19 0 1 -374.871 -5.82599 14.1577 980.727 -625.404 749.197 0 0 0 0.5 
796 2 2 4.84087 4.62153 1.51933 6 0 0 -13.5361 -3.11538 -3.90266 -661.715 -1885.74 -948.816 0 0 0 0.5 
196 1 1 4.90539 1.78743 1.45403 66 1 0 -275.544 20.195 -14.3458 -57.5699 1716.2 684.887 0 0 0 0.5 
280 1 1 2.33378 1.3458 3.25563 -24 0 0 -292.508 -9.74059 10.1555 848.159 -422.067 1738.55 0 0 0 0.5 
145 1 1 0.0411922 0.557234 3.36692 37 1 0 -423.378 -4.79235 17.723 -1506.68 -3366.67 -23.6236 0 0 0 0.5 
586 2 2 0.853967 0.540335 3.57737 37 1 0 -430.408 15.8238 11.15 -278.471 -143.764 -1051.56 0 0 0 0.5 
151 1 1 0.15453 1.61035 2.58835 -12 0 0 -291.676 -20.3224 2.43528 -701.635 824.881 -90.488 0 0 0 0.5 
505 2 2 4.48132 0.723165 2.58767 -17 0 0 -414.564 11.8136 -7.96252 -799.214 34.9783 605.651 0 0 0 0.5 
461 1 1 1.28355 2.60139 2.72098 50 1 0 -239.599 14.5146 -11.01 501.78 886.894 -1543.38 0 0 0 0.5 
204 1 1 4.43045 0.063318 3.25163 -53 0 0 -421.257 -7.05295 -6.00754 -518.845 206.81 -292.893 0 0 0 0.5 
772 2 2 2.69923 2.78474 2.36763 -11 0 1 -184.602 -12.2905 5.94443 -83.1387 209.17 260.491 0 0 0 0.5 
548 2 2 0.892617 1.59732 2.42697 -27 0 0 -291.863 -2.65469 9.62809 -392.406 1390.94 57.482 0 0 0 0.5 
519 2 2 2.39693 4.16716 2.20492 -8 0 0 -47.7938 -19.7917 -18.0385 -245.385 -299.951 -69.5164 0 0 0 0.5 
667 2 2 0.839635 2.4327 3.42951 -37 0 0 -224.168 -5.01053 -7.58329 -462.45 -528.719 -54.9773 0 0 0 0.5 
429 1 1 2.44347 3.62413 3.59694 -14 0 0 -68.3623 -12.7648 13.1317 -621.656 -1.63359 -278.589 0 0 0 0.5 
275 1 1 4.6697 3.07116 2.38006 -7 0 0 -150.709 -21.2033 -21.1525 -31.4977 -2332.84 2019.81 0 0 0 0.5 
94 1 1 3.74601 2.82925 3.5106 -13 0 0 -174.342 5.54434 4.68123 -1641.36 1858.33 -380.471 0 0 0 0.5 
428 1 1 4.31842 2.19054 3.62727 -10 0 0 -213.644 -13.5175 -3.20683 -187.302 -1108.52 -66.0421 0 0 0 0.5 
629 2 2 1.56346 1.1403 2.27142 -29 0 0 -342.723 -13.335 -23.4663 -233.557 -2144.14 -1219.19 0 0 0 0.5 
159 1 1 0.129471 0.795167 2.19013 43 1 0 -384.545 5.53329 1.0692 197.436 607.81 1014.73 0 0 0 0.5 
25 1 1 0.820855 1.49029 3.66774 -32 0 0 -278.809 -14.3809 6.39103 -2.15029 2619.99 72.6745 0 0 0 0.5 
178 1 1 2.45653 4.81531 3.7083 8 0 0 5.26824 15.049 -13.0774 -554.954 932.159 -1127.15 0 0 0 0.5 
973 2 2 3.48305 1.88757 3.79681 -10 0 0 -220.26 -30.636 8.1903 -284.476 -500.006 -1111.97 0 0 0 0.5 
886 2 2 3.32301 0.94239 2.25253 64 1 0 -404.332 12.4587 23.8085 738.613 14.893 118.872 0 0 0 0.5 
12 1 1 1.57288 1.81893 3.07334 -34 0 0 -285.12 -1.31862 -4.0353 6.21139 -189.195 556.417 0 0 0 0.5 
933 2 2 1.83449 3.92993 2.98134 -1 0 0 -63.137 -1.85768 -23.2379 398.597 25.8882 623.703 0 0 0 0.5 
804 2 2 0.223402 2.53109 2.64353 -57 0 0 -224.996 -2.71563 -18.6995 2850.78 -3059.89 -2297.94 0 0 0 0.5 
828 2 2 1.43196 3.34421 2.36116 -16 0 1 -128.271 22.9688 -11.1569 1033.74 -328.138 -131.729 0 0 0 0.5 
249 1 1 2.45365 1.2433 2.45722 -27 0 1 -396.192 13.9782 19.0967 2465.98 233.917 -2418.14 0 0 0 0.5 
650 2 2 0.704487 4.38997 2.01011 -5 0 0 -48.1219 9.93363 -13.0158 3458.52 -2065.82 2705.59 0 0 0 0.5 
430 1 1 2.8787 2.50182 3.24699 -7 0 0 -185.603 -20.1158 3.67681 -750.881 1466.88 1379.5 0 0 0 0.5 
914 2 2 0.614482 3.54179 2.24212 -4 0 0 -140.058 2.7625 -5.07928 3852.28 123.11 -1799 0 0 0 0.5 
932 2 2 0.566761 4.16857 2.91517 -3 0 0 -46.5226 7.82312 7.25445 -314.965 -1775.7 28.3326 0 0 0 0.5 
361 1 1 3.29201 4.06634 3.48671 -8 0 0 -81.6362 11.8168 5.19849 36.3719 1494.78 141.904 0 0 0 0.5 
6 1 1 4.0524 4.51742 2.67018 -7 0 0 -52.2581 -3.24365 9.33468 -2923.78 1207.32 1448.1 0 0 0 0.5 
298 1 1 4.01267 1.61407 2.81397 -37 0 0 -240.94 -44.204 18.5119 439.102 -1200.16 896.784 0 0 0 0.5 
273 1 1 3.1849 0.999874 3.48212 -37 0 1 -292.146 -24.1823 -0.588462 -1070.93 4556.56 -77.5835 0 0 0 0.5 
364 1 1 0.516977 3.19475 3.71898 -5 0 0 -174 34.0271 34.7078 2613.3 -3882.4 104.676 0 0 0 0.5 
803 2 2 1.57712 0.0238592 3.49115 29 1 0 -469.48 3.85807 11.4163 241.669 1006.43 -262.527 0 0 0 0.5 
836 2 2 4.63717 1.12184 3.74712 42 1 0 -337.506 9.13752 -11.1289 -1382.12 782.477 -152.089 0 0 0 0.5 
761 2 2 3.55557 0.129631 3.58131 -31 0 0 -439.441 -9.11491 0.0779452 2012.63 -3923.03 311.061 0 0 0 0.5 
943 2 2 4.24696 3.81365 2.09449 -9 0 0 -111.17 -18.4977 -12.3696 -1257.67 1722.28 207.976 0 0 0 0.5 
465 1 1 3.63235 4.93713 3.69492 6 0 0 34.8028 -9.39255 -27.8565 -249.058 807.156 -1419.29 0 0 0 0.5 
919 2 2 3.83254 3.60657 2.94229 0 0 0 -89.0714 4.52497 6.08836 -1945.83 -713.442 -1804.68 0 0 0 0.5 
999 2 2 2.10436 4.88238 2.75324 -9 0 0 1.39523 -1.78576 7.63382 230.758 -1337.35 -853.476 0 0 0 0.5 
147 1 1 3.34815 1.98711 2.74501 -42 0 0 -246.398 -28.8398 -7.58104 563.273 940.571 -2066.1 0 0 0 0.5 
101 1 1 0.144333 3.27795 2.97381 -3 0 0 -135.17 12.627 -2.81395 3188.42 -1101.04 1257.45 0 0 0 0.5 
391 1 1 -0.0288425 3.9541 3.60324 1 0 0 -52.9986 -15.7945 5.64544 -3240.2 5696.54 -463.395 0 0 0 0.5 
659 2 2 3.62621 2.84315 2.52689 -6 0 0 -165.235 -2.02072 -6.07126 -712.586 -1392.57 876.706 0 0 0 0.5 
95 1 1 3.13285 4.19513 2.64717 -3 0 0 -47.2303 3.17339 -12.7913 -943.205 1000.91 -394.75 0 0 0 0.5 
142 1 1 4.59264 1.87543 2.35027 -20 0 0 -265.543 14.7727 -6.62305 -882.284 2144.08 281.383 0 0 0 0.5 
717 2 2 4.64938 3.2525 3.32754 -26 0 0 -163.579 4.14334 -27.7311 2398.71 -950.475 1980.25 0 0 0 0.5 
937 2 2 4.79641 4.31376 3.97504 -7 0 0 -91.0502 -6.42647 -13.182 -545.356 2160.88 -87.4585 0 0 0 0.5 
731 2 2 4.84745 4.22392 2.48604 90 1 0 -101.241 7.57537 14.6696 1469.08 -135.766 -1129.3 0 0 0 0.5 
236 1 1 2.09375 0.162979 5.39922 -24 0 0 -520.43 31.6116 -18.2888 102.615 -186.098 37.1482 0 0 0 0.5 
1 1 1 4.05292 0.0527566 5.02357 -53 0 -1 -472.706 9.92737 -10.8462 162.82 -1783.33 -1388.48 0 0 0 0.5 
67 1 1 0.859438 1.0739 4.56607 58 1 0 -344.206 -16.6449 14.1995 -114.093 -443.146 -365.777 0 0 0 0.5 
497 1 1 4.23174 0.975114 4.59055 47 1 0 -358.945 16.9222 -14.1325 3924.71 64.3359 761.236 0 0 0 0.5 
217 1 1 2.50077 3.33644 5.28722 -9 0 0 -135.692 -3.77815 -1.60355 -104.546 477.264 -759.871 0 0 0 0.5 
163 1 1 1.06559 0.135871 4.32325 33 1 0 -507.091 -15.2055 2.89821 2927.13 736.589 -94.8439 0 0 0 0.5 
646 2 2 1.96423 2.42377 4.20089 -9 0 0 -193.732 1.91341 0.942575 763.589 -1267.41 141.827 0 0 0 0.5 
304 1 1 0.556508 1.74157 4.56294 -15 0 0 -275.937 16.603 0.309306 4103.51 -2160.16 -1281.01 0 0 0 0.5 
722 2 2 0.135861 0.641111 5.23746 -31 0 0 -429.905 2.65545 3.92491 -75.7248 -1982.78 707.831 0 0 0 0.5 
80 1 1 1.79061 3.65222 4.68768 -2 0 0 -125.581 16.8633 -13.2653 -165.919 -534.312 -445.516 0 0 0 0.5 
868 2 2 1.84251 1.62059 4.0397 -13 0 1 -288.368 -23.0853 -19.7468 -814.654 1076.33 1698.25 0 0 0 0.5 
564 2 2 2.05721 4.39774 5.45376 -1 0 0 -49.0352 -2.0493 -17.9622 -6.364 1304.16 -1051.64 0 0 0 0.5 
411 1 1 0.598885 2.4701 4.22277 -13 0 0 -180.73 23.9884 5.77066 43.7552 216.535 1660.97 0 0 0 0.5 
594 2 2 3.89896 0.89488 5.31701 -18 0 0 -362.076 -16.9561 -1.14817 -301.863 469.774 2927.65 0 0 0 0.5 
539 2 2 2.63853 1.67541 4.46654 -32 0 0 -280.867 -7.88855 6.14673 -985.069 -526.271 -1486.82 0 0 0 0.5 
243 1 1 1.59074 2.51954 5.89695 -12 0 0 -173.833 -4.55631 -18.67 202.196 -35.5364 406.63 0 0 0 0.5 
600 2 2 1.44683 3.0547 4.02053 -2 0 1 -187.721 17.2786 -13.8264 973.679 1088.66 749.937 0 0 0 0.5 
19 1 1 0.872636 1.81241 5.49223 -23 0 0 -282.929 9.50787 6.41678 60.7749 -643.279 273.933 0 0 0 0.5 
584 2 2 2.88375 0.782795 5.99067 -10 0 0 -345.018 6.61639 -18.9742 -3817.8 2347.15 -239.823 0 0 0 0.5 
750 2 2 2.35137 2.25663 5.09192 -25 0 0 -218.151 -7.87343 13.1562 -1190.49 1031.99 1247.36 0 0 0 0.5 
895 2 2 2.21809 1.43766 5.70403 -41 0 0 -311.572 11.1573 -10.2589 -879.942 995.759 -1277.94 0 0 0 0.5 
611 2 2 4.51103 4.43593 4.8864 -3 0 0 -32.7713 -14.1921 9.04441 1333.81 -1947.62 108.738 0 0 0 0.5 
854 2 2 4.15538 3.52387 4.08205 -8 0 0 -139.253 2.55002 13.8047 1937.51 -1169.42 -2805.04 0 0 0 0.5 
708 2 2 1.46544 0.870047 4.36744 -42 0 0 -353.337 -2.81258 1.97792 2069.11 -3645.02 -1256.4 0 0 0 0.5 
956 2 2 1.24408 2.62366 5.01106 -24 0 0 -172.922 0.802767 -22.353 -87.6406 26.3237 -223.965 0 0 0 0.5 
117 1 1 0.128765 1.36695 5.05412 -17 0 0 -285.838 -6.27529 1.07661 -368.518 1464.44 2252.44 0 0 0 0.5 
863 2 2 0.0304086 2.38431 5.65625 -16 0 0 -175.344 -8.27774 4.05273 297.955 -259.901 461.294 0 0 0 0.5 
653 2 2 3.45078 1.32388 4.57372 57 1 0 -294.509 -12.9211 4.46702 -4300.68 1861.29 -752.151 0 0 0 0.5 
939 2 2 3.81949 4.53188 4.41097 1 0 0 -23.5022 -23.2718 -15.6895 -1139.56 -289.333 1121.72 0 0 0 0.5 
705 2 2 4.29267 3.47885 5.1588 2 0 0 -132.033 9.49455 7.43282 -1468.58 359.718 1389.99 0 0 0 0.5 
678 2 2 2.74641 4.32839 4.29707 -4 0 0 -52.4382 1.56464 11.2003 -1354.47 1039.59 -408.78 0 0 0 0.5 
314 1 1 3.51513 1.55287 5.57609 -15 0 0 -330.329 11.9034 -5.51791 -883.866 170.982 -11.6173 0 0 0 0.5 
149 1 1 0.661043 4.20005 4.04822 -2 0 0 -42.1546 1.94771 -14.6987 2435.02 -1335.21 -30.4746 0 0 0 0.5 
348 1 1 0.296539 4.64226 5.91421 -4 0 0 -0.899335 0.217395 -2.37703 1083.49 -939.567 -545.636 0 0 0 0.5 
154 1 1 0.145801 4.77081 4.34832 2 0 0 -10.7553 3.71249 9.45729 1281.15 -429.495 149.562 0 0 0 0.5 
291 1 1 4.05496 2.49376 4.91284 -15 0 0 -220.439 10.017 -3.40562 2122.12 112.696 -400.914 0 0 0 0.5 
714 2 2 0.671027 3.52286 4.66463 81 1 0 -122.798 -10.4995 2.16372 1537.78 -1865.18 -1431.31 0 0 0 0.5 
201 1 1 3.57204 2.37194 5.89535 -25 0 0 -206.156 -3.99259 10.9017 2160.49 393.963 -205.489 0 0 0 0.5 
33 1 1 4.77886 0.955855 5.49594 56 1 0 -367.811 12.87 11.1541 1039.99 72.0696 211.486 0 0 0 0.5 
743 2 2 2.93128 2.61185 4.13701 -15 0 0 -186.739 -2.98591 4.90673 262.829 1463.55 1534.46 0 0 0 0.5 
358 1 1 3.21883 3.74915 4.29831 -4 0 0 -70.8497 -11.2946 -8.08713 -2052.71 686.84 866.183 0 0 0 0.5 
668 2 2 2.92146 2.7171 5.89192 -7 0 0 -171.83 -11.2805 4.39596 -3931.21 1287.1 305.524 0 0 0 0.5 
867 2 2 0.180358 4.16213 5.0798 -22 0 0 -52.2627 -6.59574 0.619384 396.668 903.541 974.391 0 0 0 0.5 
767 2 2 3.24464 2.45072 5.06593 -17 0 0 -210.698 -23.6292 -2.85429 -1205.61 -1017 54.0209 0 0 0 0.5 
658 2 2 1.27954 4.09411 5.88605 -3 0 0 -39.4422 -20.0887 9.02956 86.4256 -43.7132 -144.156 0 0 0 0.5 
256 1 1 3.3352 3.20544 4.79614 -12 0 0 -111.136 -4.33272 16.806 -635.006 -1991.62 257.188 0 0 0 0.5 
816 2 2 3.63517 4.1726 5.52802 -5 0 0 -43.4592 -7.29384 11.4544 1272.22 -506.764 -971.116 0 0 0 0.5 
340 1 1 2.88829 4.35804 5.14121 -5 0 0 -29.2075 0.195037 5.1969 144.05 -1125.28 1062 0 0 0 0.5 
216 1 1 4.55856 0.40113 4.1946 -28 0 0 -413.21 -8.23727 -1.84094 -1061.9 1191.44 -640.316 0 0 0 0.5 
522 2 2 4.70535 4.25904 5.84153 -5 0 0 -58.4676 -17.153 3.82928 -1045.56 1284.83 -766.597 0 0 0 0.5 
511 2 2 4.92769 3.32331 4.55776 -11 0 -1 -160.805 12.8032 1.92337 3895.91 2360.7 -58.9395 0 0 0 0.5 
958 2 2 3.95146 1.14868 7.50589 40 1 0 -376.436 11.551 19.3005 1574.12 -1830.66 535.617 0 0 0 0.5 
384 1 1 2.48603 1.02877 7.60301 -21 0 0 -418.568 15.8978 -24.6753 -501.15 318.07 -941.901 0 0 0 0.5 
968 2 2 0.00853557 0.458054 6.18893 50 1 0 -486.123 43.9186 19.6424 202.763 258.33 1952.55 0 0 0 0.5 
265 1 1 3.16769 2.14816 7.71907 -11 0 0 -167.234 -37.5308 4.5441 530.712 -748.466 -143.47 0 0 0 0.5 
4 1 1 4.17631 0.314241 6.14657 -52 0 -1 -445.38 16.8077 2.39908 2514.47 -1687.4 1259.75 0 0 0 0.5 
979 2 2 0.205186 0.0177637 7.81219 20 1 0 -499.664 -1.31066 -5.03122 0 0 0 0 0 0 0.5 
852 2 2 0.876567 1.68083 6.67517 -37 0 0 -283.892 4.0346 0.0233447 468.525 270.504 703.986 0 0 0 0.5 
259 1 1 1.9922 0.566544 6.86695 -25 0 -1 -413.64 3.65541 -24.8871 356.497 733.914 -1129.03 0 0 0 0.5 
635 2 2 2.40112 0.11942 7.15959 -38 0 0 -409.551 -21.5096 21.3423 -513.875 -2229.18 1574.59 0 0 0 0.5 
366 1 1 2.61587 4.3236 6.1318 -4 0 0 -31.7062 2.27751 -9.54094 2144.64 -1399.16 -1361.28 0 0 0 0.5 
839 2 2 2.46533 2.53808 7.577 -18 0 0 -176.393 -22.8174 11.5828 -852.935 1440.43 -653.527 0 0 0 0.5 
888 2 2 0.268236 1.47415 7.53471 70 1 0 -326.459 -14.1791 -17.0415 -316.923 -613.66 -10.8035 0 0 0 0.5 
379 1 1 0.551687 0.712828 6.94934 -12 0 0 -355.09 -10.655 -2.0761 -4400.37 -486.777 -3248.41 0 0 0 0.5 
237 1 1 2.62502 3.42614 7.47736 -7 0 0 -112.041 2.2071 0.861468 -579.784 -461.725 -595.479 0 0 0 0.5 
862 2 2 2.0905 2.47935 6.69384 -28 0 0 -189.102 -0.49278 9.09603 -144.767 4.47892 -253.846 0 0 0 0.5 
329 1 1 1.31204 0.708464 7.3473 -18 0 0 -404.801 1.5839 -1.47192 1586.76 85.808 1257.68 0 0 0 0.5 
198 1 1 2.93932 4.17596 6.95536 -1 0 0 -43.4956 -1.07284 -1.94874 -2384.97 -812.913 1277.57 0 0 0 0.5 
148 1 1 1.10531 3.14933 6.61379 -8 0 0 -152.898 3.61362 -0.854717 0 0 0 0 0 0 0.5 
557 2 2 0.819289 0.0349119 6.14652 23 1 0 -528.168 23.2349 0.969845 2022.01 -1040.99 -84.6776 0 0 0 0.5 
754 2 2 0.090752 2.09739 6.9357 -17 0 0 -268.54 14.4388 -19.4963 -3.88304 241.632 -86.8454 0 0 0 0.5 
766 2 2 1.68208 1.65514 7.77323 -11 0 0 -323.031 25.1108 -11.5593 355.109 -1394.81 -801.429 0 0 0 0.5 
568 2 2 2.15087 1.36986 6.60066 -11 0 0 -321.12 20.3114 -8.01456 -74.7043 -113.529 886.728 0 0 0 0.5 
860 2 2 2.25544 4.46965 7.35315 3 0 0 -42.0035 -9.29346 1.06354 -1070.08 663.089 1081.22 0 0 0 0.5 
437 1 1 4.64041 0.0152749 7.46127 -36 0 0 -469.106 -14.8869 -11.3297 -897.453 -1343.06 -2824.21 0 0 0 0.5 
790 2 2 4.06181 0.313096 7.76199 -26 0 0 -464.71 -11.2606 23.9896 -188.141 118.676 1468.47 0 0 0 0.5 
565 2 2 3.82324 2.23187 6.77916 -8 0 0 -223.298 -8.6159 -4.35872 29.6929 628.128 -1016.43 0 0 0 0.5 
460 1 1 1.90697 3.93311 6.65255 2 0 0 -28.2946 -34.6477 -0.521482 484.831 1364.59 -503.163 0 0 0 0.5 
786 2 2 3.40561 1.32635 6.97341 -31 0 1 -324.636 -11.2417 -9.55438 -2012.9 1150.69 -228.929 0 0 0 0.5 
347 1 1 3.83633 4.7555 6.29302 2 0 0 -4.39554 -9.57704 -12.0744 2523.57 -697.047 2338.23 0 0 0 0.5 
927 2 2 4.63545 4.85874 6.60052 2 0 0 -5.4409 -2.53342 5.03901 831.376 -307.845 168.14 0 0 0 0.5 
326 1 1 1.97606 4.88637 6.448 6 0 0 31.8397 -12.0469 -0.351605 -1690.86 -10.2959 1562.27 0 0 0 0.5 
476 1 1 3.64858 4.48644 7.31034 5 0 0 -77.5962 32.3478 12.373 768.081 1565.63 501.178 0 0 0 0.5 
838 2 2 0.371742 4.46361 7.63469 -1 0 0 -13.8655 -3.73549 30.3075 -312.826 17.8979 -410.821 0 0 0 0.5 
509 2 2 4.42575 2.27048 6.06273 -24 0 0 -215.093 5.44414 -18.739 865.558 91.7845 -1674.81 0 0 0 0.5 
23 1 1 1.30145 1.1682 6.05831 -17 0 0 -300.067 -16.7881 26.0152 443.711 -439.71 -1540.48 0 0 0 0.5 
861 2 2 1.39795 4.54015 7.88197 2 0 0 -12.3226 -22.5416 -17.3435 1132.57 -1748.53 122.565 0 0 0 0.5 
890 2 2 3.73849 3.88338 6.4709 1 0 0 -90.9017 17.042 1.43913 1469.35 -2155.26 -342.061 0 0 0 0.5 
352 1 1 2.98766 2.00665 6.53805 -8 0 0 -245.067 -25.8258 -9.3405 -961.235 2381.2 -1446.16 0 0 0 0.5 
351 1 1 4.28287 3.91364 7.21689 -5 0 0 -94.3315 7.72865 2.31531 -503.058 1818.97 -350.221 0 0 0 0.5 
65 1 1 0.661609 4.19803 6.65788 1 0 0 -24.8059 -9.92329 15.3217 450.147 -214.392 111.791 0 0 0 0.5 
569 2 2 4.63587 1.84868 7.21942 72 1 -1 -260.362 -6.83698 -9.20191 -684.613 3468.08 -1141.76 0 0 0 0.5 
876 2 2 4.164 2.19812 7.54563 -5 0 0 -227.104 11.3899 -1.21547 -122.022 -79.8876 1648.19 0 0 0 0.5 
613 2 2 4.64046 3.03742 7.27055 -6 0 0 -200.856 5.26784 6.03153 1548.95 -857.023 1288.13 0 0 0 0.5 
924 2 2 3.72034 2.97442 7.37711 -13 0 0 -202.578 -4.55918 -5.51041 -579.908 -649.75 -1535.94 0 0 0 0.5 
250 1 1 2.90692 3.46173 6.35097 -5 0 0 -85.9865 -15.7243 17.6229 -90.5683 130.697 248.015 0 0 0 0.5 
418 1 1 3.45747 0.388061 6.06858 -15 0 0 -426.295 -14.7202 -8.16284 1014.74 -2207.42 513.7 0 0 0 0.5 
661 2 2 3.46213 3.51579 7.8448 -7 0 -1 -112.956 0.551928 8.49069 1133.87 714.864 854.067 0 0 0 0.5 
502 2 2 3.67557 0.401627 6.97966 -27 0 0 -457.354 3.16367 12.9923 -376.328 1476.93 249.371 0 0 0 0.5 
503 2 2 4.05886 3.06568 6.34403 -16 0 0 -122.664 -1.94446 -8.68433 -1959.07 -365.351 748.002 0 0 0 0.5 
206 1 1 4.03371 1.27699 6.32814 -18 0 0 -318.199 -12.2949 -13.8838 798.5 2908.97 184.552 0 0 0 0.5 
312 1 1 4.75169 4.63859 7.91 0 0 0 -45.5721 -0.677321 3.67597 -842.529 1027.43 -430.107 0 0 0 0.5 
247 1 1 4.89777 1.66025 6.36919 -36 0 0 -295.579 -0.24895 -16.9703 1289.86 -1632.76 -584.199 0 0 0 0.5 
223 1 1 4.92189 3.75347 7.76971 -11 0 -1 -104.529 6.86837 20.1669 -292.043 253.293 -1082.05 0 0 0 0.5 
495 1 1 0.834704 1.67688 8.10235 -14 0 0 -328.07 21.6049 1.89794 97.2508 127.489 815.597 0 0 0 0.5 
526 2 2 1.84857 1.35399 8.75492 -26 0 0 -359.543 22.7119 -1.06847 3077.88 13.4808 -1329.56 0 0 0 0.5 
318 1 1 2.60759 2.00618 8.81391 -10 0 0 -258.215 -11.7018 -19.511 998.987 -694.854 515.372 0 0 0 0.5 
335 1 1 1.92027 2.33851 9.25926 -21 0 0 -218.246 -8.60073 22.9382 -1679.27 336.638 1225.37 0 0 0 0.5 
619 2 2 2.65465 2.78126 8.50617 -4 0 0 -156.634 -14.1751 0.680839 -842.154 -435.473 -835.978 0 0 0 0.5 
359 1 1 4.65319 4.00569 9.41547 -6 0 -1 -59.7682 -26.0291 3.9181 -1399.56 2482.27 -388.421 0 0 0 0.5 
66 1 1 2.75447 2.4212 9.6889 -8 0 0 -216.891 4.08105 13.4007 528.652 1638.92 -1083.83 0 0 0 0.5 
779 2 2 1.49246 3.67304 9.94017 -3 0 -1 -99.4405 -18.279 3.68302 1198.94 -687.573 -18.1117 0 0 0 0.5 
916 2 2 0.195337 2.49937 9.46598 -17 0 -1 -223.491 6.04467 -24.062 1734.86 -1695.9 1469.91 0 0 0 0.5 
809 2 2 1.23352 0.618445 9.34353 40 1 -1 -432.39 -3.2426 -8.09224 284.136 -2207.11 980.009 0 0 0 0.5 
596 2 2 0.994938 1.49728 9.03354 -18 0 0 -308.838 -3.46141 5.56223 -3925.6 2660.6 141.655 0 0 0 0.5 
783 2 2 2.3309 3.44764 8.40127 -11 0 0 -109.467 4.49158 7.72611 657.228 1763.72 -447.837 0 0 0 0.5 
762 2 2 2.1571 0.6625 9.06324 -38 0 -1 -423.742 -26.0142 12.5109 512.873 -552.199 171.201 0 0 0 0.5 
232 1 1 1.74634 2.39157 8.40671 -10 0 0 -148.273 -28.5524 4.05671 -307.252 952.431 -287.717 0 0 0 0.5 
637 2 2 3.00619 3.33896 9.78161 -14 0 0 -117.333 1.5392 37.853 -2361.5 1794.99 -1073.28 0 0 0 0.5 
480 1 1 4.5688 2.30071 8.91644 -13 0 0 -219.177 -13.0913 -4.39473 -135.197 74.0536 -140.497 0 0 0 0.5 
380 1 1 3.75071 2.25518 9.36806 -13 0 0 -238.868 -22.0646 -19.0779 -172.19 1775.57 1100.25 0 0 0 0.5 
618 2 2 3.35564 2.74394 8.7902 -4 0 0 -169.164 15.8127 27.2618 -667.791 2912.44 303.826 0 0 0 0.5 
119 1 1 2.16781 4.56081 9.37081 -5 0 -1 -56.3117 20.3137 6.41118 33.957 2028.54 1567.15 0 0 0 0.5 
760 2 2 4.47725 2.20466 9.88734 -14 0 0 -247.099 3.82362 -4.92922 -309.787 -571.493 -209.623 0 0 0 0.5 
567 2 2 2.60128 3.90724 9.19364 -1 0 0 -89.5361 -2.76995 7.74383 864.365 -1033.6 -561.072 0 0 0 0.5 
34 1 1 1.78879 0.776908 8.12475 55 1 0 -413.097 -3.91889 -8.2509 461.723 893.835 1051.67 0 0 0 0.5 
306 1 1 1.67405 0.0176275 8.40411 36 1 -1 -507.497 -8.83977 13.2445 -1209.91 1315.22 182.131 0 0 0 0.5 
270 1 1 4.19429 1.62813 8.19849 -20 0 0 -304.093 -1.86269 7.10156 -472.914 -1490.91 -477.073 0 0 0 0.5 
563 2 2 0.190191 3.6784 8.29893 -3 0 0 -100.327 -3.01077 4.20749 0 0 0 0 0 0 0.5 
393 1 1 0.637552 4.59563 9.2708 -9 0 -1 -34.5462 2.35514 7.14017 341.324 576.316 -17.35 0 0 0 0.5 
928 2 2 4.37 4.74331 9.89459 -5 0 -1 -25.3616 9.13674 -0.693936 -40.302 64.2293 -149.887 0 0 0 0.5 
612 2 2 3.82857 4.34815 8.20705 5 0 0 -41.2879 0.00507658 5.41647 440.07 164.642 1215.93 0 0 0 0.5 
966 2 2 1.37864 3.71534 8.29512 2 0 0 -76.7802 -24.04 -3.9747 -1955.89 271.189 -78.6361 0 0 0 0.5 
56 1 1 3.96824 3.49255 8.5332 -10 0 0 -120.607 3.93525 10.5976 -2269.66 265.57 1001.5 0 0 0 0.5 
811 2 2 1.3947 4.69471 8.89791 -1 0 0 -38.7213 6.91314 -18.0674 2363.76 -1914.77 -705.35 0 0 0 0.5 
308 1 1 4.63475 3.16896 8.54658 -3 0 0 -150.974 -1.51117 6.08961 2406.37 -1735.71 626.232 0 0 0 0.5 
120 1 1 4.79374 0.530433 8.37801 -32 0 -1 -412.845 -18.824 -4.41655 -580.106 -138.397 -530.155 0 0 0 0.5 
935 2 2 3.80084 2.43813 8.20165 -6 0 0 -185.009 16.5786 26.4306 -929.427 223.138 777.775 0 0 0 0.5 
864 2 2 3.93622 3.23181 9.39749 -9 0 0 -120.972 -14.1407 13.6387 -276.361 -1866.03 512.988 0 0 0 0.5 
842 2 2 4.20689 1.40764 9.56679 -18 0 0 -323.15 -10.6492 -24.3404 1674.68 -1328.9 1007.75 0 0 0 0.5 
226 1 1 2.84258 1.60236 9.40217 -23 0 0 -322.857 -4.74075 35.928 215.32 -162.647 894.6 0 0 0 0.5 
127 1 1 3.65167 0.592565 8.43048 -16 0 0 -426.82 24.9761 46.7063 1085.2 1950.31 1142.6 0 0 0 0.5 
372 1 1 3.06423 0.784791 8.09579 -17 0 0 -428.755 7.76569 15.775 -1282.49 353.236 -532.583 0 0 0 0.5 
572 2 2 3.60651 1.58516 8.63497 -12 0 0 -302.572 -16.8445 44.2567 -637.031 2482.76 -398.494 0 0 0 0.5 
40 1 1 0.725065 4.05395 9.87067 -4 0 0 -98.4781 -10.5592 20.5314 -1087.04 -305.883 866.301 0 0 0 0.5 
32 1 1 3.90072 0.315546 9.50542 61 1 -1 -459.969 -0.67833 5.15142 -602.091 160.147 888.214 0 0 0 0.5 
161 1 1 3.13741 4.85311 9.14866 -3 0 0 -33.9321 -12.4745 0.375292 -1732.06 200.275 -33.9193 0 0 0 0.5 
640 2 2 2.98851 0.808499 9.28683 -31 0 0 -397.451 -1.97118 -6.49506 830.883 -1256.75 289.583 0 0 0 0.5 
840 2 2 3.73562 4.14932 9.16456 -5 0 0 -85.5362 1.6402 33.5089 2719.01 -1767.46 -1019.52 0 0 0 0.5 
795 2 2 4.71355 1.4924 8.34407 -36 0 -1 -286.75 -0.559664 16.0861 2061.16 -176.522 -644.058 0 0 0 0.5 
822 2 2 2.89726 4.23477 8.00856 -4 0 0 -28.9273 -4.38229 16.7877 -3576.13 2709.5 69.4882 0 0 0 0.5 
139 1 1 4.95894 3.16367 9.67692 -7 0 0 -161.876 -24.2587 -8.3904 2170.47 -0.912907 644.649 0 0 0 0.5 
248 1 1 4.41094 8.65526 0.499979 -64 -1 1 350.104 11.0339 1.08806 29.05 173.456 -946.023 0 0 0 0.5 
199 1 1 3.84836 8.60524 1.21658 -72 -1 0 374.481 1.4002 8.56234 -243.487 62.0149 1121.77 0 0 0 0.5 
357 1 1 2.08612 8.91488 1.42106 -39 -1 1 441.283 -17.7308 37.0439 -50.978 7.22981 132.024 0 0 0 0.5 
545 2 2 3.68055 9.546 1.6155 41 0 0 480.173 -10.581 -29.0022 -1305.15 398.123 -1738.48 0 0 0 0.5 
723 2 2 0.366589 8.3544 1.35314 13 0 0 290.542 14.2616 -6.09192 -10.2453 -32.1814 1485.06 0 0 0 0.5 
85 1 1 1.75096 9.67824 0.833243 27 0 1 476.132 0.755695 -0.149309 -538.83 77.6277 103.759 0 0 0 0.5 
305 1 1 0.167344 8.3507 0.318403 19 0 0 274.533 21.1116 -17.0506 -822.052 -65.8911 -246.353 0 0 0 0.5 
390 1 1 2.93075 7.68527 1.0107 6 0 0 245.965 -1.17305 10.3694 0 0 0 0 0 0 0.5 
518 2 2 0.143734 8.98799 0.899655 -25 -1 0 393.923 13.4188 -20.34 825.971 598.266 -977.86 0 0 0 0.5 
491 1 1 0.938584 7.7277 1.12558 13 0 0 230.41 -6.03822 6.84346 1228.95 -1852.66 -552.795 0 0 0 0.5 
582 2 2 1.26452 5.01047 1.14748 11 0 0 -38.2256 5.95529 15.0382 922.517 877.227 929.885 0 0 0 0.5 
489 1 1 0.836719 9.80995 1.00929 26 0 0 455.662 8.33167 5.15577 -273.572 763.799 -583.794 0 0 0 0.5 
610 2 2 2.06016 7.04546 1.26594 9 0 0 199.145 5.33026 -14.0177 479.663 -723.817 1323.7 0 0 0 0.5 
166 1 1 2.53175 5.55914 1.3612 5 0 0 36.8233 -3.67999 -13.4624 716.241 161.004 -365.458 0 0 0 0.5 
676 2 2 0.366989 9.31378 1.88882 37 0 -1 422.986 -26.383 13.4034 -880.59 -1303.43 603.488 0 0 0 0.5 
763 2 2 1.71715 6.74872 0.482826 2 0 1 174.169 -7.04204 -9.88252 80.499 -635.972 626.468 0 0 0 0.5 
242 1 1 -0.0897417 9.70273 0.979052 -41 -1 1 436.964 4.37867 11.1127 -1085.53 2384.3 855.008 0 0 0 0.5 
92 1 1 -0.048329 5.25115 0.889488 2 0 1 24.6069 -2.77455 -2.84042 -2048.95 -84.0229 1088.05 0 0 0 0.5 
90 1 1 3.84419 5.80268 0.682618 2 0 0 88.5185 -4.63551 13.3002 -617.873 534.178 -736.658 0 0 0 0.5 
685 2 2 0.815322 6.73256 0.888651 9 0 1 157.125 8.22765 1.28037 746.095 -185.325 377.59 0 0 0 0.5 
292 1 1 4.75193 6.6882 0.701351 -68 -1 0 186.571 -9.69913 -15.6203 -1309.86 128.853 1355.18 0 0 0 0.5 
808 2 2 1.1079 9.14771 1.58923 27 0 0 433.609 -2.6084 -13.7443 1809.34 -466.781 1147.14 0 0 0 0.5 
267 1 1 4.30697 9.64647 0.178659 -45 -1 1 465.813 -15.7635 -6.06436 0 0 0 0 0 0 0.5 
160 1 1 3.55953 6.76175 1.33029 25 0 0 186.331 -2.75995 4.40586 0 0 0 0 0 0 0.5 
486 1 1 2.41981 8.86756 0.55689 29 0 1 402.808 -18.6413 10.3837 -2249.04 352.123 213.415 0 0 0 0.5 
897 2 2 4.59322 6.21947 1.75078 7 0 0 138.678 14.4324 11.2896 154.496 2595.74 -20.2023 0 0 0 0.5 
621 2 2 2.39087 5.23644 0.0430613 2 0 0 23.2646 5.50194 24.3872 -846.694 -1864.45 373.723 0 0 0 0.5 
452 1 1 2.94671 6.07111 0.665054 8 0 0 115.605 0.0128691 8.85148 -2114.36 212.586 418.557 0 0 0 0.5 
5 1 1 1.60318 5.80324 1.51909 2 0 0 44.3586 21.1893 -15.6593 -1029.03 -1630.17 828.083 0 0 0 0.5 
367 1 1 3.51337 8.48169 0.156332 23 0 0 345.182 -9.67832 -1.31992 795.948 -698.822 406.653 0 0 0 0.5 
103 1 1 0.759713 5.29406 0.497678 -1 0 0 -1.50749 10.5089 1.5496 2339.66 1078.89 -1334.55 0 0 0 0.5 
817 2 2 0.645745 5.9604 1.17779 -2 0 0 24.5411 14.5644 11.5992 273.778 165.543 -1180.12 0 0 0 0.5 
88 1 1 1.83549 7.75969 0.749748 7 0 1 222.02 13.0187 5.49005 22.9669 1236.83 -677.309 0 0 0 0.5 
604 2 2 0.970337 7.07461 0.0622609 10 0 1 179.55 -3.21009 4.65278 -874.06 361.283 -932.341 0 0 0 0.5 
620 2 2 4.6838 5.4628 1.67126 -2 0 0 41.5557 8.94851 -4.56101 -511.482 -531.866 -366.699 0 0 0 0.5 
419 1 1 0.672105 7.06005 1.79102 9 0 0 162.339 14.8367 2.35603 -1798.27 770.766 -1041.2 0 0 0 0.5 
960 2 2 3.10974 8.8794 0.799563 41 0 1 392.128 16.2216 14.7717 1327.15 -169.202 3028.36 0 0 0 0.5 
605 2 2 4.64935 5.47379 0.815622 5 0 0 57.1112 -7.53107 -11.1198 940.818 -902.571 -57.7201 0 0 0 0.5 
634 2 2 2.91384 9.46992 0.0237845 22 0 0 445.809 -9.70995 36.4399 -835.017 -652.012 -1853.53 0 0 0 0.5 
949 2 2 4.65014 8.49562 1.79445 35 0 1 358.222 20.1815 -4.58333 3308.45 -2533.38 465.598 0 0 0 0.5 
515 2 2 1.38113 9.12248 2.95591 -46 -1 0 434.781 5.52219 -16.5779 -71.552 1157.28 440.613 0 0 0 0.5 
68 1 1 2.81736 8.9033 3.80313 22 0 0 445.332 3.48843 17.9475 811.014 1614.22 1102.2 0 0 0 0.5 
780 2 2 1.07793 9.19731 3.99687 -66 -1 0 442.114 -9.5301 -2.10837 0 0 0 0 0 0 0.5 