ITEM: TIMESTEP
45000
ITEM: NUMBER OF ATOMS
1000
ITEM: BOX BOUNDS xy xz yz pp pp pp
0 10 0
0 10 0
-0 10 0
ITEM: ATOMS id type type x y z ix iy iz vx vy vz fx fy fz omegax omegay omegaz radius 
133 1 1 0.752422 0.682476 1.92727 169 1 1 -410.2 -3.85898 -21.1657 -88.5487 -6.01259 -1493.56 0 0 0 0.5 
21 1 1 1.1516 2.77935 0.914464 -102 0 1 -230.378 -2.25862 -0.655025 1266.31 -407.189 594.61 0 0 0 0.5 
722 2 2 1.63202 0.277402 0.303738 -137 0 0 -450.957 -27.5695 -13.4151 -233.563 11.6453 -292.705 0 0 0 0.5 
207 1 1 2.32534 0.909633 1.0634 220 1 1 -400.984 6.37689 -18.608 -518.237 2484 1002.37 0 0 0 0.5 
542 2 2 3.74785 2.83745 1.83385 -236 0 1 -272.966 23.96 -17.2029 -209.405 -2918.76 694.116 0 0 0 0.5 
690 2 2 0.853821 0.0538564 1.05045 161 1 0 -491.096 17.6481 -16.5139 13.8508 1446.87 -1509.09 0 0 0 0.5 
655 2 2 0.00354055 0.0235142 1.34488 -260 0 1 -493.697 -6.51735 -8.52974 631.309 -491.655 -428.326 0 0 0 0.5 
354 1 1 0.282381 1.62113 1.43353 -72 0 1 -340.935 0.062476 -4.86265 -156.933 -6.83624 -132.263 0 0 0 0.5 
952 2 2 1.93352 2.05268 1.387 -17 0 0 -308.059 -8.12093 -17.4807 -322.287 -1246.45 499.585 0 0 0 0.5 
984 2 2 1.42849 0.933051 0.879791 227 1 1 -405.921 -3.78269 19.3298 544.272 -1082.56 -410.561 0 0 0 0.5 
778 2 2 4.82899 2.65681 1.12682 -162 0 1 -172.761 -11.1902 28.6759 1015.17 1074.72 1186.42 0 0 0 0.5 
266 1 1 4.11138 3.06474 0.832076 -288 -1 0 -156.716 -14.2486 7.68536 -1525.06 -587.474 -587.092 0 0 0 0.5 
689 2 2 0.710425 1.22833 0.560884 -154 0 1 -389.673 13.5156 12.2541 -1086.63 620.144 -109.805 0 0 0 0.5 
568 2 2 0.867147 2.48723 1.80283 -85 0 0 -250.887 3.32222 -7.39372 -112.156 1128.59 910.977 0 0 0 0.5 
993 2 2 1.44467 3.9282 1.90182 35 0 1 -187.296 30.9682 -30.3037 -147.863 1049.66 -722.761 0 0 0 0.5 
56 1 1 0.508277 3.05554 0.427685 -60 0 0 -227.453 -3.00995 -2.3728 1531.75 -1739.62 -2029.69 0 0 0 0.5 
699 2 2 4.74819 4.15452 1.34603 24 0 -1 -94.3909 2.07125 9.29548 0 0 0 0 0 0 0.5 
526 2 2 1.73882 2.59845 1.96314 -146 0 1 -268.191 26.8591 14.2465 2477.37 1595.55 -1925.8 0 0 0 0.5 
440 1 1 1.71789 1.1392 1.70446 -30 0 0 -379.581 -8.77586 20.5992 1935.1 92.1149 -150.203 0 0 0 0.5 
582 2 2 2.60092 2.1121 0.629925 -15 0 0 -264.081 4.87031 -5.99032 -2176.21 1416.47 -939.631 0 0 0 0.5 
593 2 2 2.11425 3.45125 1.90981 3 0 1 -186.655 10.403 -0.887487 783.005 -946.572 29.4028 0 0 0 0.5 
966 2 2 4.24946 1.42145 0.178258 -90 0 1 -358.557 8.13961 20.9796 976.224 -986.938 -397.822 0 0 0 0.5 
9 1 1 3.26405 4.19528 0.507421 324 1 0 -95.214 -11.9659 15.9722 -152.497 407.561 -125.083 0 0 0 0.5 
708 2 2 4.35819 0.854279 1.38154 -170 0 1 -388.923 -10.838 18.5423 739.066 -992.119 352.333 0 0 0 0.5 
80 1 1 0.545997 3.60738 1.25798 -63 0 1 -104.244 -24.1913 -12.7917 -254.545 578.638 749.607 0 0 0 0.5 
741 2 2 1.36275 3.86817 0.766112 -121 0 0 -104.699 -5.1007 1.76885 125.243 209.959 1621.47 0 0 0 0.5 
3 1 1 1.97115 4.63438 1.19236 56 0 0 -29.8733 -22.2098 -12.7959 -347.984 -862.931 -679.791 0 0 0 0.5 
742 2 2 0.486557 4.4489 1.83801 2 0 -1 -53.3661 2.01557 -13.5758 -634.499 -926.35 835.427 0 0 0 0.5 
268 1 1 3.74074 4.85942 1.25351 37 0 0 -20.3197 -6.57263 -20.4554 1308.69 -498.689 -842.946 0 0 0 0.5 
357 1 1 3.83016 1.56311 1.12981 -273 0 1 -339.828 14.9957 22.22 4600.53 -531.181 686.275 0 0 0 0.5 
254 1 1 4.77015 2.38108 0.140722 -18 0 0 -274.641 14.5059 -1.9426 408.637 216.413 667.498 0 0 0 0.5 
329 1 1 3.17262 1.73999 0.876771 -147 0 1 -287.995 -3.03626 36.455 -2962.01 898.337 -1395.92 0 0 0 0.5 
842 2 2 0.0738882 2.64144 1.37858 -145 0 1 -245.709 -2.57525 23.9272 -1084.08 19.5696 -337.148 0 0 0 0.5 
918 2 2 2.54728 0.257618 1.72562 -129 0 0 -485.292 3.55815 4.67141 614.612 2539.11 -617.833 0 0 0 0.5 
288 1 1 2.80694 2.60917 1.94375 -55 0 -1 -286.841 16.97 -16.4879 593.74 710.511 -125.529 0 0 0 0.5 
395 1 1 3.36229 1.34831 0.215553 148 1 0 -353.504 -18.6128 -9.14022 -1636.86 -859.621 606.867 0 0 0 0.5 
850 2 2 4.10078 3.88458 0.480211 89 0 1 -74.0342 -2.21569 22.9752 181.066 391.813 313.028 0 0 0 0.5 
858 2 2 0.990246 4.65719 0.442012 0 0 0 -75.137 12.5511 5.83182 435.065 -1532.33 638.649 0 0 0 0.5 
922 2 2 3.39754 4.99605 0.18798 22 0 1 12.0307 -3.38056 -2.28568 522.268 -2239.26 1269.55 0 0 0 0.5 
713 2 2 4.07447 0.509401 0.0274695 -225 0 1 -465.516 -4.13606 7.32001 222.813 1161.32 192 0 0 0 0.5 
843 2 2 3.69697 3.77798 1.68779 -38 0 1 -100.584 -0.445116 38.8048 -143.558 2653.23 -412.038 0 0 0 0.5 
533 2 2 3.17725 2.99704 0.370652 325 1 0 -161.511 4.54617 33.195 -3121.21 2512.95 -55.1602 0 0 0 0.5 
217 1 1 2.79021 0.272421 0.664197 -88 0 0 -475.08 -8.60779 0.279286 1441.67 -2041.52 -1532.07 0 0 0 0.5 
386 1 1 0.186565 4.34647 0.839541 114 0 0 -88.5927 2.37193 -20.8029 290.753 1017.99 832.963 0 0 0 0.5 
263 1 1 3.01757 1.09803 1.60839 -113 0 1 -387.193 1.81362 -2.65727 -69.4961 -3119.23 582.698 0 0 0 0.5 
654 2 2 3.85137 2.32926 0.326256 -88 0 1 -285.847 4.24399 -1.95971 3798.58 -3010.85 140.777 0 0 0 0.5 
465 1 1 4.94297 3.32811 0.327245 -35 0 1 -201.449 7.40652 12.2842 372.138 -324.145 434.178 0 0 0 0.5 
347 1 1 2.90278 2.4831 3.38966 -24 0 -1 -248.193 -18.1445 3.71552 -1472.69 110.217 16.9135 0 0 0 0.5 
300 1 1 2.07293 0.837203 3.89777 145 1 -1 -405.377 -22.01 7.80008 -1722.58 255.411 1143.56 0 0 0 0.5 
490 1 1 2.40668 0.389003 2.48687 -241 0 0 -428.993 -15.1745 19.3912 -468.358 -1784.47 301.03 0 0 0 0.5 
700 2 2 1.24224 2.57537 2.72271 154 1 1 -249.449 11.1669 4.25245 -2343.62 2051.06 -548.679 0 0 0 0.5 
478 1 1 2.18739 4.66323 2.10185 -31 0 1 -33.8727 -4.9898 -28.0667 267.586 -48.737 -1157.43 0 0 0 0.5 
327 1 1 1.89392 2.77242 3.58661 -64 0 0 -180.457 -19.3158 4.55377 -713.49 -1452.98 1615.05 0 0 0 0.5 
848 2 2 1.63166 1.87025 3.23716 -236 0 1 -336.321 23.7494 0.613684 607.239 -952.641 2900.53 0 0 0 0.5 
333 1 1 2.14302 1.06634 2.96539 -45 0 0 -383.689 14.7333 5.71726 -1620.54 1271.12 -357.933 0 0 0 0.5 
139 1 1 0.81266 1.73662 3.11876 -56 0 0 -351.892 10.6928 -5.05448 -534.934 2.35957 -577.746 0 0 0 0.5 
794 2 2 4.28276 2.40974 2.51782 -15 0 0 -267.452 27.6479 -2.22053 779.357 -763.892 -20.3964 0 0 0 0.5 
895 2 2 0.444579 0.196761 3.37216 -103 0 0 -496.107 -10.3145 -11.5832 -876.197 1017.73 -874.509 0 0 0 0.5 
134 1 1 1.54613 0.250599 2.11805 -171 0 0 -417.163 -23.9872 -5.06965 -420.815 -411.958 285.077 0 0 0 0.5 
612 2 2 1.1865 0.0353168 3.75627 -49 0 1 -487.43 1.12478 -12.0288 -906.141 2121.06 22.0534 0 0 0 0.5 
481 1 1 1.85196 3.38588 3.05653 58 0 -1 -137.43 -10.0619 1.25347 846.441 -208.082 -288.969 0 0 0 0.5 
833 2 2 0.287994 2.5225 2.75908 -34 0 0 -254.737 -13.2548 -11.1647 43.3492 257.512 1221.82 0 0 0 0.5 
454 1 1 2.0176 4.34845 3.81003 254 1 0 -135.233 10.1578 12.6153 -1912.86 -971.212 465.56 0 0 0 0.5 
665 2 2 1.93846 1.79441 2.37291 171 1 1 -352.547 14.3097 9.28869 -918.83 -481.998 -671.026 0 0 0 0.5 
153 1 1 1.45686 3.96816 2.75352 17 0 0 -123.169 8.04625 -8.91655 1289.56 -206.462 -1963.14 0 0 0 0.5 
808 2 2 1.0431 1.65427 2.07467 77 0 0 -345.809 -0.182651 -3.80987 -1598.04 -477.551 1461.22 0 0 0 0.5 
647 2 2 0.118474 1.40809 3.71487 -112 0 0 -353.691 13.6244 -12.1674 535.879 683.721 445.443 0 0 0 0.5 
823 2 2 2.67498 0.557662 3.37106 255 1 -1 -430.142 5.67992 -5.46636 481.715 936.387 1407.94 0 0 0 0.5 
760 2 2 0.17012 4.28772 2.76157 -58 0 1 -90.7811 11.4753 -25.3197 -1124.58 -1197.08 652.91 0 0 0 0.5 
731 2 2 4.26395 4.87999 2.06082 347 1 0 -27.7903 -20.0785 -24.9359 -67.9602 1040.96 450.587 0 0 0 0.5 
575 2 2 3.70477 2.42805 3.91081 194 1 -1 -252.045 6.16954 -11.4962 -485.631 1491.34 1329.36 0 0 0 0.5 
548 2 2 3.10978 1.27062 2.81601 -155 0 1 -380.957 4.62531 5.49847 -1596.29 1694.11 1409.78 0 0 0 0.5 
247 1 1 0.12231 1.566 2.55325 -183 0 0 -353.044 -6.13232 -35.5382 -278.218 2382.31 -909.202 0 0 0 0.5 
130 1 1 3.96065 1.96727 3.47638 -71 0 0 -291.747 0.712279 10.8852 -1987.25 -257.367 -2181.18 0 0 0 0.5 
51 1 1 0.583834 0.808557 2.81986 -23 0 1 -391.938 8.24967 -31.2108 781.84 -2204.05 2528.14 0 0 0 0.5 
251 1 1 0.942275 4.33771 3.12819 -89 0 0 -105.085 -0.175158 5.14163 -1428.75 165.809 942.653 0 0 0 0.5 
482 1 1 0.443855 3.06589 3.55139 109 1 0 -176.03 -8.37459 15.1693 -693.895 -677.194 -1683.89 0 0 0 0.5 
816 2 2 0.702759 3.52787 2.24473 -19 0 0 -144.882 -11.0908 10.3378 -413.487 -378.953 420.322 0 0 0 0.5 
197 1 1 3.79586 0.106643 2.35451 144 1 0 -462.681 -10.4482 -4.98132 257.224 -1049.65 -672.834 0 0 0 0.5 
228 1 1 4.05359 4.08528 3.47002 -131 0 1 -145.359 3.85933 -5.59184 -182.587 -769.483 -562.164 0 0 0 0.5 
957 2 2 2.93023 3.37332 3.68082 28 0 0 -183.638 -8.52042 -1.65686 -81.9621 -1413.23 -358.293 0 0 0 0.5 
126 1 1 2.52505 4.39437 2.79168 238 1 -1 -93.7958 5.0622 -8.18565 -897.547 3327.83 1158.93 0 0 0 0.5 
913 2 2 3.68142 1.68368 2.01453 -37 0 0 -394.132 37.3372 9.12751 2032.55 -3412.34 -3107.28 0 0 0 0.5 
416 1 1 2.69919 1.68778 2.04513 -113 0 0 -362.079 26.2641 2.17833 -718.581 286.129 26.8486 0 0 0 0.5 
185 1 1 3.36272 0.18312 3.13924 -12 0 0 -474.798 13.3463 -3.56808 1901.04 -184.903 -714.902 0 0 0 0.5 
806 2 2 3.44789 2.31139 2.73341 -107 0 0 -272.397 2.56247 -32.0346 -3524.66 4816.51 2954.59 0 0 0 0.5 
62 1 1 3.13041 3.68225 2.8179 -52 0 0 -166.487 3.27712 -7.1991 2209.33 -2533.13 -191.716 0 0 0 0.5 
309 1 1 3.79542 0.905628 2.49666 113 1 0 -417.828 6.88685 1.55597 2373.37 -1033.66 -1500.21 0 0 0 0.5 
658 2 2 4.28448 0.891008 3.34506 -79 0 0 -396.511 -11.636 -3.9622 484.484 -842.654 80.7624 0 0 0 0.5 
312 1 1 2.62873 4.07236 3.51573 1 0 1 -132.961 16.8559 12.9556 1389.34 521.037 132.293 0 0 0 0.5 
161 1 1 4.73268 2.80838 3.56001 -5 0 1 -233.796 -5.82751 24.0767 1061.12 -570.513 68.0194 0 0 0 0.5 
445 1 1 1.21825 3.83362 3.72119 -48 0 0 -132.872 -16.7988 -2.26146 437.865 -832.187 776.286 0 0 0 0.5 
104 1 1 4.13455 4.7592 3.70648 -6 0 0 6.08748 8.92021 -19.4606 2011.48 -1406.93 -1910.29 0 0 0 0.5 
65 1 1 4.02627 3.2183 3.41487 -87 0 0 -223.093 1.64271 -18.6355 -976.962 -371.809 -1069.16 0 0 0 0.5 
844 2 2 4.03482 1.61876 2.91699 207 1 0 -356.286 5.38663 -12.4143 2067.72 -1996.83 -1850.82 0 0 0 0.5 
780 2 2 4.75703 1.68255 3.8929 -178 0 0 -350.517 2.761 1.30181 3915.48 -1191.28 545.13 0 0 0 0.5 
540 2 2 4.95759 3.17866 2.629 -306 -1 0 -175.243 1.48202 -5.05154 141.347 2576.16 -1318.55 0 0 0 0.5 
273 1 1 4.63809 0.44477 4.06091 -217 0 2 -426.424 -14.4277 32.4844 -42.4736 53.6001 -85.9852 0 0 0 0.5 
835 2 2 1.68714 3.61164 4.39769 -59 0 1 -115.634 -8.45379 3.59852 177.062 -1638.04 622.93 0 0 0 0.5 
667 2 2 4.05229 1.95689 5.90755 -53 0 0 -274.439 14.5299 -1.80358 -132.123 -1086.09 370.091 0 0 0 0.5 
661 2 2 1.56921 2.20493 4.29119 -87 0 -1 -271.928 5.72918 2.94356 1003.5 -127.784 1673.91 0 0 0 0.5 
371 1 1 2.22979 4.4025 5.65152 -23 0 0 -42.319 -15.3164 8.30651 134.625 -574.727 -756.444 0 0 0 0.5 
253 1 1 2.03325 2.05911 4.94264 -221 0 0 -282.951 3.5702 20.0697 837.258 -972.677 97.3605 0 0 0 0.5 
890 2 2 0.794684 0.304856 4.52654 -66 0 -1 -470.246 -1.97332 -5.03154 585.767 656.049 1511.35 0 0 0 0.5 
983 2 2 0.897571 1.04419 4.90703 -16 0 -1 -396.417 2.28822 -2.68851 -616.376 582.405 -1258.95 0 0 0 0.5 
845 2 2 0.263725 3.91698 4.1305 -37 0 0 -109.775 -9.28447 -31.3399 2249.81 -2805.84 633.744 0 0 0 0.5 
290 1 1 1.17318 0.338186 5.44166 219 1 0 -488.617 15.5022 18.7265 -267.681 -150.832 178.022 0 0 0 0.5 
989 2 2 0.942929 1.7267 5.0939 52 0 0 -303.634 18.5802 -6.42412 610.139 -5.6325 -705.189 0 0 0 0.5 
224 1 1 2.26419 0.946672 5.75229 -180 0 0 -380.528 0.468773 -2.0413 -950.482 265.529 -402.949 0 0 0 0.5 
666 2 2 0.341849 0.776554 4.0911 -4 0 0 -422.799 1.8678 5.16928 -961.172 205.738 -1240.07 0 0 0 0.5 
608 2 2 1.38059 3.05428 5.06127 -52 0 0 -176.273 -20.4498 6.40317 76.0488 -455.969 -624.218 0 0 0 0.5 
609 2 2 2.1217 2.8445 5.28668 -49 0 0 -169.56 6.09715 32.4906 1553.18 -67.0602 618.199 0 0 0 0.5 
93 1 1 1.60178 1.72325 5.69682 179 1 -1 -297.841 -8.71269 19.5735 -63.1687 10.9596 87.8396 0 0 0 0.5 
812 2 2 0.765853 2.44475 5.59865 9 0 1 -239.981 2.9426 -0.666619 409.903 1270.06 172.249 0 0 0 0.5 
190 1 1 1.47393 3.37523 5.94239 -51 0 1 -152.747 3.69735 1.84932 -531.968 1391.67 -1097.18 0 0 0 0.5 
351 1 1 4.02043 4.61439 5.44397 2 0 1 -39.8293 11.773 -23.691 232.139 142.099 385.075 0 0 0 0.5 
203 1 1 2.02847 1.65465 4.09714 -191 0 0 -327.107 5.20106 -12.9793 2732.95 -2153.05 332.573 0 0 0 0.5 
497 1 1 0.843975 4.82885 4.2692 180 0 1 -19.6357 -6.33229 -9.06977 -1797.63 -2346.84 298.501 0 0 0 0.5 
95 1 1 4.11187 2.68196 5.22364 -38 0 0 -234.2 -0.411455 -6.17762 693.495 -1387.78 -1107.91 0 0 0 0.5 
484 1 1 0.627408 3.45716 5.6911 28 0 0 -172.725 -4.61995 10.9051 2619.44 -822.154 1219.5 0 0 0 0.5 
5 1 1 1.74346 4.43641 4.82679 22 0 -1 -34.3668 -23.3089 2.23326 101.192 1871.26 -107.731 0 0 0 0.5 
61 1 1 4.02753 1.83113 4.42877 -151 0 0 -305.637 6.34557 29.587 -2390.24 -1666.94 34.2441 0 0 0 0.5 
927 2 2 3.54613 3.09331 4.21674 6 0 0 -175.757 9.03783 -0.236288 1902.37 1086.81 861.101 0 0 0 0.5 
586 2 2 0.162284 4.58059 5.63151 298 1 0 -37.5743 -1.81741 7.31539 1355.91 -910.954 1792.13 0 0 0 0.5 
763 2 2 3.41084 0.827374 5.04258 123 1 1 -380.818 -18.683 14.3338 -1.08194 15.2744 375.724 0 0 0 0.5 
406 1 1 4.16348 4.56722 4.5649 -69 0 1 -46.7045 13.1278 -18.9077 -273.17 -678.732 -209.779 0 0 0 0.5 
306 1 1 2.64243 4.82311 4.73432 84 0 -1 -42.9317 15.4854 3.98835 -531.49 -450.061 -849.353 0 0 0 0.5 
674 2 2 4.72573 1.80129 4.97616 -65 0 0 -314.747 -1.41761 43.7442 819.292 -35.0046 642.34 0 0 0 0.5 
399 1 1 4.06943 3.67716 4.88911 -132 0 -1 -114.96 4.28049 -8.36657 525.22 938.344 -1504.5 0 0 0 0.5 
101 1 1 3.80378 3.41602 5.63387 -111 0 0 -160.803 14.8438 -16.8497 4125.13 -2462.16 1419.61 0 0 0 0.5 
363 1 1 3.20599 1.52537 5.3149 86 1 -1 -348.287 23.1043 33.9235 -307.548 780.317 -605.254 0 0 0 0.5 
400 1 1 1.00883 2.69079 4.02114 -146 0 0 -191.333 -11.5344 20.3718 -2191.46 2816.67 -1203.02 0 0 0 0.5 
532 2 2 0.764283 3.61994 4.78783 57 0 0 -124.054 3.6194 -15.0944 1928.68 269.571 313.965 0 0 0 0.5 
619 2 2 3.69971 1.11007 4.05104 -96 0 1 -413.202 21.0239 -23.8304 356.06 1638.58 825.996 0 0 0 0.5 
222 1 1 3.27918 4.22762 4.55343 297 1 0 -46.9811 -11.3619 -12.3336 -180.858 -1461.03 -467.69 0 0 0 0.5 
949 2 2 1.04566 4.43483 5.59851 98 0 1 -51.2527 2.45002 -18.8821 1709.98 -282.15 -63.888 0 0 0 0.5 
572 2 2 3.02939 0.785018 5.98471 -101 0 0 -375.126 10.1354 29.6334 -696.769 3305.53 937.579 0 0 0 0.5 
923 2 2 2.74122 0.00926201 4.77902 179 1 0 -498.882 -6.22886 -7.81208 -1029.76 1252.2 -40.2173 0 0 0 0.5 
211 1 1 4.87071 0.767082 5.0756 204 1 0 -398.633 5.71779 -5.64406 -3635.37 2946.28 369.353 0 0 0 0.5 
24 1 1 2.99058 1.98883 4.57616 217 1 -1 -317.13 15.1904 -24.1678 213.093 -458.483 730.818 0 0 0 0.5 
551 2 2 3.54621 0.349715 4.33229 50 1 0 -475.084 0.916287 -33.723 -1208.41 -83.7291 -606.857 0 0 0 0.5 
58 1 1 3.0951 4.08413 5.4626 39 0 -1 -46.7279 -19.9832 -15.2773 -3757.01 3622.61 -218.943 0 0 0 0.5 
86 1 1 3.05356 3.32082 4.7009 -39 0 1 -152.283 -19.614 25.9808 -1760.96 2434.59 1850.04 0 0 0 0.5 
536 2 2 3.35438 0.0652508 5.86133 -208 0 0 -494.802 3.06018 0.386975 155.685 -983.855 -419.455 0 0 0 0.5 
516 2 2 4.94837 4.37688 4.98881 -111 0 1 -54.1908 -2.74894 -2.02008 360.054 1010.54 -15.1671 0 0 0 0.5 
241 1 1 1.50977 1.84933 7.85057 353 1 1 -360.025 -1.85221 -10.0019 1825.89 -2565.76 663.247 0 0 0 0.5 
43 1 1 2.42438 0.0394704 6.52012 -153 0 0 -471.589 4.03501 20.3425 0.757588 37.6939 267.642 0 0 0 0.5 
257 1 1 0.143875 0.615255 7.85186 -60 0 0 -445.115 15.0921 -5.64783 -119.327 344.616 340.905 0 0 0 0.5 
277 1 1 1.04011 2.79965 7.03773 -154 0 0 -225.724 2.06491 -17.5887 -1304.42 2713.18 -1208.75 0 0 0 0.5 
748 2 2 2.43502 3.79454 6.50466 257 1 -1 -129.329 16.3751 -16.59 -1346.11 -561.733 506.187 0 0 0 0.5 
74 1 1 1.45128 0.511981 7.50878 -28 0 0 -419.876 -25.4755 -21.7938 1181.88 -2219.27 595.786 0 0 0 0.5 
50 1 1 4.34842 3.8267 6.62941 39 0 0 -102.777 -21.934 -8.4112 1881.61 -2836.24 1660.24 0 0 0 0.5 
926 2 2 2.17897 2.63814 7.6758 204 1 0 -230.879 -22.8844 -4.88837 582.603 154.202 -2382.95 0 0 0 0.5 
314 1 1 2.12683 2.29249 6.24602 -109 0 0 -240.761 -13.3172 -10.8561 587.071 -1347.33 -951.019 0 0 0 0.5 
662 2 2 1.04891 1.15622 7.47395 -133 0 1 -381.608 -9.15442 -14.021 1610.28 1157.57 -510.014 0 0 0 0.5 
205 1 1 0.0674106 1.34241 6.51581 -74 1 -1 -378.563 0.0567511 -26.8603 727.804 -1541.25 687.744 0 0 0 0.5 
720 2 2 3.54734 4.9462 6.96668 47 0 -1 17.2372 -5.7168 0.57389 -3652.74 1714.74 -2115.14 0 0 0 0.5 
970 2 2 2.3251 4.32645 7.24814 213 0 -1 -36.9253 1.45669 -2.54397 -411.291 -806.835 158.392 0 0 0 0.5 
959 2 2 4.65125 2.15281 7.64286 194 1 0 -226.562 -13.1586 19.4509 -794.942 613.667 -2315.77 0 0 0 0.5 
596 2 2 1.67703 1.5187 6.87682 -115 0 0 -397.827 14.3289 -35.0043 1553.14 -2094.52 -931.915 0 0 0 0.5 
737 2 2 1.09627 2.48877 7.93996 -86 0 0 -288.149 18.5698 -21.9944 -2760.16 1047.99 1792.1 0 0 0 0.5 
977 2 2 1.82825 2.90232 6.6702 168 1 -1 -213.104 5.99917 -8.28479 1571.89 -885.888 2510.68 0 0 0 0.5 
592 2 2 3.19921 3.51351 6.15541 -40 0 0 -129.526 -16.4041 27.0399 -473.952 -201.243 -616.824 0 0 0 0.5 
278 1 1 0.29565 1.70545 7.37733 241 1 -1 -321.458 -2.73837 -15.6781 -2079.87 735.986 -2762.42 0 0 0 0.5 
485 1 1 2.12795 3.48219 7.36246 -125 0 1 -162.842 2.90015 -2.80391 1870.27 -1003.76 1654.58 0 0 0 0.5 
804 2 2 1.18023 2.03762 7.03803 -181 0 -1 -330.655 1.52254 -13.7768 -3584.96 141.906 230.234 0 0 0 0.5 
331 1 1 4.24217 4.56867 7.11286 -14 0 -1 -18.2772 3.37675 12.6302 3298.35 -1163.11 -28.218 0 0 0 0.5 
55 1 1 2.31708 0.999991 6.80681 163 1 0 -420.682 6.08225 7.94363 1732.16 -2634.64 -1574.21 0 0 0 0.5 
320 1 1 1.56698 3.73016 6.77249 43 0 0 -133.507 23.8031 19.2003 -1269.58 1570.05 -1650.18 0 0 0 0.5 
225 1 1 0.564683 0.772914 6.70657 -143 0 0 -397.038 4.34928 -7.01357 1562.56 -295.187 1140.62 0 0 0 0.5 
721 2 2 0.229634 2.75826 6.27629 241 1 0 -231.063 9.47967 -13.1334 -597.6 447.386 870.897 0 0 0 0.5 
747 2 2 3.93238 1.07869 6.09396 -210 0 0 -365.703 -2.53018 24.9396 309.784 892.729 -152.136 0 0 0 0.5 
84 1 1 4.71165 3.73343 7.56722 105 0 0 -120.729 -7.08536 -11.0113 983.108 -1265.5 -982.893 0 0 0 0.5 
932 2 2 4.76997 1.77868 6.71981 -92 0 0 -284.789 -1.05896 1.40455 -1218.88 456.606 230.466 0 0 0 0.5 
375 1 1 0.825137 3.97864 6.52321 230 1 -1 -134.322 16.7964 2.93723 -1477.41 464.372 -465.435 0 0 0 0.5 
862 2 2 3.31301 4.72229 6.08354 -51 0 0 -23.3897 -10.1005 -5.96679 500.165 561.924 1469.9 0 0 0 0.5 
452 1 1 0.868764 4.37447 7.52257 24 0 0 -20.5488 7.40445 13.4859 174.84 1449.37 -195.722 0 0 0 0.5 
960 2 2 4.00954 0.904192 7.14562 215 1 0 -425.779 10.133 -15.2808 -1248.21 146.272 -533.705 0 0 0 0.5 
422 1 1 3.68365 4.63329 7.88486 -314 -1 -2 -52.0361 -0.41909 0.772401 839.936 -1.37741 931.012 0 0 0 0.5 
42 1 1 3.46473 3.52883 7.09927 -99 0 0 -109.848 -35.3105 1.5354 -1.14335 -3836.82 1004.76 0 0 0 0.5 
486 1 1 1.98564 4.89138 6.45072 255 1 1 30.3923 -8.64213 1.45239 -355.571 711.99 1163.96 0 0 0 0.5 
910 2 2 0.94662 3.52059 7.50051 -62 0 1 -130.589 -1.18243 24.0991 214.088 -746.826 360.476 0 0 0 0.5 
168 1 1 4.77794 0.814147 7.47417 98 1 0 -426.478 27.587 2.41878 -1020.02 1425.97 90.3861 0 0 0 0.5 
17 1 1 3.35357 1.32607 7.85095 -135 0 -1 -413.182 13.6275 -14.4583 164.169 -280.904 158.335 0 0 0 0.5 
470 1 1 2.4574 1.53708 7.52364 132 1 -1 -414.696 16.7813 -19.7062 571.843 610.623 477.351 0 0 0 0.5 
348 1 1 0.134706 3.54215 6.97048 -34 0 0 -127.079 -16.4511 10.5658 759.075 -757.011 464.782 0 0 0 0.5 
510 2 2 4.07219 2.8762 6.27795 -66 0 -1 -220.298 8.47857 12.9293 234.517 -434.028 575.41 0 0 0 0.5 
305 1 1 2.93511 4.71681 7.88983 65 0 -1 -24.1853 6.09987 7.66185 1067.63 -3202.12 1794.31 0 0 0 0.5 
336 1 1 3.12495 2.47301 6.30801 96 0 0 -237.086 -9.40426 -20.9925 -78.1009 96.8837 293.59 0 0 0 0.5 
743 2 2 3.29936 4.18629 7.16382 -72 0 0 -51.4076 -8.39055 0.185163 -157.415 1591.51 -146.852 0 0 0 0.5 
346 1 1 2.90306 2.74827 7.14214 271 1 0 -212.784 -7.88147 10.9938 1502.24 1314.11 -705.595 0 0 0 0.5 
237 1 1 0.134949 0.00926685 7.19397 -140 0 0 -483.219 6.17746 -10.6718 -517.075 -1313.96 937.339 0 0 0 0.5 
878 2 2 2.23977 4.97296 7.73615 160 0 0 48.4264 -0.564785 6.44558 -4453.27 2133.99 -279.643 0 0 0 0.5 
154 1 1 1.34863 0.807971 6.06035 -4 0 0 -365.217 8.69828 50.0787 -278.641 -295.324 -293.287 0 0 0 0.5 
766 2 2 3.95221 4.43626 6.29204 -72 0 0 -11.5939 -10.9335 -13.1819 298.777 1580.02 -740.655 0 0 0 0.5 
287 1 1 4.15889 1.32108 9.07238 222 1 0 -403.056 10.8682 -9.26331 300.038 569.268 -491.03 0 0 0 0.5 
468 1 1 2.16278 3.63747 9.10341 7 0 0 -79.6051 -9.38949 11.9625 197.378 1025.85 -1421.8 0 0 0 0.5 
550 2 2 4.21489 4.79873 8.95711 49 0 0 -3.07503 -3.79374 0.771819 1598.53 -2869.06 -241.535 0 0 0 0.5 
683 2 2 0.200829 0.642685 9.17471 98 1 -1 -469.445 20.4643 3.62797 419.61 -153.421 2479.29 0 0 0 0.5 
235 1 1 1.14762 0.424309 9.41992 34 1 -1 -493.182 2.62393 -3.85928 546.11 854.078 904.797 0 0 0 0.5 
353 1 1 1.54482 2.34905 8.70035 164 1 0 -304.941 15.4685 11.9124 1914.52 -1151.17 -302.011 0 0 0 0.5 
868 2 2 0.232872 1.51512 9.18114 -106 0 1 -373.809 13.5073 10.5007 -47.2265 -1017.68 1473.1 0 0 0 0.5 
245 1 1 1.87846 4.04985 8.16164 -23 0 0 -54.2257 8.10563 -9.76187 -725.047 -1218.77 -1800.11 0 0 0 0.5 
924 2 2 2.46321 3.31516 9.89198 -52 0 0 -151.564 -0.979211 22.5651 -1159.05 1994.11 1616.87 0 0 0 0.5 
795 2 2 1.53038 3.52765 9.95939 -99 0 -1 -155.602 1.26623 1.20964 1957.62 -384.655 -726.414 0 0 0 0.5 
595 2 2 0.957373 0.728439 8.33301 143 1 0 -428.319 -10.1523 -14.6136 930.889 -1786.46 715.724 0 0 0 0.5 
992 2 2 3.44194 3.86317 8.42327 -141 0 0 -114.39 -5.42328 -20.0018 1211.19 -1001.84 -1633.77 0 0 0 0.5 
140 1 1 1.53103 1.24117 8.95538 141 1 0 -414.721 23.4444 -16.0114 2856.72 -1344.39 -57.947 0 0 0 0.5 
483 1 1 0.74072 1.36788 8.66858 200 1 -1 -389.874 15.7626 15.2379 -383.613 -359.585 -110.803 0 0 0 0.5 
503 2 2 1.38007 1.04658 9.95542 44 1 -1 -382.51 11.4446 4.91956 654.568 -1285.25 29.0081 0 0 0 0.5 
590 2 2 0.821273 2.73779 8.86941 -30 0 -1 -237.56 -1.01748 12.1126 -4394.31 2360.95 1026.76 0 0 0 0.5 
383 1 1 1.60819 2.56667 9.49985 -90 0 0 -234.429 7.74736 51.3456 -36.0194 -123.684 -454.392 0 0 0 0.5 
687 2 2 2.29856 1.86541 9.17741 197 1 0 -361.318 6.55005 -0.00542467 2069.2 2633.86 2081.42 0 0 0 0.5 
648 2 2 2.30102 1.3677 9.95651 246 1 0 -386.633 23.2687 6.46911 75.8477 137.351 829.749 0 0 0 0.5 
573 2 2 2.54098 1.08237 8.56608 -134 0 0 -405.988 1.35931 -9.16411 224.433 -477.996 142.835 0 0 0 0.5 
298 1 1 2.15405 1.9137 8.32038 -156 0 -1 -360.884 21.2489 -9.05011 3269.27 -2178.19 875.667 0 0 0 0.5 
520 2 2 3.03226 4.00136 9.35313 68 0 0 -61.7327 -9.39287 37.3144 -991.427 -507.141 639.55 0 0 0 0.5 
108 1 1 4.56432 0.73538 8.7826 -191 0 0 -433.564 3.68452 1.51546 -410.038 186.019 -511.287 0 0 0 0.5 
31 1 1 0.594658 1.6375 8.08708 196 1 0 -349.164 17.0398 -3.46238 758.29 2788.04 -430.724 0 0 0 0.5 
360 1 1 1.77413 3.18114 8.23169 -259 -1 0 -158.113 -17.4344 15.9119 -554.555 2449.92 466.981 0 0 0 0.5 
157 1 1 0.910279 1.58529 9.59294 -75 0 0 -367.939 34.8311 17.871 -343.116 1622.73 146.342 0 0 0 0.5 
733 2 2 3.7081 1.7372 9.45944 100 0 -1 -364.599 19.8106 13.846 -234.986 1698.5 1647.56 0 0 0 0.5 
249 1 1 3.18904 3.16073 9.09044 -93 0 1 -166.15 -23.3334 -6.60803 -116.597 -1089.7 330.329 0 0 0 0.5 
321 1 1 0.699359 3.43336 9.60582 -20 0 -1 -120.417 -18.8494 -21.7663 -1398.97 -1029.92 192.875 0 0 0 0.5 
162 1 1 1.54578 4.75561 9.70658 210 1 -1 -41.136 -9.6015 3.04651 2311.67 -2454.11 -255.66 0 0 0 0.5 
423 1 1 3.06717 4.58093 8.84093 -283 -1 0 5.6646 -0.47266 16.3465 -999.358 2630.58 22.8465 0 0 0 0.5 
891 2 2 1.39583 4.31333 8.71705 13 0 -1 -41.5521 -18.0039 0.263543 -992.554 -242.38 1399.58 0 0 0 0.5 
717 2 2 3.27386 0.720181 9.12474 -114 0 0 -415.651 -2.7187 4.16098 -4.46893 748.129 -399.337 0 0 0 0.5 
809 2 2 2.52268 0.58029 9.91087 217 1 -1 -450.543 -16.7881 -31.6981 -2.29284 -379.516 -487.263 0 0 0 0.5 
987 2 2 3.54733 2.9958 8.17991 226 1 0 -189.683 -21.8093 -15.4849 113.103 -617.795 -270.54 0 0 0 0.5 
971 2 2 4.04444 3.8453 8.77828 47 0 0 -150.408 8.38922 -2.66849 2941.06 1481.07 3088.94 0 0 0 0.5 
281 1 1 0.550088 4.31162 9.68867 -11 0 -1 -65.7099 4.49909 -18.2471 937.62 151.534 80.1578 0 0 0 0.5 
165 1 1 4.55506 3.57496 9.47194 18 0 -1 -175.642 5.29942 3.23563 1999.41 -3600.73 -22.9253 0 0 0 0.5 
606 2 2 3.13694 1.99593 9.04429 -151 0 -2 -350.461 11.677 -45.303 -496.029 168.592 -1489.01 0 0 0 0.5 
98 1 1 4.38113 2.62167 9.38076 -60 0 -1 -253.889 1.13984 -19.079 -310.234 1072.99 -812.523 0 0 0 0.5 
310 1 1 3.75508 0.53484 8.28051 114 1 0 -432.067 -5.79458 -11.552 -134.996 751.243 -21.9005 0 0 0 0.5 
607 2 2 2.72625 3.84465 8.14454 77 0 0 -83.4637 -25.5352 -1.43573 -1266.98 710.582 -1955.63 0 0 0 0.5 
204 1 1 0.104489 4.53895 8.09589 -143 0 1 -20.4667 0.636767 12.7021 -924.157 131.747 114.851 0 0 0 0.5 
23 1 1 2.91076 2.44378 9.7024 -146 0 0 -253.722 6.48393 14.5442 -834.147 -3009.47 -1529.72 0 0 0 0.5 
880 2 2 4.12079 4.29146 9.66189 -2 0 0 -91.9567 14.0408 27.8464 -1643.75 1955.35 -1432.12 0 0 0 0.5 
978 2 2 4.27642 4.29369 8.00236 24 0 -1 -71.5797 6.48263 13.4809 2598.32 -714.015 2038.82 0 0 0 0.5 
311 1 1 4.94659 1.92482 8.50323 -34 0 0 -287.433 3.12853 5.45306 -2418.77 1441.52 2486.58 0 0 0 0.5 
368 1 1 3.73176 9.36884 1.91517 67 0 0 493.659 -34.1214 -23.9805 -6343.94 7084.16 -2909.62 0 0 0 0.5 
425 1 1 4.60476 9.66503 1.41545 -181 -1 1 427.05 11.5223 -10.0452 -3496.94 1488.95 -643.788 0 0 0 0.5 
420 1 1 3.85517 8.18901 0.358393 -43 -1 1 319.813 6.54792 -12.0588 -911.403 1130.15 1456.87 0 0 0 0.5 
704 2 2 3.8491 7.72616 1.42165 132 0 -1 247.835 3.24139 -3.69327 -2791.59 237.777 -176.146 0 0 0 0.5 
129 1 1 2.43686 5.59993 1.55848 -251 -1 0 20.6184 -13.7331 15.937 -1840.78 1448.92 937.755 0 0 0 0.5 
588 2 2 1.83165 9.95755 1.04533 96 0 1 526.14 -15.4894 8.56202 -49.8026 967.45 -1535.59 0 0 0 0.5 
857 2 2 1.00672 9.48763 1.56117 -48 -1 0 434.169 -2.94919 -3.50323 207.025 -803.323 602.972 0 0 0 0.5 
758 2 2 0.583932 6.63986 1.75156 14 0 0 157.381 0.196058 -30.9288 -815.895 426.839 243.303 0 0 0 0.5 
567 2 2 2.06458 7.8434 1.51555 49 0 1 319.936 -6.06356 -2.17933 0 0 0 0 0 0 0.5 
807 2 2 2.32939 6.94726 0.341128 -133 -1 1 235.186 -8.54397 14.457 -3573 -3937.79 -517.856 0 0 0 0.5 
259 1 1 4.84471 8.4381 1.59981 -179 -1 -1 295.163 25.2792 -4.68327 -985.001 587.966 -454.975 0 0 0 0.5 
431 1 1 3.64894 9.57065 0.950418 -142 -1 0 477.43 4.98019 -32.9289 23.5112 2456.76 -624.416 0 0 0 0.5 
285 1 1 2.88606 5.09514 1.33592 53 0 -1 -11.7296 -29.4569 -14.2666 8.08619 -2287.33 -372.003 0 0 0 0.5 
837 2 2 0.85659 5.9601 0.667374 -258 -1 0 79.1485 0.817111 8.27698 1599.3 -513.31 125.798 0 0 0 0.5 
768 2 2 0.0337366 5.83812 1.48945 -142 0 -1 40.744 12.3084 8.6648 1191.84 -56.3828 -955.617 0 0 0 0.5 
151 1 1 0.0634834 6.18363 0.649793 0 0 0 86.3586 15.3923 -10.9058 -748.813 964.213 1522.48 0 0 0 0.5 
274 1 1 3.17612 6.7533 0.593282 -257 -1 -1 229.62 -21.6056 -4.9297 -1937.6 783.589 48.6643 0 0 0 0.5 
739 2 2 2.91457 7.38218 1.1931 37 0 0 275.783 4.87444 5.52474 -1225.27 1285.49 -395.221 0 0 0 0.5 
171 1 1 4.50137 6.0734 0.897787 -15 0 0 138.051 -25.3754 15.3834 2477.4 -3524.76 -1329.14 0 0 0 0.5 
4 1 1 4.65407 9.23422 0.171885 -190 -1 0 432.921 -9.04033 35.7508 -306.26 1246.94 1355.89 0 0 0 0.5 
41 1 1 2.86676 5.61431 0.621728 -176 0 0 33.4585 16.8528 17.1897 -124.678 760.921 -610.742 0 0 0 0.5 
20 1 1 2.95704 9.79867 1.36827 -231 -1 0 502.331 -21.7312 7.43182 -105.832 -1056.87 715.895 0 0 0 0.5 
118 1 1 0.0599446 8.49486 1.3085 188 0 1 350.917 -7.92572 12.5337 -85.4055 -114.301 -183.769 0 0 0 0.5 
279 1 1 3.53029 6.799 1.51294 476 1 0 233.741 -19.8774 0.379884 -3882.72 3407.45 -202.41 0 0 0 0.5 
554 2 2 3.77373 6.4413 0.58437 -262 -1 0 209.949 -45.8229 -10.4207 -2804.85 225.054 268.003 0 0 0 0.5 
597 2 2 1.65409 8.78813 1.0251 -145 -1 1 345.493 11.379 -32.9538 0 0 0 0 0 0 0.5 
213 1 1 0.505216 5.14183 1.24203 312 1 1 12.7896 2.83504 -1.8813 -372.643 -1899.1 -2229.09 0 0 0 0.5 
362 1 1 2.42443 9.22849 0.239461 73 0 1 463.616 -20.8374 -9.17232 0 0 0 0 0 0 0.5 
752 2 2 1.35953 6.88069 0.37625 36 0 -1 235.865 -6.22644 3.95765 -3155.59 4986.83 -1274.2 0 0 0 0.5 
218 1 1 1.98241 5.28309 0.618364 7 0 0 25.3677 -16.0589 -11.8587 197.271 167.529 -41.7145 0 0 0 0.5 
144 1 1 4.36367 6.42396 0.0777742 26 0 0 182.414 -17.8994 -21.7757 2924.09 -644.471 -513.914 0 0 0 0.5 
19 1 1 1.89254 9.39844 1.78836 -148 -1 0 439.265 7.48039 -9.66296 828.76 -1610.83 1729.65 0 0 0 0.5 
135 1 1 2.4498 6.2962 1.52253 13 0 0 110.482 30.0118 0.713986 149.501 652.481 -241.993 0 0 0 0.5 
216 1 1 1.32698 5.36271 1.67929 -132 0 1 21.9776 -3.97052 -27.1003 185.4 411.476 -622.11 0 0 0 0.5 
392 1 1 1.77236 6.14889 0.564134 -13 0 0 84.1643 7.50725 0.845498 4995.81 -1342.36 -25.6845 0 0 0 0.5 
886 2 2 0.11329 7.31036 0.280961 363 1 0 256.099 -12.9717 4.04379 582.122 -1089.9 -447.396 0 0 0 0.5 
664 2 2 4.04117 8.83741 1.05713 133 0 0 379.67 -1.07448 -12.8759 1708.66 -3388.87 870.433 0 0 0 0.5 
846 2 2 4.06453 6.16108 1.73892 -42 0 1 126.081 -19.0553 5.78269 1116.39 -1506.05 -671.119 0 0 0 0.5 
942 2 2 4.07255 8.45375 1.90782 72 0 0 310.338 13.433 19.9503 749.854 -4983.84 -387.955 0 0 0 0.5 
801 2 2 4.21358 7.43328 0.591389 -294 -1 -1 285.573 -8.34334 -6.4567 -312.394 5.29625 -1071.97 0 0 0 0.5 
471 1 1 4.30946 6.81946 1.12965 99 0 1 197.775 -10.2704 18.7963 1699.39 172.355 185.873 0 0 0 0.5 
100 1 1 4.50607 5.41136 0.456265 0 0 0 31.9729 -28.6856 -24.1892 -2799.85 8.00428 729.607 0 0 0 0.5 
265 1 1 4.58809 7.50945 1.4981 -59 0 1 240.489 23.359 -12.6766 -234.747 2816.06 2365.17 0 0 0 0.5 
103 1 1 4.78905 8.19823 0.28031 34 0 1 339.781 3.946 -4.78529 -1314.2 1180.55 133.292 0 0 0 0.5 
75 1 1 4.50223 6.15366 3.73964 282 1 1 126.61 -7.95437 -10.2445 2284.53 -1133.34 -1111.63 0 0 0 0.5 
396 1 1 3.84479 8.09702 2.70053 -2 0 1 327.528 1.43887 25.7651 -406.779 -268.098 619.266 0 0 0 0.5 
164 1 1 0.735539 8.85803 2.14165 93 0 -1 402.836 -12.4551 -21.7886 -2164.8 390.857 -14.6716 0 0 0 0.5 
442 1 1 4.56348 6.98171 3.4832 28 0 0 204.229 8.02314 -4.05128 458.096 -1598.31 -1171.63 0 0 0 0.5 
313 1 1 2.91788 6.96689 2.10974 -202 -1 -1 243.67 -22.0781 17.2044 -1193.28 55.3157 553.024 0 0 0 0.5 
472 1 1 0.91103 5.035 3.09515 13 0 1 24.2498 10.3373 -17.1822 2796.52 2509.68 -1246.86 0 0 0 0.5 