# vtk DataFile Version 4.2
Generated by LIGGGHTS
ASCII
DATASET POLYDATA
POINTS 1000 float
1.50396 1.82466 0.993507 2.43995 1.15484 0.507139 2.38381 2.65476 0.195228 
0.687476 1.86819 1.24753 0.168664 0.192077 1.25685 2.24258 1.97448 1.06091 
1.58439 0.90881 0.644832 0.748932 2.11812 0.335877 4.09906 2.69526 0.807214 
0.0247595 0.765496 1.68558 1.31177 3.26486 1.44064 0.918633 1.19727 1.78936 
3.21691 4.59441 1.17816 2.1719 0.247044 0.601911 2.03911 3.76583 1.10605 
0.947951 0.375575 1.17923 1.61114 2.72092 0.564478 4.24495 2.07249 1.43419 
0.951747 2.97953 0.643887 1.45809 0.0122709 1.90452 2.69863 3.61154 0.656911 
0.535207 0.864448 0.644761 1.5702 3.87848 0.509142 4.39934 4.6888 0.813236 
1.67013 2.65093 1.77604 4.82982 3.51804 1.71208 2.36393 4.85094 0.692876 
4.68733 2.04396 0.552012 0.62556 4.8123 1.05176 2.79121 2.04766 0.385594 
0.567533 3.49802 1.73731 0.276854 4.72232 0.188283 0.0235351 3.664 0.293331 
3.32257 2.79738 0.878068 0.0742047 2.61509 0.0342127 2.94025 0.598196 1.33063 
3.73186 1.26248 1.6758 3.15678 2.02064 1.10768 2.6026 1.81423 1.78341 
1.70224 1.66144 0.0796693 1.37405 4.62559 0.647696 3.97351 2.96756 1.71772 
3.3475 3.48429 0.548834 4.01448 0.406357 1.49399 3.00333 0.0854362 1.72464 
3.12027 0.0483507 0.672535 0.72691 3.74856 0.868417 2.51998 3.6711 1.82544 
2.49047 4.21437 0.115543 2.67027 2.84824 1.36781 2.76815 1.20676 1.33398 
4.0985 1.21899 0.132465 4.1374 3.86157 1.2619 4.9697 0.40431 1.51063 
2.5638 0.173092 3.64692 4.56051 2.99559 2.50797 1.73155 3.89692 2.8694 
1.18022 1.0238 2.76558 1.21966 3.32718 3.44833 1.74077 2.66686 3.56107 
1.34826 0.558014 3.60565 0.875841 2.42589 3.38301 3.68859 2.19281 3.0597 
4.71597 0.416985 3.24567 0.312807 0.569395 3.58524 1.44359 2.50066 2.61979 
0.0334643 1.73273 3.37133 1.18463 1.77175 3.02444 2.38802 3.39025 3.11886 
0.357033 2.6736 2.38604 1.77827 3.36635 2.30008 0.959686 4.44058 3.85647 
1.94928 3.87151 3.96527 1.58373 1.50498 3.7578 0.138473 1.78278 2.0532 
1.53997 0.513045 2.57803 2.32116 0.736901 2.17964 3.36132 3.37781 3.24516 
0.26936 0.00865901 2.51578 0.314681 3.14081 3.17108 4.57156 3.91855 2.31417 
4.39054 0.994442 3.91843 2.67593 2.41819 2.49141 0.296607 4.34436 3.12472 
3.97815 3.44354 3.99501 3.17341 3.24777 2.3176 3.69124 1.37346 2.68065 
0.747107 4.30379 2.01639 1.99921 1.99772 2.0321 1.22713 4.57813 2.9425 
1.68369 4.4456 2.05115 2.71687 1.28681 3.48365 3.69257 1.40338 3.61899 
3.60379 0.199092 3.56448 3.12256 0.56848 2.94477 2.94263 2.22083 3.81888 
3.84886 0.610687 2.36947 2.65669 4.35558 3.06796 3.24281 4.35845 2.07675 
0.703219 4.9742 2.42679 3.08733 1.5775 2.25296 4.81913 1.42631 3.05636 
4.13743 4.54243 2.0977 4.51842 2.04981 2.52032 4.49994 2.14083 3.50097 
4.85484 2.95783 3.33444 4.93342 3.79795 3.56976 2.22605 2.57715 4.3451 
4.70337 2.94425 4.27645 4.21238 0.0626154 4.1592 1.58257 0.67685 5.77291 
2.62911 0.0348697 5.61148 0.502477 2.10091 5.945 1.82651 3.9271 5.28283 
2.35007 1.7071 5.39883 3.7258 2.951 4.82191 2.62365 4.58099 4.24625 
3.39629 0.337491 5.13688 1.06569 2.92253 5.87749 2.02238 1.16104 4.53434 
1.29263 1.08073 4.54308 0.374149 1.54979 4.21065 1.8853 2.54466 5.24962 
0.863506 2.90023 4.44648 0.90318 0.128198 5.15121 1.01313 0.913684 5.1918 
0.783667 1.65862 5.22223 -0.00713717 1.56296 4.91374 1.27946 2.3675 4.38651 
0.135913 4.2874 4.3581 0.950065 3.62003 5.01332 3.01927 1.04101 5.54036 
0.675262 3.58545 4.07027 4.48713 4.67093 5.24256 4.61414 2.05007 4.41874 
3.4871 4.66057 4.34744 3.43069 1.44995 4.764 2.72975 0.8737 4.30715 
2.56502 4.64062 5.88806 3.11436 0.0732778 4.34026 0.484749 3.49198 5.83731 
1.11196 4.51556 4.70767 3.16074 2.22583 5.07718 0.268089 4.14147 5.35113 
3.60686 3.88897 4.82328 3.35085 3.59509 5.72333 3.70912 2.17125 4.21075 
2.65445 3.66509 4.61525 4.94971 3.43976 5.43013 3.93244 1.788 5.89797 
2.75082 2.72677 5.84461 4.2972 3.34105 5.16021 4.30251 1.48703 5.13508 
4.34846 3.88852 5.84278 4.47907 0.731435 5.12991 4.94751 0.235742 4.88008 
1.09296 0.797355 7.041 1.14177 1.85226 6.39958 0.941956 1.62699 7.46336 
1.68642 2.39668 7.88065 4.11032 4.19431 7.85868 1.89474 2.32048 6.97899 
0.798455 2.38583 7.74997 2.44259 2.44389 7.69019 2.06737 0.836223 7.04508 
3.80189 0.919433 6.03964 4.48788 2.51041 6.49146 1.19885 3.35953 7.46807 
2.32822 1.226 6.22919 2.01251 2.96471 6.35299 4.72663 2.6465 7.71739 
2.52263 1.85386 6.88953 2.61456 0.457595 7.47853 0.941598 0.139597 7.91328 
0.841089 0.945689 6.14134 3.44759 3.29616 7.39622 2.06505 4.21268 7.61103 
2.11283 3.53867 7.15051 3.92903 4.52577 6.26576 4.40206 1.45544 7.69714 
3.95016 0.0812999 7.4636 3.97896 3.00751 7.93183 0.406481 3.68465 7.46847 
4.26321 3.31055 6.99194 1.71735 4.65804 6.02132 2.74615 3.32528 7.87704 
2.91405 4.65093 7.40121 2.80734 2.73968 6.78122 3.55465 2.58735 6.08405 
3.78803 1.43824 7.11752 2.91196 4.07918 6.37303 0.660585 3.15338 6.73033 
3.46299 4.18002 7.47343 0.828522 4.96125 6.45899 0.688051 4.51129 7.47997 
4.59033 4.18533 6.96144 4.39733 0.446599 6.15042 0.161316 4.58995 6.70575 
3.81419 4.99189 7.07782 2.98149 0.511218 6.38473 0.0624098 4.47649 7.94367 
0.588062 4.03762 6.48458 3.23613 1.51222 6.4687 3.20696 2.0156 7.39332 
3.08548 3.60266 6.80093 3.56652 0.692873 7.92168 3.53552 0.613348 6.96174 
4.89902 4.7326 6.12913 2.19844 1.97015 8.52839 2.13056 0.617697 9.34102 
3.58194 4.40159 9.31155 3.65373 0.518784 9.05255 1.75775 2.2776 9.47687 
1.77913 0.88018 8.01577 1.73965 3.92594 9.64962 4.82567 2.48985 9.68067 
4.48034 4.73612 9.04853 4.33437 0.875622 8.4179 3.70595 1.52489 8.25786 
2.52202 4.00205 8.42074 1.00701 2.77284 9.69534 0.795585 2.77246 8.73057 
1.86967 0.0858345 8.49435 0.286185 1.69604 8.33182 1.74409 3.31935 8.12944 
1.14856 0.586997 9.58017 1.00423 1.19202 8.28239 2.60102 3.32935 9.74651 
1.83147 1.3922 9.11626 0.742823 1.38474 9.95183 2.1774 3.47344 9.07405 
1.65065 2.67558 8.71428 3.05137 0.804943 9.71096 4.74375 3.826 8.2857 
2.44034 2.847 8.75824 3.45798 2.19627 9.04721 0.0700537 2.06208 9.2546 
0.584634 1.31919 9.11654 4.80514 1.17791 9.20075 2.19225 4.57494 9.14109 
3.61242 3.55878 9.6082 1.54543 4.5718 8.29587 3.27631 3.53677 8.70714 
1.8338 4.93864 9.89333 0.0875297 3.73283 8.82813 4.03927 3.16114 8.90252 
0.559445 4.53465 8.63949 2.54217 4.85596 8.32379 2.73341 1.55196 9.5849 
2.82779 2.51731 9.45239 0.858047 3.59077 9.58772 0.894727 4.44863 9.53645 
2.93114 1.87284 8.26554 3.40949 4.46758 8.4173 0.989144 3.71527 8.35217 
4.31231 1.89744 9.02595 2.66964 5.16037 1.56924 3.46683 6.50888 0.248852 
0.0867929 9.81965 0.493698 0.186131 7.75681 0.80319 0.191857 8.69029 0.332497 
4.55587 6.52504 1.52537 3.94683 7.49371 1.47694 4.40934 5.6938 1.08483 
2.58027 9.52174 0.0439179 0.585478 9.80519 1.94315 3.03235 8.52369 1.5991 
3.61907 6.48513 1.22654 3.11575 9.32972 1.34425 3.61346 7.48323 0.0994613 
0.134013 8.41428 1.34457 4.21832 8.60594 1.34708 0.953632 9.34224 1.21319 
3.96353 5.84908 1.90263 1.33272 6.45364 0.137915 1.64429 9.38733 0.278204 
4.10227 9.53511 1.63505 3.2053 7.97485 0.613245 3.07536 5.96441 1.95275 
0.511462 5.65088 1.87096 1.09763 5.35687 1.6876 1.44081 7.2431 0.37386 
0.395435 6.08583 0.0849779 2.23442 5.78666 0.557133 0.638817 6.62425 0.834385 
0.433475 7.80313 0.00244777 1.12782 7.50489 1.20907 4.07923 9.69271 0.627497 
2.45124 7.74914 1.18545 1.96725 8.32345 1.43282 3.43032 8.85426 0.750674 
1.37835 5.97468 0.927404 1.77673 5.17075 1.36893 0.570973 6.7285 1.70914 
2.48063 6.5321 1.33156 -0.0356511 5.898 1.78694 4.59397 7.1954 0.96675 
1.56732 7.30025 1.98571 0.257444 7.32162 1.52969 2.42862 8.7652 0.668886 
1.44758 8.53787 0.599962 1.7709 6.90859 1.13027 1.78135 7.94154 0.567969 
0.513452 5.64742 0.893178 3.20597 7.7418 1.68315 3.44581 5.59751 0.736708 
4.48832 7.76022 0.202504 0.508033 7.01206 0.00186054 4.87918 8.696 0.240455 
4.93933 5.63976 0.104227 0.702205 9.62625 2.81229 2.1928 9.786 2.27336 
3.9694 7.56634 2.66115 0.772102 7.63346 3.65994 3.50132 5.80156 3.15899 
3.1136 7.5995 2.6897 3.43404 8.17487 3.76795 0.0143135 7.71278 2.38746 
3.11293 9.62362 2.28317 2.80483 6.48614 2.76553 -0.0760733 9.01443 2.1062 
3.55597 5.04528 3.5307 3.72718 5.16717 2.51726 2.81383 8.51829 2.95165 
2.36531 7.95717 2.28421 0.308767 8.28281 3.83093 3.88841 6.44314 3.7664 
4.50741 7.22824 2.03123 3.63206 9.61103 2.96608 0.567259 8.5514 2.13499 
3.58974 8.93701 2.31417 3.75181 9.1839 3.77227 2.88393 9.32391 3.8329 
0.533152 8.81957 3.04954 0.0210843 9.75073 3.45921 4.47245 8.28752 3.21966 
1.54324 9.80478 3.09036 0.26119 5.89349 3.90015 0.717016 7.51625 2.72147 
1.29825 5.27385 3.54813 2.27654 9.30236 3.0099 2.54141 5.13653 3.40041 
4.8484 5.1159 2.93949 2.49115 7.96845 3.67852 1.27414 5.91624 2.54919 
1.05191 6.94051 3.92762 3.77303 6.59251 2.59189 1.50016 7.5763 3.03884 
1.57151 8.23258 2.30329 1.24635 6.35921 3.3219 2.34939 5.30379 2.46711 
0.0913514 5.78853 2.7539 1.90016 8.42219 3.36225 0.419672 5.23952 3.20202 
0.969687 6.80075 2.47052 1.96892 9.20449 3.93411 0.496914 6.65432 3.2043 
2.3627 7.23038 3.25062 4.36361 6.05326 2.88011 4.3942 9.22282 3.10058 
4.75361 7.42264 2.95042 4.8201 7.70211 3.7971 4.78473 8.80346 3.98784 
-0.0156202 6.49997 5.99501 3.79418 8.25328 5.1152 1.73842 9.32093 4.81645 
2.59818 7.36672 5.43318 3.60386 9.32969 4.73316 2.91224 5.38508 5.24417 
4.61577 9.39418 5.10974 3.70032 7.47661 4.48806 0.484024 9.01604 4.49008 
4.20631 7.78102 5.41568 -0.067007 8.00783 5.1698 2.74649 7.54693 4.43767 
3.32153 8.80408 5.49957 3.70643 5.11028 5.1418 4.14467 6.29344 5.96953 
0.881779 8.20806 4.64873 1.23906 9.93933 4.38595 2.90551 8.15197 5.06837 
2.97562 6.72176 5.14244 0.95556 9.24391 5.39087 3.64048 6.22006 5.13076 
1.65989 7.70147 4.04367 1.43723 5.96163 4.16013 0.523675 5.11679 4.10904 
2.5007 6.75182 4.06547 2.09449 9.0461 5.71828 2.64365 8.5264 4.28776 
2.5652 5.48357 5.95152 2.08522 6.22441 4.91723 2.23446 8.07481 5.88052 
0.858142 5.51786 5.61403 0.0671749 5.85483 5.14856 2.70488 9.22331 4.88265 
2.17014 5.13723 5.08848 1.72556 8.44688 4.47674 4.08295 9.69444 5.55334 
1.74602 6.88361 4.40207 0.264866 6.71966 4.41843 1.68169 5.45074 5.70484 
[...]
POINT_DATA 1000
FIELD FieldData 7
id 1 1000 int
22 443 293 527 876 165 108 159 67 
358 654 25 401 638 9 958 130 416 
148 47 214 853 465 38 722 626 886 
549 380 252 339 90 870 162 616 797 
368 482 23 2 696 541 250 300 183 
569 908 819 446 603 420 298 39 523 
823 579 284 389 767 288 619 785 947 
967 456 851 809 877 486 196 770 56 
951 247 354 269 566 513 715 361 782 
907 794 153 641 51 842 699 952 332 
978 514 875 763 598 232 117 864 75 
742 480 690 213 833 180 413 895 995 
816 43 93 191 40 896 658 666 939 
940 544 78 295 575 501 572 10 308 
661 228 798 531 12 390 21 104 7 
182 702 193 415 92 620 838 647 204 
113 220 79 292 82 485 478 132 747 
348 55 673 291 115 163 383 496 61 
988 393 754 899 932 961 283 200 487 
74 31 229 783 42 917 529 826 509 
805 743 142 891 86 139 550 408 516 
645 452 611 927 184 84 926 709 733 
331 65 347 5 126 956 992 887 167 
971 737 750 912 708 510 35 430 711 
484 804 199 441 868 787 150 910 257 
954 648 374 17 233 810 806 329 843 
983 675 652 310 614 972 125 725 590 
138 218 208 582 651 759 863 621 341 
861 11 929 577 264 534 633 946 357 
396 817 685 776 548 736 758 503 202 
303 111 273 179 462 701 178 141 950 
323 850 928 561 366 574 457 194 343 
545 670 248 779 461 723 385 894 615 
532 112 719 775 274 279 392 26 144 
832 34 170 344 948 227 906 505 442 
825 963 801 962 571 985 266 931 212 
387 15 866 994 197 334 996 897 594 
969 677 324 923 602 682 902 576 243 
562 275 100 669 497 745 8 642 808 
76 238 370 340 19 299 634 752 414 
617 489 659 757 402 164 558 788 460 
604 707 500 553 319 376 777 552 610 
657 493 811 255 874 732 156 244 342 
490 694 556 219 160 551 631 336 203 
789 313 431 818 504 511 859 831 970 
231 893 99 564 630 522 151 937 884 
847 688 271 1 791 353 892 474 226 
528 781 991 665 979 53 618 662 188 
59 998 306 706 570 245 362 230 166 
915 379 881 543 256 436 684 44 448 
175 772 398 359 140 206 305 793 169 
423 636 796 756 672 122 397 678 71 
878 438 463 261 349 726 304 6 643 
567 87 559 360 589 123 46 124 45 
77 66 585 632 388 494 858 840 830 
920 538 325 296 903 242 453 272 735 
205 668 728 976 471 377 52 72 588 
287 326 30 369 404 36 607 693 547 
993 187 225 422 520 129 281 760 327 
483 762 941 265 568 4 795 526 744 
944 769 155 606 530 98 1000 450 41 
322 426 18 581 406 613 828 147 149 
812 738 91 710 439 597 975 427 765 
746 421 984 755 80 424 96 464 312 
557 925 434 966 333 691 189 282 592 
367 20 267 428 731 190 418 350 660 
278 172 207 871 216 933 957 835 301 
930 741 911 161 445 821 768 270 860 
110 405 217 346 751 999 778 454 400 
803 495 624 674 909 786 921 593 253 
364 844 492 700 865 345 980 913 612 
748 102 488 524 251 609 955 959 64 
24 185 922 356 466 628 88 836 399 
258 862 829 328 254 394 989 309 667 
918 58 211 502 338 580 355 703 120 
629 105 533 16 314 307 101 717 481 
640 650 780 262 721 506 521 33 157 
625 734 459 586 222 608 671 880 168 
987 311 224 845 260 890 565 433 974 
201 584 784 697 290 813 375 285 555 
977 173 425 378 210 573 596 938 268 
106 539 373 905 382 639 95 321 186 
181 761 249 935 277 317 904 48 968 
241 318 827 623 766 121 537 391 237 
656 740 467 857 136 764 316 410 472 
692 209 409 637 663 583 578 118 934 
924 774 855 263 644 259 856 595 916 
683 171 713 914 739 649 73 240 127 
563 627 655 192 883 458 852 152 953 
412 986 302 942 587 419 973 235 49 
591 365 664 473 449 215 542 280 440 
680 867 820 536 444 889 799 560 600 
195 3 83 395 724 455 873 351 704 
85 14 792 476 945 145 841 885 234 
997 176 990 800 477 518 849 133 407 
62 839 63 846 698 901 802 320 727 
695 451 601 872 982 499 653 729 114 
475 131 837 535 337 507 848 154 384 
94 749 352 687 512 718 221 676 622 
900 479 771 50 469 335 143 540 919 
81 174 432 720 790 525 712 814 435 
517 807 294 103 470 834 815 773 981 
686 646 447 854 753 949 519 363 515 
276 289 57 898 491 158 97 437 429 
546 888 964 965 822 70 119 869 468 
879 943 599 54 297 146 730 960 239 
705 689 882 498 37 679 371 411 135 
28 330 605 681 417 137 198 386 107 
134 824 13 29 714 60 372 128 89 
32 286 109 223 635 69 315 381 177 
936 68 403 508 246 27 116 236 554 
716 
type 1 1000 int
1 1 1 2 2 1 1 1 1 
1 2 1 1 2 1 2 1 1 
1 1 1 2 1 1 2 2 2 
2 1 1 1 1 2 1 2 2 
1 1 1 1 2 2 1 1 1 
2 2 2 1 2 1 1 1 2 
2 2 1 1 2 1 2 2 2 
2 1 2 2 2 1 1 2 1 
2 1 1 1 2 2 2 1 2 
2 2 1 2 1 2 2 2 1 
2 2 2 2 2 1 1 2 1 
2 1 2 1 2 1 1 2 2 
2 1 1 1 1 2 2 2 2 
2 2 1 1 2 2 2 1 1 
2 1 2 2 1 1 1 1 1 
1 2 1 1 1 2 2 2 1 
1 1 1 1 1 1 1 1 2 
1 1 2 1 1 1 1 1 1 
2 1 2 2 2 2 1 1 1 
1 1 1 2 1 2 2 2 2 
2 2 1 2 1 1 2 1 2 
2 1 2 2 1 1 2 2 2 
1 1 1 1 1 2 2 2 1 
2 2 2 2 2 2 1 1 2 
1 2 1 1 2 2 1 2 1 
2 2 1 1 1 2 2 1 2 
2 2 2 1 2 2 1 2 2 
1 1 1 2 2 2 2 2 1 
2 1 2 2 1 2 2 2 1 
1 2 2 2 2 2 2 2 1 
1 1 1 1 1 2 1 1 2 
1 2 2 2 1 2 1 1 1 
2 2 1 2 1 2 1 2 2 
2 1 2 2 1 1 1 1 1 
2 1 1 1 2 1 2 2 1 
2 2 2 2 2 2 1 2 1 
1 1 2 2 1 1 2 2 2 
2 2 1 2 2 2 2 2 1 
2 1 1 2 1 2 1 2 2 
1 1 1 1 1 1 2 2 1 
2 1 2 2 1 1 2 2 1 
2 2 1 2 1 1 2 2 2 
2 1 2 1 2 2 1 1 1 
1 2 2 1 1 2 2 1 1 
2 1 1 2 2 2 2 2 2 
1 2 1 2 2 2 1 2 2 
2 2 1 1 2 1 2 1 1 
2 2 2 2 2 1 2 2 1 
1 2 1 2 2 1 1 1 1 
2 1 2 2 1 1 2 1 1 
1 2 1 1 1 1 1 2 1 
1 2 2 2 2 1 1 2 1 
2 1 1 1 1 2 1 1 2 
2 1 2 1 2 1 1 1 1 
1 1 2 2 1 1 2 2 2 
2 2 1 1 2 1 1 1 2 
1 2 2 2 1 1 1 1 2 
1 1 1 1 1 1 2 2 2 
2 1 1 1 2 1 1 2 1 
1 2 2 1 2 1 2 2 2 
2 2 1 2 2 1 2 1 1 
1 1 1 2 1 2 2 1 1 
2 2 1 2 1 2 2 1 2 
2 1 2 2 1 1 1 1 1 
2 2 1 2 1 2 1 1 2 
1 1 1 1 2 1 1 1 2 
1 1 1 2 1 2 2 2 1 
2 2 2 1 1 2 2 1 2 
1 1 1 1 2 2 2 1 1 
2 1 2 2 2 2 2 2 1 
1 2 1 2 2 1 2 2 2 
2 1 1 2 1 2 2 2 1 
1 1 2 1 1 2 1 2 1 
1 2 2 1 1 1 2 1 2 
2 1 1 2 1 2 1 2 1 
2 1 2 1 1 1 1 2 1 
2 2 2 1 2 2 2 1 1 
2 2 1 2 1 2 2 2 1 
2 1 1 2 1 2 2 1 2 
1 2 2 2 1 2 1 1 2 
2 1 1 1 1 2 2 2 1 
1 2 1 2 1 2 1 1 1 
1 2 1 2 1 1 2 1 2 
1 1 2 2 2 1 2 1 1 
2 2 1 2 1 2 1 1 1 
2 1 1 2 2 2 2 1 2 
2 2 2 1 2 1 2 2 2 
2 1 2 2 2 2 1 1 1 
2 2 2 1 2 1 2 1 2 
1 2 1 2 2 1 2 1 1 
2 1 2 1 1 1 2 1 1 
2 2 2 2 1 2 2 2 2 
1 1 1 1 2 1 2 1 2 
1 1 2 1 2 1 2 2 1 
2 1 2 2 1 2 2 1 1 
1 2 1 2 2 2 2 1 2 
2 1 2 2 2 1 2 2 1 
1 1 2 2 1 2 2 1 1 
1 2 1 2 2 2 1 2 2 
2 1 2 1 1 1 1 2 2 
1 1 1 2 2 2 2 2 1 
2 2 1 1 1 2 2 2 2 
2 2 1 2 2 2 2 1 2 
1 1 1 2 1 1 1 1 1 
2 2 2 2 2 1 1 2 1 
2 2 2 1 1 1 2 2 1 
2 2 2 1 1 2 1 1 1 
1 1 2 2 1 1 1 1 1 
1 2 1 1 2 1 1 1 1 
1 1 1 1 2 1 1 1 1 
2 1 1 2 1 1 1 1 2 
2 
i 3 1000 int
142 1 0 120 1 0 -139 0 1 
8 0 0 -78 0 1 36 0 0 
-161 0 1 223 1 0 236 1 1 
-57 0 0 -77 0 1 -124 0 0 
54 0 0 65 1 -1 261 1 0 
179 1 2 -50 0 0 -96 0 0 
-26 0 1 -116 0 0 -20 0 0 
167 1 0 -21 0 1 -79 0 1 
-112 0 0 -56 0 -1 286 1 0 
-146 0 0 -44 0 1 154 1 1 
-67 0 1 53 0 0 1 0 1 
153 1 0 -33 0 1 183 1 0 
32 1 0 57 1 0 -124 0 1 
-44 0 1 34 0 0 178 1 0 
-52 0 1 110 1 -1 106 1 -1 
210 1 0 -79 0 1 -56 0 1 
-45 0 1 196 1 0 -9 0 1 
-128 0 0 -97 0 0 -124 0 1 
214 1 -1 -45 0 0 -98 0 0 
-78 0 0 -100 0 1 -31 0 -1 
-66 0 1 281 1 1 -2 0 1 
174 1 -1 -65 0 0 -152 0 0 
174 1 0 198 1 1 189 1 1 
223 1 0 -56 0 0 -53 0 0 
-41 0 0 -164 0 0 -50 0 1 
-148 0 0 248 1 1 -78 0 0 
151 1 0 -53 0 0 83 0 -1 
-118 0 0 4 0 0 25 0 0 
-32 0 0 -5 0 1 -120 0 1 
31 0 -1 10 0 0 -136 0 0 
31 0 0 -82 0 0 -43 0 1 
81 1 1 -64 0 1 -78 0 1 
-160 0 0 -28 0 1 205 1 1 
4 0 -1 -105 0 2 121 1 0 
239 1 1 -10 0 0 3 0 0 
-42 0 0 -80 0 0 -130 0 1 
-9 0 0 -116 0 0 128 1 -1 
146 1 0 -37 0 0 -13 0 -1 
-55 0 0 19 0 0 -47 0 0 
2 0 -1 -1 0 0 -15 0 1 
123 1 -1 141 1 -1 161 1 0 
-83 0 0 -155 0 1 -75 0 1 
-67 0 -1 -111 0 1 -165 0 0 
-65 0 0 -92 0 0 120 1 -1 
-88 0 1 -3 0 0 -68 0 0 
51 0 -1 197 1 0 179 1 0 
-3 0 -1 71 1 0 -19 0 0 
4 0 1 -93 0 0 -140 0 1 
44 0 -1 270 1 0 -105 0 1 
-303 -1 -1 41 0 -1 -104 0 1 
-16 0 1 51 0 0 -187 0 0 
-26 0 0 119 1 0 135 1 -1 
-115 0 0 130 1 -1 171 1 0 
-77 0 0 88 0 -1 -131 0 0 
19 0 0 92 1 -1 -105 0 0 
-135 0 -1 -72 0 0 -12 0 0 
-146 0 0 -129 0 0 -123 0 -1 
2 0 0 153 1 0 -125 0 0 
-67 0 1 -86 0 0 37 0 0 
-20 0 0 265 1 0 -108 0 0 
-112 0 -1 -62 0 0 -96 0 -1 
18 0 -1 -33 0 1 -36 0 0 
52 0 0 -18 0 -1 -103 0 1 
119 1 -1 26 0 0 -42 0 0 
22 0 0 55 0 0 115 0 0 
148 1 0 133 1 0 119 0 -1 
-10 0 -1 -65 0 0 -11 0 -1 
28 0 -1 185 1 -1 -91 0 0 
-138 0 0 146 1 -1 175 1 -1 
51 0 0 -59 0 0 -125 0 0 
11 0 -1 -140 0 0 -49 0 -1 
-134 0 1 -18 0 0 124 1 -1 
32 0 0 -159 0 -1 -223 0 -1 
49 0 0 -86 0 1 -60 0 0 
92 1 -1 -47 0 1 -44 0 0 
187 1 -1 202 1 0 -26 0 0 
-109 0 -1 -107 0 0 43 0 0 
-92 0 0 -124 0 0 -32 0 0 
5 0 -1 -66 0 -1 -33 0 0 
70 1 0 130 1 0 15 0 -1 
-244 -1 0 -36 0 -1 -20 0 -1 
-50 0 0 11 0 -1 -29 0 0 
-7 0 -1 25 0 -1 -78 0 -1 
-57 0 0 3 0 0 14 0 -1 
-50 0 0 -20 0 -1 -21 0 1 
172 1 -1 -20 0 0 45 0 1 
-158 -1 1 87 0 0 -236 -1 1 
-23 0 1 44 0 0 28 0 1 
-133 -1 1 -122 -1 1 -236 -1 2 
1 0 0 3 0 0 103 0 0 
153 0 1 130 0 0 -183 -1 2 
116 0 0 131 0 0 91 0 0 
57 0 0 -77 -1 1 25 0 -1 
-246 -1 0 94 0 1 16 0 0 
71 0 0 -11 0 1 15 0 1 
41 0 0 -249 -1 0 -67 -1 1 
119 0 -1 -80 -1 1 -238 -1 0 
-2 0 0 261 1 0 106 0 0 
-225 -1 0 11 0 0 161 0 0 
52 0 0 9 0 0 157 0 1 
-147 -1 0 -200 -1 -1 392 1 0 
-14 0 0 152 0 0 20 0 0 
0 0 0 158 0 1 135 0 0 
75 0 0 227 0 0 -126 -1 1 
91 0 0 -168 -1 0 19 0 0 
124 0 -1 88 0 0 -241 -1 -1 
-139 -1 0 51 0 1 75 0 0 
-208 -1 0 30 0 0 191 0 0 
-191 -1 0 -116 -1 2 37 0 -1 
77 0 0 104 0 0 79 0 0 
-75 -1 0 52 0 0 -130 -1 1 
123 0 0 2 0 1 119 0 0 
147 0 0 143 0 0 35 0 0 
241 1 1 93 0 0 -59 0 0 
126 0 1 -137 -1 0 -11 0 0 
-264 -1 0 171 0 1 -46 -1 1 
74 0 1 -232 -1 0 88 0 0 
113 0 1 -220 -1 0 -17 0 0 
12 0 0 -111 -1 0 16 0 0 
84 0 -1 22 0 -1 133 0 0 
85 0 1 90 0 -1 -113 -1 0 
76 0 0 -170 -1 0 62 0 -1 
68 0 0 84 0 0 -19 0 0 
98 0 1 -332 -1 0 43 0 0 
-254 -1 1 17 0 -1 -171 -1 0 
-167 -1 -1 74 0 -1 46 0 -1 
96 0 0 198 0 0 54 0 0 
-143 -1 1 104 0 0 -255 -1 1 
48 0 0 -322 -1 0 -11 0 1 
-197 -1 0 -209 -1 0 118 0 -1 
13 0 -1 93 0 0 16 0 0 
34 0 0 100 0 0 -160 -1 0 
-72 0 0 -154 -1 -1 -104 -1 -1 
140 0 0 72 0 0 -22 0 -1 
-191 -1 1 71 0 0 203 0 -1 
-37 0 1 12 0 0 -168 -1 -1 
20 0 0 89 0 0 -12 0 1 
-12 0 0 -76 -1 0 66 0 0 
25 0 0 -33 -1 1 -51 0 0 
-198 -1 -1 46 0 -1 121 0 0 
54 0 -1 61 0 0 -138 -1 0 
83 0 -1 168 0 0 71 0 0 
128 0 1 91 0 0 57 0 0 
-91 -1 1 -92 -1 1 12 0 0 
84 0 -1 -118 0 0 81 0 -1 
63 0 0 -236 -1 1 -26 0 0 
52 0 0 104 0 0 57 0 -1 
57 0 0 -158 -1 0 -12 0 -1 
-154 -1 0 9 0 0 69 0 0 
59 0 0 76 0 -1 25 0 0 
28 0 -1 -61 0 1 104 0 -1 
-17 0 0 106 0 0 -52 0 1 
65 0 -1 156 0 -1 219 0 0 
-221 -1 0 -141 -1 0 19 0 -1 
-99 -1 1 -21 0 -1 109 0 0 
84 0 -1 29 0 -1 85 0 0 
146 0 0 13 0 -1 157 0 0 
-10 0 0 70 0 0 137 0 -1 
-157 -1 0 25 0 -1 12 0 1 
27 0 0 15 0 0 -150 -1 0 
-195 -1 0 81 0 0 -24 0 -1 
93 0 0 121 0 0 99 0 0 
144 0 0 -83 -1 0 -119 -1 0 
28 0 -1 -179 -1 0 38 0 -1 
-5 0 -1 -9 0 0 267 1 -1 
-187 -1 0 211 0 0 123 0 -2 
57 0 -2 -34 0 -1 -291 -1 0 
59 0 -1 -172 -1 -1 49 0 -1 
-112 0 -1 5 0 0 27 0 0 
54 0 -1 87 0 0 -256 -1 1 
170 0 0 175 0 0 70 0 0 
185 0 0 -9 0 0 27 0 0 
-32 0 0 11 0 0 -206 -1 -1 
81 0 0 58 0 -1 57 0 -1 
37 0 0 -70 0 0 -107 -1 0 
-252 -1 -2 68 0 0 -187 -1 -1 
-7 0 -1 -54 0 1 -53 0 0 
152 1 0 -116 0 1 -27 0 0 
-64 0 1 -66 0 0 -156 0 0 
-86 0 0 -120 0 1 152 1 0 
-85 0 1 -37 0 1 38 0 1 
-131 0 -1 -74 0 2 -49 0 0 
-96 0 0 141 1 0 -168 0 0 
125 1 0 116 1 -1 -46 0 1 
-18 0 1 -62 0 1 -45 0 1 
-50 0 1 -118 0 0 -18 0 0 
29 0 1 206 1 1 -11 0 0 
95 0 0 -62 0 0 -105 0 1 
189 1 1 -31 0 0 223 1 0 
-34 0 0 178 1 0 180 1 1 
-46 0 0 -50 0 1 -24 0 1 
-97 0 0 22 0 0 9 0 1 
155 1 0 118 1 0 -106 0 0 
-66 0 1 -25 0 0 173 1 0 
185 1 0 205 1 0 -29 0 0 
128 1 -1 -196 0 0 -147 0 0 
-80 0 1 289 1 0 -42 0 1 
-131 0 1 173 1 0 0 0 0 
194 1 -1 -170 0 0 176 1 1 
-11 0 0 -127 0 1 -26 0 0 
45 0 0 -47 0 1 70 0 0 
-40 0 0 -110 0 0 -214 -1 -1 
1 0 1 -31 0 0 183 1 0 
-131 0 -1 -96 0 1 -28 0 1 
-83 0 1 9 0 0 -61 0 0 
216 1 0 158 1 1 -40 0 0 
-150 0 1 199 1 0 -128 0 0 
202 1 0 -72 0 1 16 0 -1 
-50 0 0 -90 0 1 -147 0 1 
-69 0 1 20 0 1 -198 0 0 
-52 0 0 159 1 0 -145 0 0 
107 1 0 -103 0 -1 184 1 0 
155 1 1 -14 0 0 -21 0 1 
200 1 -1 -14 0 -1 -117 0 1 
-66 0 1 -69 0 0 -44 0 0 
10 0 1 139 1 0 47 0 -1 
174 1 -1 9 0 0 31 0 0 
33 0 0 96 1 0 37 0 1 
64 0 0 137 0 -1 -123 0 -1 
-110 0 1 -46 0 0 -62 0 0 
35 0 -1 -4 0 0 156 1 -1 
68 0 0 75 1 0 -41 0 0 
-104 0 0 44 0 -1 157 1 0 
-134 0 0 107 1 0 179 1 0 
140 1 0 -149 0 0 -149 0 -1 
-156 0 -1 143 1 0 269 1 -1 
-117 0 0 -91 0 0 206 1 -1 
-102 0 0 -91 0 0 71 0 -1 
-121 0 0 -47 0 0 -152 0 0 
-169 0 0 189 1 0 -98 0 0 
-80 0 0 238 1 0 -57 0 0 
-35 0 0 -63 0 0 13 0 0 
232 1 0 236 1 0 -46 0 0 
-25 0 0 8 0 0 56 1 0 
175 1 0 -19 0 0 -148 0 0 
-31 0 0 -126 0 0 -39 0 -1 
-99 0 0 192 1 -1 336 1 0 
-76 0 0 -95 0 0 -54 0 1 
-27 0 -1 179 1 0 202 1 0 
171 1 -1 65 0 -1 -30 0 -1 
119 1 -1 169 1 0 -143 0 0 
-154 0 0 149 1 -1 -111 0 0 
-91 0 0 16 0 -1 40 0 -1 
-57 0 -1 -99 0 0 -146 0 -1 
-62 0 -1 -204 -1 -2 82 1 0 
-20 0 0 -9 0 -1 161 1 -1 
115 1 -1 -135 0 0 -77 0 1 
-65 0 0 -139 0 0 -7 0 0 
138 1 -1 81 0 -1 225 1 0 
292 1 1 -83 0 0 -52 0 0 
-55 0 0 -68 0 0 220 1 -1 
128 1 0 -4 0 -1 -110 0 0 
-103 0 0 -71 0 0 297 1 0 
-23 0 -1 2 0 -1 -45 0 0 
-127 0 -1 -53 0 -1 7 0 1 
164 0 0 -241 -1 0 330 1 1 
-103 -1 2 85 0 0 -125 -1 1 
107 0 0 164 0 1 60 0 0 
-50 0 1 -174 -1 1 -237 -1 0 
-80 -1 1 303 1 1 -140 -1 -1 
-164 -1 1 112 0 1 -106 -1 0 
60 0 0 -24 0 0 -194 -1 1 
37 0 1 22 0 0 43 0 1 
10 -1 0 -173 -1 1 -135 -1 1 
33 0 1 -3 0 0 -222 -1 1 
28 0 1 4 0 0 36 0 0 
-183 -1 1 46 0 1 88 0 0 
-226 -1 1 59 0 1 111 0 0 
45 0 0 -22 0 1 115 0 0 
-11 0 1 13 0 0 -5 0 1 
-269 -1 1 -196 -1 0 103 0 0 
48 0 0 20 0 0 74 0 0 
-208 -1 1 -125 -1 0 -2 -1 0 
-152 -1 0 44 0 0 -133 -1 0 
-170 -1 0 76 0 1 2 0 0 
135 0 0 54 0 0 -32 0 1 
-198 -1 1 56 0 0 158 0 0 
112 0 0 -196 -1 0 21 0 0 
-170 -1 0 -2 0 1 109 0 -1 
84 0 1 26 0 1 215 1 0 
-101 -1 1 86 0 0 155 0 0 
67 0 0 37 0 0 -55 0 0 
41 0 1 69 0 1 11 0 0 
294 1 0 116 0 0 -196 -1 0 
39 0 1 137 0 1 35 0 0 
-45 0 0 -27 0 1 91 0 0 
-45 0 1 72 0 0 -125 -1 0 
41 0 1 51 0 0 -14 0 1 
88 0 0 28 0 1 103 0 0 
-5 0 0 58 0 -1 65 0 0 
252 1 0 178 0 1 -232 -1 -1 
60 0 0 92 0 0 -205 -1 0 
117 0 0 144 0 0 -150 -1 0 
-202 -1 1 3 0 0 -27 0 0 
-7 0 0 -203 -1 0 -90 -1 0 
158 0 0 57 0 -1 -185 -1 0 
92 0 0 116 0 -1 55 0 0 
-151 -1 0 75 0 0 -141 -1 0 
35 0 0 147 0 0 -96 -1 0 
95 0 0 -232 -1 0 -126 -1 0 
54 0 1 85 0 -1 48 0 0 
45 0 -1 -170 -1 0 -230 -1 -1 
103 0 0 -192 -1 1 49 0 -1 
-7 0 0 -89 -1 0 80 0 0 
15 0 0 96 0 -1 53 0 0 
147 0 -1 -96 -1 -1 100 0 -1 
55 0 -1 -56 0 0 57 0 0 
20 0 -1 67 0 0 99 0 1 
-136 -1 -1 51 0 -1 -204 -1 -1 
-205 -1 0 -216 -1 -1 134 0 0 
-42 0 0 89 0 -1 -58 -1 1 
19 0 0 -93 0 -1 -1 0 0 
26 0 0 358 1 0 68 0 -1 
64 0 -1 -108 -1 0 88 0 0 
0 0 0 -21 0 0 9 0 0 
159 0 1 -132 -1 0 78 0 -1 
67 0 0 119 0 -1 -10 0 0 
-167 -1 -1 182 0 0 -270 -1 0 
-145 -1 0 -123 -1 0 -7 0 0 
184 0 0 -295 -1 -1 -15 0 -1 
-25 0 0 -8 0 -1 4 0 -1 
55 0 -1 69 0 -1 29 0 0 
26 0 0 105 0 0 -174 -1 -1 
-7 0 0 98 0 -1 -213 -1 1 
-138 -1 0 12 0 0 16 0 -1 
109 0 -1 367 1 0 47 0 0 
-132 -1 0 58 0 0 -132 -1 0 
189 0 -1 80 0 0 47 0 0 
6 0 -1 -297 -1 0 -108 -1 0 
57 0 0 43 0 0 55 0 0 
26 0 0 114 0 0 -10 0 -1 
-281 -1 0 191 0 0 -139 -1 0 
49 0 0 -159 -1 0 -198 -1 -1 
-38 0 -1 
v 3 1000 double
-307.24095916 -6.793078448 0.56594901502 -394.82343718 2.9781833246 -16.139483476 -262.49274038 12.384463751 27.324999923 
-319.25673189 2.9327287613 12.859761911 -480.43189865 -25.547693551 -1.3308976074 -312.30155263 7.6416254492 -8.913730755 
-397.19985725 -14.92690296 10.626893687 -255.53324414 -4.845552622 13.966376955 -239.70526594 18.110898712 -5.0322151209 
-383.12057263 2.4195790614 43.124921042 -151.04619364 4.5083239238 -5.9498094791 -366.85630535 -5.4507518094 31.94313018 
-30.524768309 -8.9537038285 -16.112769521 -487.22296981 -16.875058773 -6.4029228651 -159.74350008 11.35928257 12.190047347 
-472.98370162 12.583721811 -11.573705379 -244.41300912 8.2081661103 17.904336755 -341.67563327 4.5586518571 -10.205432106 
-203.83376282 2.4794935296 4.707909912 -500.73744542 4.9818882269 -15.583645492 -178.35566306 7.2598113838 11.228353505 
-388.31879314 -8.398680682 0.87926908888 -120.21666927 -16.576742665 -27.207613249 -29.376342577 0.64136885584 -22.668224367 
-199.18470019 -9.7919289765 6.0377952452 -166.45389964 6.0596075629 -14.014121698 -9.9229638151 1.7880058658 9.1180496251 
-274.93492188 -13.032630877 4.4403253519 -15.029019725 -27.951702523 25.175701871 -290.58165558 -9.6236145612 -3.4204776169 
-155.39666512 -24.111706825 14.131072214 -32.505490176 -1.5618588541 22.495423764 -123.69458167 -14.279938328 2.7244644549 
-237.78107442 2.8621160528 7.7318016016 -193.88070012 -10.933251542 21.973531409 -462.41557792 4.0758016255 -16.733800118 
-453.19850604 26.135906152 -8.5046314953 -334.06398307 15.400802367 2.5536089894 -339.06460081 10.244237627 5.8018785926 
-308.4101441 -8.5579689909 11.875871445 -22.073289379 7.3752059035 2.9739490531 -167.0174253 -20.150236753 12.841425641 
-163.40042974 35.530834368 -13.030448707 -503.81177807 3.1967597894 -1.9084662402 -521.29694237 4.9311948549 3.179133906 
-484.89477352 -6.032086371 -26.644177085 -122.92483443 14.744348386 8.4867892092 -152.5795096 20.938577847 11.451607872 
-111.12816747 14.666693133 -26.251616466 -216.09306127 -5.9310946916 20.395458105 -426.14903377 18.650243535 -5.2076489222 
-397.82284618 -9.2898080456 -24.512698861 -114.33975594 -6.9498720029 -5.102072019 -496.49471876 12.219923258 21.020676131 
-479.70126112 -7.2862348459 -2.3737672319 -166.90929401 -13.533506178 -19.356620421 -81.08078554 8.85695425 13.689947863 
-433.01888269 13.573882216 -0.34437085752 -188.47769381 18.401382205 -25.41828801 -256.08634406 6.0071629424 7.846591004 
-455.44712506 3.4681958234 2.0669046716 -288.86322828 -0.91102307924 10.599867324 -281.08954524 12.396764285 -20.23488584 
-454.65929353 -8.3482473266 -21.057985707 -474.41937134 33.761251468 1.1850707046 -266.27554816 13.917114062 14.625150624 
-360.47032723 -2.1658630331 6.1282602488 -353.77461189 2.0104874301 5.4606215647 -135.24118384 -11.322821082 8.4313246243 
-260.58660833 23.158507024 -11.330496015 -148.65717294 -15.568149558 -3.4322032387 -42.348072908 -4.232407336 -13.985879345 
-86.577292552 -7.9487748778 -7.4812416421 -361.74671063 13.271503764 8.0630238597 -330.78863752 -14.644779198 14.63166031 
-448.86489862 -2.133200388 -7.1085098318 -464.42507186 22.714499142 -4.828010996 -143.93813721 3.8092274189 17.365455541 
-474.07775934 -0.25220956915 29.169239827 -207.10777217 9.0727880627 -35.980491932 -110.47457416 7.3984278732 18.523782477 
-371.97148597 -10.771281224 29.079878918 -268.55648138 14.050778052 41.624498365 -48.481195861 -13.016717666 5.9688179827 
-107.7045636 -6.2691598085 -2.5309952324 -154.40125916 4.7349336584 14.607547318 -363.81921654 10.53518505 16.630983062 
-44.731030095 -9.0706059366 -8.279658844 -289.22449736 -35.29033422 29.334876533 -41.620853175 9.1192125369 4.4357665094 
-37.557255439 -1.2708556844 -1.5617252664 -365.48671551 0.73779429799 -14.266173884 -363.55557632 -0.85274286682 20.843456807 
-478.48784446 8.5451239886 24.487192793 -469.92663206 3.3982085799 5.6742565782 -283.29966647 -1.9899995119 -24.278921121 
-487.85825209 -7.2985761221 1.130729618 -56.098096553 -3.1974630333 -12.126262697 -66.133248753 -12.183513737 -11.001795822 
34.129095448 8.4496876685 -2.8399586382 -372.53316288 8.2922402448 12.71827943 -364.82517241 -13.37800104 12.568109677 
-64.381357323 20.975733762 -4.4903378052 -282.07051304 -12.367118064 1.3474951974 -293.23980061 -17.7208469 -0.64158791205 
-179.54853476 0.6809814743 -10.968687795 -120.01226339 18.613915932 11.796097187 -260.52594087 11.54754285 5.3268829986 
-120.76906738 -17.033421307 15.701851128 -502.84126755 4.0552080723 1.9179285727 -357.26150771 10.99503818 -4.1643598928 
-416.69502734 -24.725761258 2.9826268327 -288.08520639 22.606849926 0.98849466323 -131.73446031 8.3133793389 -19.782429269 
-321.5593124 -2.1007752124 -10.135753665 -177.27356996 -31.054360407 -12.116279934 5.525237478 -27.719189992 -2.9127536912 
-406.717579 -0.042646336812 1.946013382 -167.18156756 -23.356758734 -9.0427657769 -400.49935346 25.093975046 12.412904054 
-421.54111818 6.2209048516 -16.298301187 -349.10212495 -3.2611080534 -13.160956054 -303.41471585 14.80385983 -2.3142972916 
-201.47508151 -16.792306966 0.56810039379 -484.90224528 -15.613489796 14.524777292 -384.19559068 -7.8719760228 14.678385839 