# vtk DataFile Version 4.2
Generated by LIGGGHTS
ASCII
DATASET POLYDATA
POINTS 1000 float
3.74359 0.197675 1.09992 1.90082 0.415704 0.382974 3.24928 2.95336 1.82417 
2.21392 1.51262 1.25893 1.84619 3.50289 1.15663 1.41913 2.58082 1.51022 
1.18723 0.535375 0.567076 0.052702 0.442396 0.797494 0.591073 0.725209 1.42084 
0.04455 1.90955 0.0431564 2.32189 0.972748 1.83051 2.91618 3.32223 0.775846 
1.31686 2.11481 0.708595 4.08163 2.45758 1.59054 1.60919 1.27287 0.675053 
1.98842 4.04917 0.00270265 4.11106 2.22764 0.523257 2.16713 3.29591 0.129658 
2.38818 2.5813 0.346796 2.3467 2.95064 1.4976 1.51059 0.879085 1.75815 
4.60552 3.91388 1.10865 1.25547 3.12301 0.244174 2.43798 0.209773 0.676 
2.38174 4.99006 1.69484 0.735901 1.55069 1.37245 2.50634 1.15865 0.743598 
3.97395 4.84487 0.881232 1.95505 4.30526 0.95177 0.479062 2.51688 0.680629 
0.970453 3.25661 1.22018 1.46736 4.79364 1.55518 1.17005 3.96192 0.532433 
0.552222 4.77525 1.52654 2.90386 4.40979 1.31979 3.63252 0.774511 1.89117 
2.93446 4.07599 0.249205 4.50415 1.44716 1.16568 3.13164 2.26996 1.15139 
2.86915 4.88602 0.571408 0.85451 4.96358 0.615966 4.46842 3.12324 0.164093 
0.405734 4.06943 0.97483 0.148586 3.16408 1.21118 4.61876 3.16145 1.28437 
0.387805 3.95312 1.95899 4.2083 3.90345 0.155269 3.44134 3.78154 1.4365 
1.29695 1.6573 1.92781 3.79171 3.09143 0.815872 0.145432 3.77866 0.0450028 
4.40395 4.90247 1.79886 3.04523 1.89533 0.37719 4.8588 4.67023 0.923357 
4.93099 0.314322 0.332177 2.35802 1.33586 2.95678 1.44196 0.653261 3.89385 
2.01827 3.7314 3.16256 3.90151 4.17654 3.62505 2.54226 2.69286 2.32059 
2.49771 2.20182 3.34789 2.53351 3.37243 3.86123 0.644381 1.41363 2.57849 
2.29002 3.98042 2.14196 1.62247 2.99364 3.54978 3.43928 4.77516 3.94702 
1.07714 0.690991 2.99604 0.579497 2.23951 3.08631 0.522531 0.173925 2.23947 
1.5743 0.410347 2.49771 0.423953 0.759435 3.02791 1.06495 1.06155 2.18781 
4.54447 1.63228 3.22239 1.33477 4.06262 2.04457 1.97796 1.89402 2.5729 
4.36862 2.31831 2.65848 2.18435 0.716329 3.6576 1.25718 2.33664 2.46754 
1.85656 2.27324 3.75035 4.02809 3.0871 3.4957 0.104644 1.14097 3.38453 
2.00238 3.05768 2.73258 1.55123 1.4638 3.37666 0.391322 4.91556 3.31415 
4.66247 0.0102279 3.67819 3.05853 4.71842 2.97334 3.1252 1.96335 2.43269 
1.25746 3.61244 3.97288 1.95515 4.53112 3.09005 3.63252 4.30409 2.21144 
4.74707 3.95311 3.50893 2.96627 3.00609 3.19726 1.16317 4.78217 2.85846 
4.7485 0.919969 3.74203 2.96003 3.8315 2.9045 0.78363 3.08034 2.29247 
3.74095 2.83771 2.49995 0.607421 4.14665 3.57694 3.07701 0.0548346 3.24898 
3.67049 1.68299 3.1575 0.739478 3.84466 2.78327 4.59227 3.71438 2.16974 
3.88582 3.73286 2.85102 4.48862 1.48547 2.18032 3.06747 0.93662 3.56046 
0.22663 0.835668 5.18569 3.10317 1.28779 4.65008 4.03726 2.57466 5.84593 
2.46015 0.807457 5.61774 1.23343 1.70825 4.45917 3.94689 0.901657 4.48554 
2.4781 4.88376 4.04613 1.04339 0.612461 5.37392 4.47124 1.82036 5.11104 
2.14616 2.46269 4.64545 1.7387 1.88378 5.5018 1.24058 2.58852 4.26529 
1.82501 0.525672 4.81113 0.633525 2.92915 4.61982 4.103 4.84695 4.73106 
2.05968 4.07138 5.22244 2.03475 3.23407 5.01329 0.55646 2.39648 5.84156 
0.354554 1.65828 4.65301 2.01201 1.46072 4.05404 0.244216 1.54169 5.71653 
2.11877 4.00944 4.06072 4.08509 4.33895 5.92717 1.14159 2.35932 5.14728 
0.605206 0.312607 4.50314 2.64024 3.16362 5.94728 2.46416 1.56647 5.70506 
0.335641 4.87599 4.2345 2.65698 4.69477 5.79673 1.35659 4.27289 4.88493 
4.82683 4.65176 5.33048 4.06665 1.09127 5.58448 2.89388 4.73865 4.84278 
1.19077 4.92918 5.6938 0.187522 3.41453 5.09186 3.67218 3.39374 5.45701 
3.12428 3.31949 4.64479 4.56613 2.97243 5.15548 4.12942 2.42227 4.51037 
3.08087 4.07213 4.65294 0.680828 4.24221 4.46701 3.24061 4.12328 5.61131 
4.30013 3.85325 4.84273 3.07897 2.59947 4.11736 0.576535 4.16793 5.47408 
2.19027 4.9476 5.04962 4.86289 2.08803 4.1178 4.9407 0.345491 4.82655 
4.92707 4.78617 4.22574 2.64849 0.283725 6.90428 1.09973 2.26451 7.38878 
4.294 1.19423 6.67631 2.04144 0.161848 6.18739 1.98088 2.38173 7.31574 
0.759852 1.43871 7.80887 0.368935 1.17334 6.54543 4.39009 3.96675 7.14257 
1.33271 3.46206 7.39656 2.23409 0.887718 7.04985 2.16325 3.36759 7.03249 
1.91942 4.20457 7.71664 0.202562 1.53538 7.11629 4.83969 3.94081 6.20866 
0.713102 0.447567 7.56114 1.39744 2.67752 6.23157 2.43141 4.23966 6.60791 
2.93457 0.89924 7.6901 2.7652 2.6978 6.81868 1.2141 1.8594 6.32568 
0.897463 2.99693 6.6507 1.34238 0.500225 6.62379 0.68957 0.839788 6.09345 
3.54726 2.33415 7.3695 2.13543 2.15061 6.34986 2.66675 2.40043 7.86365 
1.94601 1.55451 7.12917 1.15096 1.08515 7.06056 1.62776 4.838 7.19899 
3.4455 1.38687 6.38704 0.291023 3.65278 6.2085 3.91743 3.35527 6.44685 
0.939008 4.68067 6.59275 0.168128 2.77454 6.54744 3.81637 3.21298 7.38548 
1.14037 3.78739 6.16199 0.357597 0.0677044 6.88266 3.11534 3.84723 6.57518 
0.689708 3.73322 7.07245 0.682181 4.99506 7.42775 2.77535 4.48875 7.39961 
4.56344 0.475222 6.10156 1.77417 4.49308 6.11677 3.46154 3.99288 7.54404 
4.16952 4.76136 6.80766 4.64243 0.366479 7.03135 0.493655 2.86032 7.50455 
0.0278771 4.09969 7.12035 3.73062 0.821496 7.6506 2.01936 3.07719 7.92834 
3.37145 4.81435 6.42877 0.23503 3.61338 7.96315 1.85285 0.860029 7.9917 
4.85892 3.03127 6.26372 1.6952 2.36766 9.70197 1.95091 0.859638 9.67626 
1.17556 0.101477 8.15061 0.652935 0.365843 9.26793 1.71462 2.16285 8.55617 
1.21938 2.97922 9.26822 0.158073 1.84425 9.10622 2.25558 3.16945 8.81446 
0.369933 2.77706 8.8073 2.48667 4.62755 9.23993 2.93488 0.86777 9.84947 
0.844711 2.04803 8.47228 0.522984 1.06366 9.56364 4.06964 0.297235 8.96223 
0.722653 1.24849 8.79902 0.045245 0.86778 8.12241 0.746457 0.616397 8.34985 
2.17671 3.92635 8.51234 1.97057 1.59562 8.35617 2.40736 2.43272 9.26312 
2.08849 1.70302 9.94881 1.15829 2.89424 8.26814 4.77375 1.47086 9.89875 
1.79565 0.191769 8.9518 2.68797 1.36421 9.01676 1.39387 0.821425 8.93541 
2.70889 3.80552 9.39446 2.54274 1.47982 8.00749 3.02111 2.36063 8.69573 
3.33736 3.39709 8.30286 3.95256 2.29347 9.57811 4.68228 3.78696 8.56524 
1.32793 4.92785 8.94995 4.40326 4.52998 8.02497 2.9729 1.46723 9.93294 
3.86898 0.0462542 8.09993 3.14498 3.31326 9.85921 3.66553 4.07847 9.50856 
1.74019 4.84379 9.74327 1.20734 3.96859 9.40675 0.783931 4.68432 9.76888 
2.94007 0.894867 8.67609 4.07986 4.79887 9.92627 3.43145 2.62369 9.89629 
1.09293 4.51954 8.08218 0.331208 4.31267 8.88667 4.05796 4.1393 8.77042 
3.23679 1.8785 9.11426 2.79834 4.83477 8.3398 1.12078 3.743 8.41097 
3.14182 4.11564 8.64707 0.432764 2.88603 9.78712 3.4522 4.81532 9.07868 
3.50586 0.740582 9.40195 3.77671 2.75829 8.26903 3.71986 3.23712 9.15304 
4.54028 3.05413 9.13947 4.50853 1.29518 8.49887 4.59584 2.89927 8.14577 
4.59947 0.204342 8.20395 4.70296 0.894674 9.39662 2.3754 0.00136488 8.43042 
4.93562 4.70172 9.57004 2.78982 9.60686 0.251994 3.85033 8.56348 0.288906 
3.59696 8.76254 1.8394 2.40738 6.06425 1.98133 3.23463 5.76409 0.520594 
2.98311 6.97129 1.81952 4.33035 5.76808 1.40844 3.28217 7.23907 0.0335345 
1.46434 5.56301 1.96683 3.78131 7.37469 1.18932 2.36593 9.10554 1.45104 
3.3796 8.21525 1.05817 3.36649 5.83048 1.54268 2.78479 8.81562 0.826237 
1.00121 8.98525 0.471083 2.70356 7.38755 0.87856 1.28872 9.9802 1.28246 
3.61211 7.84412 1.83745 0.0530782 9.43083 0.352052 0.311037 9.795 1.17469 
0.395258 7.17855 1.30578 4.3008 8.33586 1.27941 4.15827 6.64578 1.34212 
1.19585 7.26611 0.765131 2.63087 9.85187 1.21584 2.56222 6.09151 1.0762 
2.00393 6.64547 0.00576593 0.135657 6.24567 0.447502 0.768093 5.63912 1.54945 
1.66284 5.88566 1.06252 1.88183 6.83249 1.4442 0.911927 6.65509 1.97946 
4.64622 5.97568 0.467435 3.63717 6.62844 0.52226 0.180554 5.46586 0.877343 
2.03804 7.47719 0.323953 1.78017 5.03739 0.66087 0.595653 7.09478 0.00490496 
1.06692 6.27694 0.110283 4.35348 6.53712 0.0893909 0.863859 6.39304 1.0671 
1.31634 7.65464 1.68048 1.56932 9.07805 1.78036 2.15344 5.77244 0.244264 
0.737809 8.36533 1.83859 1.99702 8.76031 0.416365 0.0253042 7.64367 0.552602 
4.78475 8.1462 0.360865 4.83329 6.81168 0.923256 4.90916 5.24177 0.343816 
3.74232 6.62801 2.17633 3.63165 6.57897 3.23941 1.22142 9.5156 2.41183 
3.67409 8.96376 3.85704 2.94248 7.7288 2.34848 3.00932 7.80632 3.25106 
1.11986 9.76637 3.24559 3.03689 5.51768 3.42924 4.72266 6.55958 3.76919 
4.09125 8.3555 2.61495 3.07686 5.82989 2.50649 4.52199 6.69961 2.82591 
0.242206 7.22049 2.255 0.573798 9.35921 3.97763 0.319357 9.20633 2.31674 
4.68905 7.92398 2.10914 2.74686 9.96074 2.08268 2.91646 9.05295 2.13837 
4.60551 9.87627 2.83779 2.74531 7.14664 3.88755 3.96263 7.40515 2.58967 
1.87911 9.8653 3.96706 0.83266 8.56014 3.68736 0.214914 7.20215 3.36978 
2.32489 9.34663 2.71252 4.63222 5.31297 2.77659 2.7646 6.77194 3.025 
2.73897 8.57817 3.11983 2.13821 8.80142 3.74297 3.85962 5.70287 3.54677 
2.03796 5.17978 2.47748 3.90799 9.81538 2.06359 1.99745 8.43859 2.74932 
2.27755 5.61503 3.24656 1.77554 6.00397 3.74605 1.94537 6.78756 3.21638 
4.37369 8.88671 3.36156 0.0265073 5.71578 2.01172 1.59323 5.93781 2.78291 
0.743655 6.56598 3.59026 2.11584 6.68814 2.3443 3.20216 5.06179 2.02043 
1.0435 7.17234 2.8139 2.15816 7.66776 3.61519 4.68563 5.44083 3.75701 
3.98942 5.78014 2.45654 0.236661 6.1383 2.79014 1.25163 5.08908 3.80965 
0.915433 5.74699 3.33071 0.988534 8.70477 2.80855 4.52562 7.45061 3.32616 
4.44733 9.14084 2.08875 3.29574 6.96537 5.04498 3.67082 8.05236 5.07148 
0.476526 8.9055 4.73552 2.49276 8.31775 4.57004 0.307373 9.16908 5.6938 
2.92738 7.55483 4.77024 0.148262 6.18792 5.9549 1.01549 9.76986 5.02208 
2.81821 6.76934 5.88811 2.80844 5.69123 4.44462 2.74634 6.49959 4.4907 
4.19467 6.6445 4.71328 4.27689 8.07457 4.03037 2.13682 8.10202 5.84946 
4.02703 5.74781 4.45739 3.41501 5.41191 5.13873 1.14292 8.99506 5.28577 
4.1307 5.26439 5.71685 2.23197 9.11782 4.784 1.25449 8.12634 5.53275 
2.94566 7.75901 5.73388 2.42611 5.76447 5.49156 1.83438 5.51772 4.5177 
0.387999 5.35816 5.9397 0.821445 5.46588 5.09857 1.50913 6.63707 4.05896 
1.25131 7.54521 4.9442 1.40622 8.58956 4.33557 0.559889 7.23841 5.87906 
[...]
POINT_DATA 1000
FIELD FieldData 7
id 1 1000 int
26 703 11 316 410 431 848 970 21 
770 777 6 434 94 13 96 787 368 
672 587 16 328 261 800 370 382 425 
600 982 772 256 990 882 627 157 33 
119 231 323 626 763 380 638 495 514 
872 674 361 276 371 871 91 784 881 
357 203 539 171 918 392 865 767 680 
965 151 214 667 507 538 204 262 775 
716 144 531 636 107 413 901 409 895 
973 142 690 785 95 362 898 675 941 
366 510 5 172 369 389 734 905 553 
39 456 257 854 629 200 12 283 243 
852 820 260 925 38 995 518 509 304 
346 314 149 766 229 908 786 187 47 
817 683 944 298 446 533 112 929 340 
933 805 939 374 689 418 513 411 921 
937 827 935 449 280 251 876 15 277 
913 547 606 640 4 222 360 332 358 
819 956 8 951 814 824 35 839 838 
124 869 856 43 307 498 863 123 649 
570 335 611 855 245 62 658 217 352 
148 911 816 116 448 312 508 459 315 
161 463 232 66 540 223 80 40 1 
320 585 120 230 238 384 56 583 832 
233 588 388 270 642 140 387 722 920 
544 764 376 859 226 771 515 272 823 
574 42 511 342 569 597 567 802 293 
57 864 89 71 849 598 241 622 378 
618 670 344 736 870 354 310 18 308 
267 235 840 108 269 265 694 61 738 
30 133 660 426 319 592 923 102 994 
98 105 167 292 473 617 794 420 729 
949 302 125 441 132 386 815 492 403 
742 442 752 44 983 950 857 582 996 
281 494 532 745 82 219 341 37 491 
85 748 75 634 254 99 993 208 496 
454 63 58 799 465 940 810 453 404 
707 20 213 719 980 290 795 971 552 
836 958 687 337 391 917 421 780 699 
616 765 422 390 154 175 3 796 166 
534 698 891 244 880 671 455 904 746 
893 301 988 984 324 29 31 48 818 
691 472 730 645 890 164 693 969 412 
962 322 193 927 469 550 952 338 936 
28 436 942 170 345 471 686 744 961 
461 476 303 926 701 666 981 922 945 
892 163 481 700 684 402 147 692 875 
336 724 688 451 398 504 676 111 953 
143 220 968 486 181 173 954 803 751 
202 253 72 813 735 946 603 966 74 
595 581 326 601 477 474 88 850 2 
194 557 475 834 749 53 65 294 197 
121 131 975 81 83 963 825 830 967 
635 535 655 599 612 566 964 985 960 
628 625 252 128 709 77 60 986 607 
706 861 673 499 444 286 141 278 560 
614 571 829 182 947 325 305 558 483 
306 381 739 639 537 702 274 135 798 
224 279 759 529 485 400 633 363 100 
916 654 903 517 249 755 756 196 9 
761 754 974 896 530 659 90 359 130 
797 621 731 650 620 264 806 393 364 
373 101 258 907 136 239 910 228 490 
999 519 36 717 250 867 423 899 886 
525 271 647 19 641 879 821 928 546 
668 523 868 747 889 158 773 543 106 
512 383 555 266 778 439 435 246 14 
682 697 807 858 209 103 212 430 416 
25 405 445 429 67 837 52 737 289 
291 201 313 399 727 714 236 646 943 
502 318 216 644 548 554 594 768 487 
117 613 146 900 395 522 909 527 931 
348 740 679 263 992 708 573 503 914 
408 127 930 396 190 225 488 365 23 
185 678 924 372 317 741 524 653 851 
505 591 790 516 718 206 862 343 237 
656 662 888 681 846 437 17 329 743 
783 198 774 572 845 428 255 789 584 
242 299 762 424 500 97 234 822 677 
568 155 331 564 563 69 565 750 152 
240 637 195 110 596 733 758 1000 480 
835 828 661 273 760 129 776 526 10 
619 27 506 873 467 247 79 623 351 
609 227 842 41 104 406 7 134 379 
138 86 579 608 665 643 339 139 259 
78 782 32 113 559 712 624 542 489 
333 126 109 605 561 853 578 887 866 
541 438 906 248 957 663 878 788 355 
769 874 631 397 791 808 394 321 183 
915 991 159 64 377 54 726 590 979 
165 309 297 556 427 45 401 452 55 
576 841 897 932 826 179 704 575 205 
275 919 493 407 696 199 833 457 902 
885 153 938 162 160 367 186 447 792 
545 894 122 804 440 458 169 184 419 
884 610 288 207 723 443 883 528 586 
114 174 959 978 417 462 180 432 70 
450 353 976 211 728 210 549 713 470 
497 725 705 652 934 221 50 721 433 
602 695 268 192 178 955 189 521 218 
188 415 385 710 300 877 468 615 68 
464 156 46 580 998 215 414 987 948 
657 49 51 137 520 460 715 191 685 
287 356 562 757 632 720 482 466 843 
168 847 589 349 334 664 177 811 781 
478 630 284 479 551 295 732 59 812 
145 484 801 577 648 84 350 375 311 
536 34 150 860 330 24 831 997 22 
809 989 76 347 176 753 92 593 977 
282 115 844 93 87 711 327 972 793 
296 651 669 779 604 73 285 118 501 
912 
type 1 1000 int
1 2 1 1 1 1 2 2 1 
2 2 1 1 1 1 1 2 1 
2 2 1 1 1 2 1 1 1 
2 2 2 1 2 2 2 1 1 
1 1 1 2 2 1 2 1 2 
2 2 1 1 1 2 1 2 2 
1 1 2 1 2 1 2 2 2 
2 1 1 2 2 2 1 1 2 
2 1 2 2 1 1 2 1 2 
2 1 2 2 1 1 2 2 2 
1 2 1 1 1 1 2 2 2 
1 1 1 2 2 1 1 1 1 
2 2 1 2 1 2 2 2 1 
1 1 1 2 1 2 2 1 1 
2 2 2 1 1 2 1 2 1 
2 2 2 1 2 1 2 1 2 
2 2 2 1 1 1 2 1 1 
2 2 2 2 1 1 1 1 1 
2 2 1 2 2 2 1 2 2 
1 2 2 1 1 1 2 1 2 
2 1 2 2 1 1 2 1 1 
1 2 2 1 1 1 2 1 1 
1 1 1 1 2 1 1 1 1 
1 2 1 1 1 1 1 2 2 
1 2 1 1 2 1 1 2 2 
2 2 1 2 1 2 2 1 2 
2 1 2 1 2 2 2 2 1 
1 2 1 1 2 2 1 2 1 
2 2 1 2 2 1 1 1 1 
1 1 2 1 1 1 2 1 2 
1 1 2 1 1 2 2 1 2 
1 1 1 1 1 2 2 1 2 
2 1 1 1 1 1 2 1 1 
2 1 2 1 2 2 2 2 2 
1 1 2 2 1 1 1 1 1 
1 2 1 2 1 1 2 1 1 
1 1 1 2 1 2 2 1 1 
2 1 1 2 2 1 2 2 2 
2 2 2 1 1 2 1 2 2 
2 2 1 1 1 1 1 2 1 
2 2 2 1 2 2 1 2 2 
2 1 2 2 1 1 1 1 2 
2 1 2 2 2 1 2 2 1 
2 1 1 2 1 2 2 1 2 
1 1 2 1 1 1 2 2 2 
1 1 1 2 2 2 2 2 2 
2 1 1 2 2 1 1 2 2 
1 2 2 1 1 2 2 1 2 
1 1 2 1 1 1 2 2 2 
1 1 1 2 2 2 2 2 1 
2 2 1 2 1 1 1 2 1 
1 2 1 2 2 1 1 1 1 
1 1 2 1 1 2 2 2 2 
2 2 2 2 2 2 2 2 2 
2 2 1 1 2 1 1 2 2 
2 2 2 1 1 1 1 1 2 
2 2 2 1 2 1 1 2 1 
1 1 2 2 2 2 1 1 2 
1 1 2 2 1 1 2 1 1 
2 2 2 2 1 2 2 1 1 
2 2 2 2 2 2 1 1 1 
2 2 2 2 2 1 2 1 1 
1 1 1 2 1 1 2 1 1 
2 2 1 2 1 2 1 2 2 
2 1 2 1 2 2 2 2 2 
2 2 2 2 2 1 2 2 1 
2 1 2 1 2 1 1 1 1 
2 2 2 2 1 1 1 1 1 
1 1 1 1 1 2 1 2 1 
1 1 1 1 2 2 1 2 2 
2 1 1 2 2 2 2 2 1 
1 2 1 2 1 2 2 2 2 
1 2 2 1 2 2 2 2 2 
1 1 2 1 1 1 1 1 1 
1 2 2 1 1 2 2 2 2 
2 2 2 2 2 1 2 1 1 
2 2 2 2 2 1 1 1 2 
2 1 2 2 2 1 1 2 2 
1 1 2 1 1 1 1 2 2 
2 1 1 2 2 1 2 2 1 
1 2 1 1 2 2 2 2 1 
2 2 2 1 2 1 2 2 1 
2 1 2 2 1 1 1 2 1 
2 1 2 1 1 1 1 1 1 
1 1 2 2 2 2 1 1 1 
1 2 1 1 2 2 2 2 1 
1 1 1 2 2 2 2 2 2 
2 1 2 1 2 2 2 2 1 
2 2 2 1 2 2 1 1 1 
2 2 1 1 1 1 2 2 2 
1 1 1 2 1 1 1 1 1 
2 2 2 2 2 1 2 2 1 
1 2 1 1 2 1 2 1 2 
2 1 2 1 1 1 1 1 2 
2 2 1 2 1 1 1 1 1 
2 2 1 1 2 1 2 2 2 
1 1 2 2 1 1 1 1 1 
1 1 2 1 2 1 2 2 1 
1 2 2 2 2 1 1 2 1 
2 2 1 1 1 2 1 2 1 
1 1 1 2 1 2 1 2 1 
1 1 1 2 2 1 1 2 2 
2 1 1 1 2 1 2 1 2 
1 1 2 2 2 2 1 1 2 
1 2 2 1 1 2 1 2 2 
1 2 1 1 2 1 2 1 2 
1 1 2 2 2 1 1 1 1 
2 1 1 2 1 1 2 2 1 
2 2 1 1 1 2 1 2 2 
1 1 2 1 1 2 1 2 2 
1 2 2 2 2 1 1 1 2 
2 
i 3 1000 int
18 1 0 -11 0 1 -2 0 0 
-20 0 0 -1 0 0 -5 0 0 
-15 0 1 32 1 0 -26 0 0 
-6 0 0 -14 0 0 -3 0 0 
-7 0 0 -4 0 0 -12 0 0 
-2 0 1 -13 0 1 -1 0 0 
-6 0 0 -5 0 1 -12 0 0 
0 0 0 -1 0 1 31 1 0 
-1 0 0 -5 0 0 -8 0 0 
1 0 1 0 0 0 -4 0 1 
-3 0 0 0 0 0 0 0 0 
1 0 0 -1 0 0 25 1 0 
-2 0 0 -7 0 1 -4 0 0 
-1 0 0 1 0 1 -4 0 1 
0 0 0 -2 0 1 -5 0 0 
0 0 0 1 0 0 -2 0 0 
-11 0 1 -1 0 0 -1 0 0 
0 0 0 -11 0 1 1 0 0 
-9 0 1 -9 0 0 -11 0 0 
-1 0 0 -2 0 0 -3 0 0 
-4 0 0 -7 0 0 -4 0 0 
-3 0 0 -2 0 0 0 0 0 
-20 0 0 -8 0 0 22 1 0 
-32 0 0 -15 0 0 -17 0 0 
-11 0 0 -2 0 0 -5 0 0 
-11 0 1 -11 0 0 -17 0 0 
-3 0 0 39 1 0 -23 0 0 
-3 0 0 -7 0 0 0 0 0 
32 1 0 -1 0 0 -3 0 0 
-1 0 0 0 0 0 -2 0 0 
-2 0 0 -2 0 0 -1 0 0 
-20 0 0 -2 0 0 -3 0 0 
-4 0 0 -2 0 0 -33 0 1 
-16 0 0 0 0 0 -3 0 0 
-2 0 0 -9 0 0 -24 0 0 
-14 0 0 -19 0 0 -3 0 0 
-17 0 0 -6 0 0 -29 0 0 
-1 0 0 -11 0 0 -9 0 0 
-5 0 0 -9 0 0 -4 0 0 
11 1 0 -2 0 0 0 0 0 
-2 0 0 -4 0 0 -4 0 0 
-12 0 1 -9 0 0 -14 0 0 
-1 0 0 0 0 0 -9 0 0 
-15 0 0 -1 0 0 27 1 -1 
0 0 0 0 0 0 -3 0 0 
0 0 0 -11 0 0 0 0 0 
-1 0 0 -13 0 0 -1 0 0 
-5 0 0 -6 0 0 -4 0 0 
-2 0 0 -2 0 0 0 0 0 
-1 0 0 -8 0 0 -1 0 0 
0 0 0 -8 0 1 -20 0 1 
-1 0 0 21 1 0 -2 0 0 
-12 0 0 -23 0 -1 37 1 0 
-10 0 0 -8 0 0 -1 0 0 
-1 0 0 -12 0 0 -5 0 0 
1 0 0 -10 0 0 -1 0 0 
-10 0 0 -8 0 0 0 0 0 
24 1 0 -5 0 0 -6 0 0 
-2 0 0 16 1 0 35 1 0 
-5 0 0 -11 0 0 -4 0 0 
-11 0 0 -9 0 0 0 0 0 
-17 0 0 -8 0 0 -1 0 0 
0 0 0 -3 0 0 -2 0 0 
-2 0 0 -31 0 -1 -1 0 0 
-1 0 0 1 0 0 0 0 0 
-18 0 0 1 0 0 0 0 0 
-1 0 0 15 1 0 -5 0 0 
-1 0 0 -29 0 0 -3 0 -1 
0 0 0 -1 0 0 -28 0 -1 
-2 0 0 -1 0 0 -11 0 -1 
15 1 0 -15 0 0 -4 0 0 
-2 0 0 -4 0 0 -2 0 -1 
-2 0 0 0 0 0 -9 0 0 
-4 0 0 -25 0 0 22 1 0 
-13 0 -1 -7 0 0 -10 0 0 
-1 0 0 -10 0 0 -3 0 -1 
-3 0 0 -5 0 0 -8 0 -1 
-19 0 -1 -23 0 -1 33 1 -1 
0 0 0 -9 0 0 -3 0 -1 
-1 0 0 31 1 -1 -2 0 0 
1 0 0 0 0 0 -22 0 -1 
18 1 0 -1 0 0 -1 0 0 
0 0 0 -1 0 0 0 0 0 
28 1 0 -1 0 -1 -4 0 0 
0 0 0 -1 0 0 0 0 0 
-16 0 0 0 0 0 -1 0 0 
-1 0 0 -2 0 -1 1 0 0 
-23 0 0 -3 0 0 -1 0 0 
-4 0 0 -15 0 0 -2 0 0 
-27 0 0 -21 0 0 25 1 0 
0 0 0 8 0 1 6 0 1 
8 0 0 3 0 0 2 0 0 
5 0 0 1 0 0 6 0 0 
0 0 0 3 0 0 10 0 0 
-27 -1 0 3 0 0 11 0 1 
24 0 0 4 0 0 22 0 1 
18 0 1 9 0 1 -15 -1 1 
5 0 1 15 0 1 3 0 0 
4 0 0 -26 -1 1 2 0 0 
3 0 0 5 0 0 1 0 0 
3 0 0 3 0 0 4 0 0 
1 0 0 8 0 0 2 0 0 
6 0 0 1 0 0 18 0 0 
3 0 1 2 0 0 3 0 0 
6 0 0 -33 -1 0 2 0 0 
7 0 1 14 0 0 3 0 1 
7 0 0 2 0 0 0 0 0 
4 0 0 2 0 0 30 0 1 
13 0 0 10 0 0 11 0 0 
24 0 0 2 0 0 1 0 0 
13 0 0 2 0 0 2 0 0 
-41 -1 0 -35 -1 0 18 0 0 
13 0 0 18 0 1 25 0 0 
-12 -1 0 11 0 0 11 0 0 
16 0 0 17 0 0 3 0 0 
18 0 0 1 0 0 3 0 0 
9 0 0 -29 -1 0 1 0 0 
0 0 0 15 0 0 -33 -1 0 
2 0 0 0 0 0 2 0 0 
16 0 1 6 0 0 3 0 0 
2 0 0 2 0 0 -1 0 0 
-40 -1 0 11 0 0 1 0 0 
2 0 0 5 0 0 0 0 0 
1 0 0 9 0 0 14 0 0 
9 0 1 3 0 0 8 0 0 
11 0 0 8 0 0 13 0 0 
4 0 0 3 0 0 -18 -1 0 
4 0 0 1 0 0 5 0 0 
6 0 0 8 0 0 -30 -1 0 
1 0 0 1 0 0 8 0 0 
1 0 0 8 0 0 7 0 0 
5 0 0 4 0 0 -1 0 0 
-1 0 0 1 0 0 3 0 0 
7 0 0 9 0 0 5 0 0 
4 0 0 8 0 0 2 0 0 
15 0 0 2 0 0 3 0 0 
2 0 0 1 0 0 4 0 0 
10 0 0 1 0 0 4 0 0 
7 0 0 13 0 0 10 0 -1 
2 0 0 11 0 0 -17 -1 0 
-20 -1 0 8 0 0 8 0 0 
14 0 0 -23 -1 0 1 0 0 
1 0 0 5 0 0 0 0 0 
14 0 -1 2 0 0 4 0 0 
1 0 0 25 0 0 23 0 0 
8 0 0 1 0 0 18 0 0 
8 0 0 6 0 -1 16 0 0 
17 0 0 -20 -1 0 5 0 0 
32 0 0 5 0 0 2 0 0 
7 0 0 3 0 0 9 0 0 
7 0 0 2 0 0 2 0 0 
2 0 0 2 0 0 3 0 0 
1 0 0 6 0 0 0 0 0 
-31 -1 0 4 0 0 4 0 0 
3 0 0 -31 -1 0 2 0 0 
1 0 0 9 0 0 6 0 0 
27 0 0 7 0 0 19 0 0 
2 0 0 7 0 0 4 0 0 
11 0 -1 12 0 -1 19 0 -1 
-15 -1 0 18 0 0 -33 -1 0 
1 0 -1 3 0 0 20 0 0 
4 0 -1 4 0 0 18 0 0 
2 0 0 0 0 -1 34 0 0 
2 0 0 14 0 0 12 0 0 
0 0 0 7 0 0 0 0 0 
7 0 0 1 0 0 5 0 -1 
3 0 0 3 0 0 21 0 -1 
3 0 0 25 0 -1 3 0 0 
2 0 0 3 0 0 1 0 0 
6 0 -1 2 0 0 6 0 -1 
8 0 -1 1 0 0 4 0 -1 
11 0 -1 1 0 0 2 0 0 
9 0 0 18 0 0 28 0 0 
-10 0 0 -2 0 0 -11 0 0 
-14 0 1 49 1 0 -6 0 0 
-3 0 0 -19 0 1 -3 0 0 
-12 0 1 1 0 0 -1 0 0 
-6 0 0 -18 0 1 0 0 0 
-6 0 0 -10 0 1 -9 0 0 
-3 0 1 29 1 0 28 1 0 
-10 0 0 -3 0 1 51 1 1 
-1 0 0 -3 0 1 -1 0 0 
-1 0 0 -3 0 0 -5 0 0 
32 1 0 0 0 0 40 1 0 
-2 0 0 -1 0 0 -1 0 0 
-23 0 0 -4 0 0 -1 0 0 
-4 0 0 0 0 0 -9 0 1 
0 0 0 -8 0 0 -24 0 1 
-9 0 0 -24 0 1 -12 0 0 
-4 0 0 -3 0 0 -22 0 0 
-16 0 0 -3 0 0 -15 0 0 
-18 0 0 -8 0 0 29 1 0 
-10 0 0 -19 0 0 -6 0 0 
-11 0 0 -2 0 0 18 1 1 
17 1 0 -2 0 0 -3 0 0 
-1 0 0 -11 0 1 -4 0 1 
-28 0 1 -1 0 0 0 0 0 
-4 0 0 -11 0 0 -5 0 0 
-3 0 0 -2 0 0 -4 0 0 
-19 0 0 -32 0 1 -1 0 0 
-1 0 0 35 1 0 -2 0 0 
-3 0 0 -3 0 0 -1 0 0 
0 0 0 -19 0 0 -2 0 0 
29 1 0 -3 0 0 -4 0 0 
-18 0 0 -4 0 0 -2 0 0 
-7 0 0 23 1 0 -17 0 0 
33 1 0 -2 0 0 -29 0 -1 
-6 0 0 -10 0 0 -9 0 0 
-10 0 -1 -13 0 0 34 1 0 
-7 0 0 -3 0 0 -3 0 0 
-10 0 0 -2 0 0 -13 0 0 
38 1 0 -8 0 0 -6 0 0 
-6 0 0 -8 0 -1 -17 0 0 
-8 0 0 0 0 0 0 0 0 
-3 0 0 -1 0 0 -3 0 0 
0 0 0 0 0 0 0 0 0 
-3 0 0 -4 0 0 -1 0 0 
-3 0 0 -20 0 0 -20 0 0 
-2 0 0 -6 0 0 -1 0 0 
-1 0 0 -3 0 0 -4 0 0 
-1 0 0 -5 0 0 -4 0 0 
-28 0 1 -21 0 0 -8 0 0 
0 0 0 -2 0 0 -2 0 0 
-2 0 0 -2 0 0 -33 0 0 
-5 0 0 23 1 0 -7 0 0 
-4 0 0 -13 0 0 -3 0 0 
-27 0 0 -5 0 0 -6 0 0 
-11 0 0 -1 0 0 -3 0 0 
-9 0 0 -1 0 0 30 1 0 
-1 0 0 -2 0 0 -13 0 0 
-10 0 0 -4 0 0 -6 0 0 
-7 0 0 -1 0 0 -4 0 0 
-3 0 0 -3 0 0 -2 0 0 
-3 0 0 -21 0 0 -2 0 0 
-19 0 0 -7 0 0 -20 0 -1 
0 0 0 -2 0 0 -1 0 0 
-4 0 0 -3 0 0 -1 0 0 
-1 0 0 -1 0 0 1 0 0 
-1 0 0 -1 0 0 -8 0 0 
-2 0 0 -12 0 0 -2 0 0 
-16 0 0 -4 0 0 -6 0 0 
-1 0 0 -10 0 0 30 1 -1 
-6 0 -1 -5 0 -1 -4 0 0 
-2 0 0 -4 0 0 -2 0 -1 
-14 0 0 -3 0 0 -10 0 0 
-6 0 0 -7 0 0 -5 0 0 
-1 0 0 -9 0 0 -5 0 -1 
-4 0 -1 28 1 0 -20 0 0 
0 0 0 -1 0 0 0 0 0 
-1 0 -1 -6 0 0 -5 0 0 
-13 0 -1 -1 0 0 -6 0 0 
-1 0 0 -5 0 0 -2 0 0 
-3 0 0 -5 0 0 0 0 -1 
-1 0 0 0 0 0 -9 0 0 
0 0 0 -2 0 0 -12 0 -1 
2 0 1 11 0 0 35 0 0 
0 0 0 -27 -1 1 7 0 0 
1 0 0 -25 -1 1 6 0 0 
0 0 0 5 0 0 1 0 0 
1 0 0 5 0 1 0 0 0 
3 0 0 8 0 0 0 0 0 
5 0 0 3 0 0 5 0 0 
-28 -1 1 9 0 0 10 0 1 
9 0 0 6 0 0 1 0 1 
8 0 0 6 0 0 1 0 0 
2 0 0 3 0 0 7 0 0 
1 0 0 3 0 0 0 0 0 
1 0 0 8 0 0 11 0 0 
11 0 0 -25 -1 1 0 0 1 
20 0 1 2 0 0 5 0 1 
6 0 0 3 0 0 15 0 0 
9 0 0 0 0 0 13 0 0 
4 0 0 3 0 0 6 0 0 
21 0 0 11 0 0 0 0 0 
0 0 0 13 0 0 14 0 0 
22 0 0 27 0 0 -30 -1 0 
-4 0 0 0 0 0 23 0 0 
5 0 0 3 0 0 -35 -1 0 
1 0 0 1 0 0 4 0 0 
1 0 0 4 0 0 2 0 0 
11 0 0 7 0 0 6 0 0 
5 0 0 1 0 0 4 0 0 
19 0 0 0 0 0 6 0 0 
-36 -1 0 3 0 0 0 0 0 
15 0 0 4 0 0 0 0 0 
8 0 0 1 0 0 4 0 0 
19 0 1 2 0 0 2 0 0 
0 0 0 -1 0 0 10 0 0 
-27 -1 0 7 0 0 11 0 0 
5 0 0 1 0 0 27 0 0 
0 0 0 1 0 0 3 0 0 
-1 0 0 14 0 0 4 0 0 
6 0 0 2 0 0 13 0 0 
-26 -1 0 -20 -1 1 6 0 0 
17 0 0 0 0 0 2 0 0 
0 0 0 2 0 0 6 0 0 
3 0 0 20 0 0 21 0 -1 
8 0 0 4 0 0 0 0 0 
2 0 0 2 0 0 2 0 0 
4 0 0 0 0 0 9 0 0 
4 0 0 1 0 0 -31 -1 0 
11 0 0 17 0 -1 35 0 0 
1 0 0 21 0 0 4 0 0 
1 0 0 12 0 0 18 0 0 
23 0 0 -25 -1 0 1 0 0 
8 0 0 3 0 0 9 0 0 
0 0 0 2 0 0 2 0 0 
-25 -1 0 3 0 0 1 0 0 
30 0 0 17 0 0 2 0 0 
18 0 0 2 0 0 4 0 0 
24 0 0 3 0 -1 0 0 0 
7 0 0 4 0 0 1 0 0 
0 0 0 0 0 0 5 0 0 
5 0 0 2 0 0 3 0 0 
9 0 0 -1 0 0 16 0 0 
2 0 0 6 0 0 -27 -1 0 
8 0 0 -1 0 0 9 0 0 
-31 -1 1 2 0 0 5 0 0 
10 0 -1 3 0 0 -32 -1 -1 
17 0 -1 14 0 0 15 0 0 
2 0 0 1 0 -1 1 0 0 
-22 -1 -1 27 0 0 6 0 -1 
2 0 0 3 0 -1 27 0 -1 
7 0 0 0 0 0 6 0 -1 
10 0 -1 8 0 0 4 0 0 
1 0 0 2 0 0 14 0 0 
0 0 0 1 0 0 5 0 0 
13 0 -1 1 0 -1 3 0 0 
1 0 -1 1 0 0 8 0 0 
1 0 0 3 0 -1 14 0 -1 
5 0 -1 3 0 -1 -35 -1 0 
0 0 -1 1 0 0 0 0 0 
16 0 -1 19 0 0 0 0 0 
5 0 -1 
v 3 1000 double
-473.93187798 -6.8603565709 -2.1914287179 -443.51681269 6.507931842 7.4036896082 -160.23630234 11.249427178 -20.644999873 
-308.79212012 38.616100157 7.1344402413 -94.7703291 0.8239178388 -7.7816935745 -143.72573802 -20.11095529 20.998804314 
-442.42515377 -4.5997782181 15.82543252 -402.80163681 10.334995013 -29.118682736 -427.33503591 18.825676049 -3.723443102 
-220.70137117 -3.742176672 3.2972377753 -416.43718619 12.221225151 21.558806597 -92.238840713 -16.855218222 12.275086295 
-225.26668403 8.1947420116 -14.452156001 -167.79993146 -19.799718687 2.2003902672 -285.35590396 -7.8842525876 -15.18691385 
-37.959579623 9.9589423413 -4.2197213043 -183.70716674 -7.2524099422 -1.2853001418 -78.455459319 0.49629860465 -0.94803223189 
-117.98207561 -25.692707084 15.276459604 -140.34412535 -0.48345139723 0.93958774661 -411.25747999 -3.727451605 -44.652672912 
-60.066750659 -2.2922435507 5.6554155078 -81.639044987 -17.478903591 4.5744802009 -467.19319347 11.358172264 10.742852324 
-26.329672882 22.60363972 -16.790871395 -278.31690741 13.970461877 -25.803704052 -376.24868945 8.0840589856 -31.446300763 
-0.12422921679 -4.165529621 8.9606165734 -22.910846603 8.263405782 -3.1613041723 -148.41580304 -1.2399260068 4.1444007179 
-91.670205342 10.735518345 0.68352997209 -20.443173398 10.949889373 2.917893447 -28.834167493 7.1935947879 -0.33231506576 
-24.38045832 -1.7708213439 2.0128259367 -34.805139588 3.9495989087 -4.5330513126 -443.69462931 10.869401651 18.876150998 
-38.417401368 5.4296195323 -7.4695268086 -314.86517417 1.9666741038 -11.013708576 -185.17415202 -2.5166853656 7.9086705272 
-10.250257373 21.241938459 -6.5456681888 21.743723275 -8.0481572198 0.47970340377 -97.075086828 -13.634217261 -16.711547503 
-25.142034296 -6.8948962725 4.6806013202 -104.39755269 -4.4496377172 7.7588666466 -82.357442033 -31.905046081 11.699635605 
-38.19950505 -16.183450165 -6.7935029593 -57.646936512 -2.1804016326 11.096078279 -42.332911128 -9.2158316747 -4.9382605289 
-294.11968732 48.385669985 -11.015614893 -87.610662425 -13.896132577 11.675129411 -39.781724682 2.0130432815 0.60506497097 
-9.3088142551 -6.0919151186 22.337859344 -220.36985865 10.172642397 18.863458103 -0.14175481566 4.1941684023 14.406896438 
-351.35102982 -22.279509801 0.047739237452 -271.4293924 -27.551462223 -17.610483979 -408.24727932 -9.5271436907 12.120033254 
-71.459278473 2.8394403929 5.0307765237 -54.115475833 -8.5481273885 -0.87415734734 -141.97561677 -16.554746234 1.9141123319 
-201.68394537 -0.39652035191 -8.761453957 -110.44166403 -15.698618509 -5.0295282167 -309.51066817 24.356250134 26.249783468 
-61.578368958 13.76979991 -1.4859842408 -132.39433416 -1.531787213 -17.922717258 -25.333673549 16.514323443 8.6265968963 
-468.31899561 11.445572096 30.714976939 -186.62114369 2.5248849724 6.58946247 -519.94108024 18.168891289 16.94730155 
-493.69037757 -3.1402150314 8.9437642575 -468.79959861 -15.233423654 5.2377151253 -396.57562452 -0.0092072134484 -0.43101654282 
-308.69999393 10.175999467 3.7239306368 -63.980242127 -1.3940498378 1.1253044422 -225.66649387 2.5472342349 -19.025753706 
-203.40084342 -0.99322391159 0.69613978945 -381.12985044 -6.0699104387 -17.592206611 -189.44713168 12.392820634 27.326041548 
-187.14480571 -14.413010417 -7.3222587296 -117.15916197 -9.5431770871 42.535215856 -378.78263507 36.269592758 41.370563837 
-131.43489156 -8.4472893161 3.1950860446 -271.14378629 -14.036619646 -29.103095455 4.2302654471 3.9492195646 9.2443764432 
-424.36673459 -35.554043994 14.482446524 -14.518251449 -1.9321321727 -4.3684879021 -199.54045499 -22.987447881 -4.4161142273 
-81.892304819 -5.184024271 8.5020013551 -15.393700787 8.776317595 17.470001627 -55.356155034 12.496665499 -8.7566278784 
-60.886875181 -10.132685392 -0.47068565574 -122.08999464 -12.284691566 -17.752263691 -8.944638896 -1.4035259194 -8.5619559023 
-368.30929012 1.6100518118 -12.267329564 -74.589945444 -3.8039836111 -19.071159417 -115.51953275 -1.4787648926 -15.215497826 
-201.53512889 17.312650024 7.8980830475 -59.200334042 -6.0320925036 6.0112226524 -539.29276132 0.71887671927 10.980153684 
-308.32864643 4.4633419206 -0.71052089088 -54.01417216 2.1649411407 8.1695451996 -74.374533985 4.5761047634 8.5308189877 
-73.035160329 -1.2572877321 2.4756729454 -303.42586896 -14.310923453 1.7060577587 -381.78884109 17.687424771 -1.4729247834 
-337.61199393 -7.6073207502 5.0169917464 -339.72720658 3.6896142007 5.9139985174 -90.316255186 -33.602653575 -5.6833583048 
-404.24679161 -3.352424042 -29.219224424 -284.06485142 -0.8883160973 -14.052596729 -366.46566849 5.4286823674 -25.77642521 
-21.365506652 14.459109128 -13.076442874 -442.83308498 29.59106589 -18.35666508 -214.82881686 -10.497289981 7.5998592417 
-171.68149498 -16.685719601 -17.743507662 -238.25876875 -6.9098074499 -1.4178334167 -181.72557831 1.9141333769 -26.736746054 
-461.07497262 14.999525147 14.472359088 -176.87914443 7.917619486 -25.909073583 -24.814590225 -8.1248121495 -10.312365443 
-70.88401564 20.659862778 22.673561416 -132.44160844 3.9824150205 -0.77190846758 -173.49378052 9.4905976861 2.7064518389 
-279.84342249 -0.50801372912 0.20426626693 -267.78026508 -1.952119448 26.065320697 -276.9402556 27.071035486 -20.864285139 
-90.949455587 24.84791597 7.5631994318 -31.139875281 -3.4036961522 -8.0169714827 -204.18391621 9.4488671069 -21.161942784 
-461.24716621 6.2320016538 -21.562561698 -84.176481446 -12.216866227 1.7142360438 -263.61998642 18.679866221 0.68286362561 
2.2601701997 -5.5414141148 -3.0830121149 -14.420912044 5.7750073205 6.4216780767 -74.937834758 23.002732689 -0.61839980104 
-20.135843348 -3.8149371573 -7.0480987093 -339.36787056 5.1891462321 4.2270089723 -23.537856937 15.531995605 0.33436197798 
16.553452738 -4.1816471456 2.4960913402 -123.7019672 11.29551448 8.1303823882 -64.609518776 -26.060681853 -4.8594147762 
-127.81753592 -14.779437822 16.196453267 -93.545819022 -0.42832494039 -0.32122159137 -191.46831303 2.9658607918 0.57260206254 
-69.762512458 1.319729278 -13.327319063 -64.222777482 -15.478391582 4.4550902616 -34.440622599 -9.7365826216 -7.1838749965 
-81.110908998 0.91744969824 -8.5195041267 -169.71568396 -12.334855775 4.1085547667 -18.372911247 11.375213009 19.304376303 
-17.476650649 -2.4604068474 -6.0879285303 -226.83201505 18.842863577 -5.7486416861 -416.87264955 -9.6814859414 26.128220512 
-15.556395131 4.2928077081 -7.3982012691 -461.17962182 1.4983208901 -18.586022006 -176.41470013 -18.752785292 -10.02919126 
-348.37222033 18.004913027 -5.6123461361 -489.27413985 13.760979642 -28.036713969 -178.55539157 10.51846762 -26.087105946 