# vtk DataFile Version 4.2
Generated by LIGGGHTS
ASCII
DATASET POLYDATA
POINTS 1000 float
2.0955 2.61628 1.1082 1.88104 2.38752 0.187124 1.18445 4.85791 1.52093 
4.02909 4.39261 1.46437 1.77476 3.4296 1.75262 3.29445 2.39651 1.82395 
4.7339 0.0836399 0.0709195 0.862994 2.58964 1.1686 1.61437 1.67093 0.781684 
2.19753 4.42756 1.66263 0.76694 2.65941 0.178264 1.38508 0.390934 1.44852 
1.03395 1.07529 1.31619 2.48318 3.97114 0.885407 0.651922 1.64284 1.72432 
2.43293 3.31136 0.977481 2.3171 1.97238 1.39035 0.701833 1.81078 0.634981 
1.65024 0.674966 0.556847 2.33224 4.58228 0.466713 1.00866 0.774429 0.408502 
2.25553 1.19039 1.68712 4.79948 4.60077 0.800876 0.782679 3.40457 1.66757 
2.40917 0.393991 1.73981 3.62109 3.41919 1.32346 3.45871 1.65496 0.245792 
0.7587 4.1382 1.07225 1.67521 4.47461 0.00497464 0.029069 2.53033 1.61525 
0.537567 3.3371 0.702289 2.6444 2.49962 0.507442 3.10935 4.80714 0.660359 
2.61367 1.62242 0.672464 2.92858 0.456621 0.368602 3.80342 2.10069 1.3825 
3.79953 1.18701 0.976817 0.813316 4.96807 0.697904 2.13036 3.7047 0.0765179 
2.96822 1.02125 1.08828 4.42263 0.24153 1.39885 3.17274 3.97922 0.148545 
4.48153 1.54483 1.51014 3.46476 3.8665 0.74038 3.38736 2.58843 0.877412 
3.18493 0.215944 1.28078 2.90536 3.36407 1.64959 4.44973 1.66909 0.335129 
3.04085 1.35082 1.99941 1.75981 0.558847 2.36535 2.79276 4.40951 2.92417 
1.08211 0.896541 2.20017 2.40249 3.44885 3.079 2.37136 2.52143 3.18577 
1.11655 3.26209 2.46383 0.163766 0.854357 2.36416 2.05716 4.17888 3.75092 
2.60891 0.455747 2.69899 1.97078 2.61547 2.02539 3.9077 4.92674 3.12658 
1.49365 1.90077 3.35968 1.69873 1.21133 3.0134 2.01359 0.425222 3.42051 
0.758362 1.49597 2.853 0.569619 2.40512 3.67421 0.185369 0.0852603 3.60787 
1.33665 2.43548 2.68621 0.929968 0.892626 3.513 3.34333 2.72133 3.15772 
1.22339 3.23643 3.32638 2.78917 3.9213 3.64945 2.23927 1.92465 3.95535 
4.87598 2.9793 2.96792 3.03152 4.99507 3.53241 4.73173 4.73487 3.08065 
4.40126 2.02912 3.07303 0.457325 3.42431 3.81996 3.73715 0.323191 2.074 
4.84264 2.52941 3.96595 4.27646 2.99985 3.99535 3.99846 3.96718 3.29208 
4.55538 3.17753 2.12431 0.115321 4.09294 3.1029 4.24909 3.59237 3.56945 
3.00623 3.22489 3.74134 3.65616 1.44962 2.47902 3.11156 0.0198043 3.49692 
-0.0274875 3.15341 2.94122 4.94322 0.957663 3.08137 3.36036 1.89135 3.73263 
1.96527 4.68347 2.51253 3.71607 2.34419 2.65609 4.03687 0.192833 3.28605 
3.02122 4.53449 2.07466 2.91066 1.34074 3.13078 4.14056 1.14397 3.54526 
2.5391 3.6645 2.2465 3.63487 4.13258 2.66908 2.7387 2.20257 2.40764 
0.953103 4.06696 3.06378 3.58422 4.35002 3.83635 1.22453 2.28804 4.20136 
2.46119 2.71053 4.6085 1.98806 1.03258 4.91028 1.47295 1.03028 5.86297 
1.22658 0.444977 5.02873 1.75496 0.309502 5.90255 2.34074 4.31613 5.51175 
0.243538 1.63668 5.2892 2.09154 3.45626 4.48339 1.6095 4.24406 5.97812 
1.1047 1.17084 4.44508 2.07852 4.34407 4.65634 2.30632 2.2294 5.57927 
1.39725 1.5326 5.40852 0.388371 0.514951 5.24594 1.37253 2.45531 5.76469 
4.33575 1.74342 4.32656 3.8587 3.2265 5.70941 1.40458 3.29295 5.46671 
0.330213 1.85136 4.39722 2.263 3.26423 5.413 3.47759 1.93499 4.69637 
1.83527 0.913224 4.05636 0.74637 0.048325 4.25256 4.40844 4.53583 4.01835 
3.37019 4.14556 5.10424 0.302536 2.89758 4.64784 -0.0235945 2.40238 5.37254 
1.26037 4.05481 5.00762 3.88598 3.76501 4.50391 0.388278 3.28564 5.54011 
3.21751 2.75773 4.83679 2.99273 3.65779 4.4039 2.71767 1.0984 4.08109 
3.7128 1.43169 5.39244 3.60742 4.86985 4.54332 0.129317 3.72499 4.68216 
3.10803 3.25806 5.33872 2.93326 0.610311 4.83928 3.73264 3.99068 5.88838 
3.49561 2.70582 4.09191 4.05942 0.370963 4.36605 3.28828 2.32729 5.65457 
4.42232 0.860378 5.60201 4.5491 4.19606 5.29326 4.96742 1.12666 4.05729 
4.943 2.18879 5.56668 4.95665 3.80634 5.88701 4.91752 3.55461 4.83057 
2.43494 4.70806 6.48549 2.23977 1.35637 7.64781 3.99463 0.873514 6.39769 
1.54787 1.87315 7.54303 2.641 1.41834 6.79728 3.54884 4.56808 6.32503 
0.566825 1.27886 7.00597 3.67216 1.79796 6.28499 0.434175 1.17668 6.01 
2.06102 3.5723 6.48588 2.1027 2.01583 6.68162 1.91831 3.62172 7.42361 
2.47911 2.86806 7.21707 1.68593 2.76496 6.80624 0.9661 2.38313 7.32587 
3.20474 2.37715 6.62036 2.56457 3.49985 7.80369 2.57175 2.75896 6.33449 
0.412416 0.101801 6.13321 0.446826 1.74408 7.86585 4.34423 2.83579 6.22559 
0.143561 1.91843 6.71743 4.1631 3.62746 6.64689 2.40363 0.417868 6.87298 
3.77408 0.626016 7.748 3.04303 3.6906 6.83464 0.240878 2.60308 6.27844 
0.455103 2.84795 7.92647 0.668514 3.08876 7.05559 1.90758 4.57421 7.72296 
1.05833 3.46362 6.29204 2.79192 4.13706 6.07865 4.09047 2.71774 7.45388 
3.93388 3.67158 7.84482 3.95245 0.00257177 6.54789 3.68189 4.22849 7.02631 
3.76815 1.59639 7.43123 0.930759 4.64345 7.56341 1.58957 4.71746 6.8308 
2.70729 4.13075 7.07439 3.2078 2.34675 7.53627 2.84638 3.41766 6.02917 
2.68595 4.70018 7.48881 0.423077 4.4903 6.13066 3.22486 0.930334 6.62446 
0.287075 3.82795 7.2671 3.29442 3.14371 7.10108 2.7922 0.64262 7.65373 
4.55161 4.37819 7.50801 4.61233 1.88592 6.44443 4.73754 1.4149 7.30996 
4.97365 1.12842 6.46243 2.76087 3.06574 8.80361 3.39337 1.02047 9.5627 
3.08438 3.8637 9.3323 1.19603 0.31553 9.53557 3.63318 4.67312 9.92961 
1.31627 2.17659 8.25637 0.483831 1.99781 9.53383 4.35696 4.9833 8.8734 
0.411785 0.677154 9.65036 1.26386 2.93609 9.51282 2.38248 1.49044 9.09726 
2.17612 0.392928 9.13858 3.04999 0.347404 8.40162 1.69147 1.19588 8.35795 
4.60365 0.458014 8.14677 0.52534 1.42566 8.89979 4.72174 2.76142 8.17899 
1.085 1.49828 9.88366 0.835258 2.56827 8.73789 2.58517 1.0896 9.91536 
4.27501 1.09416 9.51047 2.63225 3.91771 8.54094 1.96037 2.48179 9.28419 
0.816724 0.787445 8.63979 4.46663 2.77777 9.05235 1.72843 1.89908 8.81851 
1.91401 3.79017 8.31629 2.22913 4.17531 9.3122 0.91162 0.33927 8.02957 
3.75046 3.27618 9.26607 0.638902 3.31057 8.72672 2.26157 4.66369 8.59724 
-0.0250898 2.58745 9.92354 3.69156 0.232583 9.94046 0.180821 3.46166 9.44435 
3.92002 4.51102 8.04684 4.29609 3.8951 8.72413 2.76066 3.1414 9.94813 
4.31845 4.27654 9.59983 1.19575 3.99804 8.30269 4.02862 0.348674 8.79276 
3.05343 1.20281 8.7361 3.5256 4.77499 8.58291 3.9172 2.04863 9.47609 
4.73616 1.19936 8.69225 2.69759 2.67665 8.05907 1.03516 4.28149 9.33335 
4.36319 3.16699 9.85925 3.12978 1.94801 8.23084 0.273936 4.35046 9.91498 
1.75076 2.88143 8.03532 3.02624 2.19746 9.68671 3.1625 9.40706 0.853314 
3.05619 5.93729 1.07272 1.14132 8.83146 0.912229 2.95832 7.38975 1.48196 
0.218972 8.71838 1.04248 0.111671 7.70036 0.598043 2.83975 9.17539 1.83665 
3.8271 6.50868 0.373319 0.735631 9.64113 1.05452 0.179692 9.74689 0.301677 
3.83208 9.06306 0.261981 4.102 5.0565 0.616568 3.69427 8.27859 0.859061 
1.68288 7.45223 0.115712 3.35139 6.82815 1.28042 2.9553 6.74267 0.18014 
2.92892 7.99016 0.186247 3.8916 7.65305 1.65927 0.654019 6.04444 0.47423 
4.27097 8.60538 1.82392 1.99832 8.45911 1.12742 4.21 5.92497 0.856575 
3.73865 5.98867 1.46451 1.04131 9.26309 0.103414 3.91142 5.2489 1.81039 
-0.0603467 9.44534 1.42438 2.30395 5.85255 0.745814 2.45024 5.37338 1.8808 
1.26898 6.64832 1.01263 1.89705 5.3317 0.0357973 0.120386 5.35481 1.12195 
3.63669 7.41731 0.604469 1.0351 7.56934 1.18103 0.826601 6.70846 1.9766 
0.0199212 6.71555 0.184899 1.66165 6.71612 1.90179 2.08994 6.71152 0.652159 
2.11976 5.06199 1.08376 4.22115 7.37965 0.0143726 0.291303 8.02721 1.5161 
0.127191 5.15818 0.24457 0.0884922 6.1872 1.31453 2.1419 6.36264 1.41367 
1.40549 5.75733 0.526406 4.66204 8.32159 0.207487 4.75931 9.23279 1.02739 
4.76613 6.22193 1.62444 4.784 7.01168 1.74872 4.9047 7.25877 0.727922 
0.103319 7.81794 2.61805 3.63623 8.29128 2.76604 0.682542 8.51913 3.29611 
4.0547 8.07761 3.63113 1.6314 9.48031 2.07789 2.93299 9.34804 2.82717 
4.01426 5.73206 2.95877 4.07063 6.56489 3.50007 2.84225 8.51998 2.60681 
3.29023 7.1617 2.4993 2.4308 6.73873 3.8023 4.49857 9.99203 3.81175 
1.27929 7.11874 3.96279 2.39706 6.1185 2.30963 4.56059 8.28081 2.69347 
3.2103 8.65982 3.66444 1.73064 9.28498 2.94807 2.22801 6.85508 2.71488 
0.66202 9.68235 2.23731 3.27596 6.47866 3.18192 1.63604 5.39514 2.87697 
0.315669 9.32664 3.18579 1.56623 9.33304 3.90006 4.08327 6.16193 2.22024 
0.0600921 5.34611 2.05357 1.50046 7.3875 2.3896 4.21794 5.33803 3.95969 
1.21304 7.84969 3.16972 4.1816 7.009 2.62853 0.9141 7.90134 2.16033 
2.07882 7.52693 3.27023 0.760755 6.07152 3.1745 1.9206 8.64303 3.41866 
1.70029 8.58699 2.38701 0.65762 5.04438 3.76444 0.169845 6.79633 3.46443 
3.91333 9.35738 2.88379 3.21269 6.3394 2.03127 0.957026 5.57139 2.16409 
-0.0123561 6.93063 2.2245 4.76596 9.25579 3.28706 4.70273 6.16496 3.99944 
3.01486 9.66549 4.67844 4.3403 5.24423 4.90594 4.59943 9.50365 4.32057 
3.73578 5.6216 5.48526 4.72599 8.75075 4.15281 3.56209 7.36225 5.49541 
2.96306 8.52605 4.5426 1.44202 6.29182 4.22411 1.11924 9.17611 4.70874 
2.98385 5.02956 5.16407 4.32087 8.81177 5.26162 1.89785 7.33973 5.9841 
3.39888 9.10609 5.30934 2.10946 7.56648 4.25638 0.800205 9.61269 5.48827 
2.9694 7.61175 4.72028 2.54448 9.30416 5.53078 0.692447 8.65611 5.69541 
2.83869 8.34859 5.74091 4.57079 6.59966 4.74753 3.25082 6.27523 5.88424 
3.40351 9.94551 5.7033 1.37191 8.13521 4.14979 1.45856 5.83342 5.14784 
0.365842 6.5238 4.56988 0.978117 6.00072 5.84329 0.989272 7.89556 5.57864 
2.29283 8.99713 4.31078 1.99099 5.0542 5.21768 2.29134 8.42433 5.07164 
1.1325 6.7399 5.01432 3.49911 5.76136 4.01267 0.55574 7.74768 4.68017 
1.38081 7.60698 4.97237 4.22556 9.97126 5.73013 4.14323 9.67606 4.95238 
1.95748 9.61847 4.99005 0.902168 6.7393 5.95255 1.6558 8.79772 5.57101 
0.32292 5.22618 5.58616 4.61178 8.19179 5.7352 0.299204 7.08383 5.51811 
2.73845 7.42922 5.82832 2.71101 5.55995 4.48002 4.83686 5.89251 6.84429 
2.92738 9.72628 7.30077 0.824633 8.55504 7.23767 1.11172 9.81154 6.90243 
2.9655 8.09899 7.28083 2.18624 9.80867 6.25383 0.34951 9.72247 7.31323 
0.219814 7.87673 6.11929 3.00541 5.34419 6.04657 3.87125 9.88649 7.41109 
3.65484 6.83097 7.36204 4.40279 7.30474 6.16588 4.21672 9.07643 7.16389 
4.09977 8.93769 6.17921 3.49328 8.07956 6.5027 3.54132 8.77706 7.85554 
[...]
POINT_DATA 1000
FIELD FieldData 7
id 1 1000 int
661 956 448 91 461 416 29 327 339 
707 67 776 352 467 110 783 130 984 
196 335 225 820 677 1000 385 587 656 
857 95 767 106 999 570 916 316 259 
127 341 974 226 749 947 282 213 35 
210 9 968 204 298 404 313 18 868 
358 585 254 469 807 858 346 258 659 
865 406 943 456 394 265 641 460 428 
333 871 889 19 228 216 846 743 62 
596 482 15 75 821 172 427 786 541 
529 765 421 175 907 272 760 566 954 
359 635 937 39 967 23 96 395 46 
778 910 220 290 511 524 147 970 389 
509 746 361 987 658 308 483 633 185 
231 249 762 407 789 863 214 896 322 
137 371 620 722 493 671 653 193 277 
207 741 932 232 245 364 752 573 375 
572 80 890 502 476 975 660 488 845 
478 608 913 2 785 439 31 303 795 
665 501 43 454 139 251 257 56 936 
794 472 805 539 676 169 768 651 891 
869 861 880 366 988 918 396 424 708 
148 996 640 559 49 372 510 283 830 
944 314 496 523 908 487 750 227 486 
291 536 42 766 902 260 212 239 270 
721 826 69 646 824 877 14 883 87 
281 901 745 912 74 323 219 420 307 
287 415 923 126 138 348 898 998 582 
924 675 521 484 32 578 160 99 224 
588 701 859 419 955 736 107 319 639 
645 562 668 275 266 164 991 965 796 
133 638 555 447 161 927 928 444 430 
368 363 135 976 152 357 685 37 458 
401 962 906 563 684 589 53 215 195 
710 507 505 942 971 763 885 309 601 
834 392 664 238 20 174 822 30 391 
607 255 884 840 678 103 994 934 873 
802 455 423 108 827 429 181 634 720 
667 295 151 542 894 163 3 68 449 
630 296 289 182 724 546 360 221 798 
917 114 848 700 808 88 379 643 757 
739 442 874 744 605 336 897 123 432 
866 844 22 105 188 10 870 540 286 
315 931 198 115 344 577 302 606 324 
604 299 887 140 382 920 879 499 393 
591 240 145 525 847 567 192 191 165 
397 470 632 294 306 134 610 50 285 
751 837 292 13 753 709 202 155 498 
441 719 92 8 297 836 194 180 310 
628 403 774 279 698 93 963 116 440 
252 36 26 852 398 400 899 706 474 
104 168 453 28 475 508 125 816 997 
512 892 867 979 793 199 888 791 983 
426 629 755 422 978 697 655 84 71 
121 772 548 648 318 237 149 775 201 
365 531 413 647 236 909 549 623 61 
903 769 157 598 688 217 495 516 876 
759 812 842 764 234 843 787 618 100 
21 612 142 864 941 716 584 79 241 
264 886 725 597 280 565 619 770 748 
332 445 609 446 514 293 288 828 670 
25 875 905 966 304 636 12 211 380 
159 256 409 930 405 853 784 921 351 
538 625 662 925 340 208 7 693 627 
354 206 679 951 244 186 33 433 72 
731 742 278 730 370 580 603 703 187 
781 860 600 792 692 120 98 24 83 
611 691 803 102 200 247 650 437 243 
284 326 780 78 480 666 321 434 806 
513 410 17 543 672 624 756 506 773 
579 728 331 350 626 939 615 980 729 
250 960 958 465 205 590 652 895 992 
583 952 345 118 926 948 972 547 485 
189 267 66 425 47 73 399 687 51 
654 862 569 829 311 173 530 112 568 
111 132 89 261 637 355 904 343 621 
702 76 526 65 86 602 823 16 586 
797 819 450 431 38 263 369 269 146 
171 644 158 384 935 242 268 383 833 
594 761 674 740 613 141 190 581 734 
872 374 754 408 881 940 616 800 438 
156 468 492 835 839 229 40 717 592 
737 614 911 222 342 162 386 503 811 
946 945 90 973 4 938 109 329 477 
233 129 497 414 452 494 59 558 788 
712 804 518 595 500 373 462 533 969 
683 131 235 990 473 63 554 832 995 
153 77 758 312 551 854 690 334 726 
176 850 262 622 143 714 349 81 617 
54 815 179 851 378 117 919 178 305 
779 376 893 48 564 119 520 561 915 
961 545 571 248 274 950 682 900 849 
593 574 855 150 362 471 695 738 727 
457 197 841 977 481 1 209 325 818 
669 527 479 733 838 985 642 347 466 
771 825 856 810 953 183 55 699 814 
443 914 177 44 989 464 203 82 799 
58 882 184 64 504 631 715 713 732 
170 933 959 544 528 491 367 949 356 
681 553 801 735 929 790 718 657 515 
673 101 45 338 230 704 878 412 124 
831 122 301 694 402 535 300 97 550 
560 686 273 817 436 663 166 489 689 
982 534 276 813 519 388 517 60 575 
144 253 381 557 387 271 317 154 782 
5 57 964 320 417 94 70 723 113 
490 435 532 451 463 27 649 377 328 
711 777 223 246 680 337 556 390 809 
136 34 705 993 128 330 418 552 599 
353 218 957 167 986 411 696 6 922 
11 576 522 85 981 52 41 459 747 
537 
type 1 1000 int
2 2 1 1 1 1 1 1 1 
2 1 2 1 1 1 2 1 2 
1 1 1 2 2 2 1 2 2 
2 1 2 1 2 2 2 1 1 
1 1 2 1 2 2 1 1 1 
1 1 2 1 1 1 1 1 2 
1 2 1 1 2 2 1 1 2 
2 1 2 1 1 1 2 1 1 
1 2 2 1 1 1 2 2 1 
2 1 1 1 2 1 1 2 2 
2 2 1 1 2 1 2 2 2 
1 2 2 1 2 1 1 1 1 
2 2 1 1 2 2 1 2 1 
2 2 1 2 2 1 1 2 1 
1 1 2 1 2 2 1 2 1 
1 1 2 2 1 2 2 1 1 
1 2 2 1 1 1 2 2 1 
2 1 2 2 1 2 2 1 2 
1 2 2 1 2 1 1 1 2 
2 2 1 1 1 1 1 1 2 
2 1 2 2 2 1 2 2 2 
2 2 2 1 2 2 1 1 2 
1 2 2 2 1 1 2 1 2 
2 1 1 2 2 1 2 1 1 
1 2 1 2 2 1 1 1 1 
2 2 1 2 2 2 1 2 1 
1 2 2 2 1 1 1 1 1 
1 1 2 1 1 1 2 2 2 
2 2 2 1 1 2 1 1 1 
2 2 2 1 2 2 1 1 2 
2 2 2 1 1 1 2 2 2 
1 2 2 1 1 2 2 1 1 
1 1 1 2 1 1 2 1 1 
1 2 2 2 2 2 1 1 1 
2 2 2 2 2 2 2 1 2 
2 1 2 1 1 1 2 1 1 
2 1 2 2 2 1 2 2 2 
2 1 1 1 2 1 1 2 2 
2 1 1 2 2 1 1 1 1 
2 1 1 1 2 2 1 1 2 
2 1 2 2 2 1 1 2 2 
2 1 2 2 2 1 2 1 1 
2 2 1 1 1 1 2 2 1 
1 2 1 1 1 2 1 2 1 
2 1 2 1 1 2 2 1 1 
2 1 1 2 2 2 1 1 1 
1 1 2 1 1 1 2 1 1 
2 2 1 1 2 2 1 1 1 
1 2 1 1 1 2 1 1 1 
2 1 2 1 2 1 2 1 1 
1 1 1 2 1 1 2 2 1 
1 1 1 1 1 2 1 2 2 
2 2 2 2 2 1 2 2 2 
1 2 2 1 2 2 2 1 1 
1 2 2 2 1 1 1 2 1 
1 2 1 2 1 2 2 2 1 
2 2 1 2 2 1 1 2 2 
2 2 2 2 1 2 2 2 1 
1 2 1 2 2 2 2 1 1 
1 2 2 2 1 2 2 2 2 
1 1 2 1 2 1 1 2 2 
1 2 2 2 1 2 1 1 1 
1 1 1 2 1 2 2 2 1 
2 2 2 2 1 1 1 2 2 
1 1 2 2 1 1 1 1 1 
2 2 1 2 1 2 2 2 1 
2 2 2 2 2 1 1 1 1 
2 2 2 1 1 1 2 1 1 
1 1 2 1 1 2 1 1 2 
2 1 1 2 2 2 2 2 2 
2 2 1 1 2 2 2 2 2 
1 2 2 1 1 2 2 2 2 
2 2 1 1 2 2 2 2 1 
1 1 1 1 1 1 1 2 1 
2 2 2 2 1 1 2 1 2 
1 1 1 1 2 1 2 1 2 
2 1 2 1 1 2 2 1 2 
2 2 1 1 1 1 1 1 1 
1 2 1 1 2 1 1 1 2 
2 2 2 2 2 1 1 2 2 
2 1 2 1 2 2 2 2 1 
1 1 1 2 2 1 1 2 2 
2 2 2 1 1 1 1 2 2 
2 2 1 2 1 2 1 1 1 
1 1 1 1 1 1 1 2 2 
2 2 2 2 1 1 1 2 2 
2 1 1 2 1 1 2 2 2 
1 1 2 1 2 2 2 1 2 
1 2 1 2 1 2 1 1 2 
1 2 1 2 1 1 2 1 1 
2 1 2 1 2 1 2 2 2 
2 2 2 1 1 2 2 2 2 
2 2 2 1 1 1 2 2 2 
1 1 2 2 1 1 1 1 2 
2 2 1 2 2 2 2 1 1 
2 2 2 2 2 1 1 2 2 
1 2 1 1 2 1 1 1 2 
1 2 1 1 2 2 2 2 2 
1 2 2 2 2 1 1 2 1 
2 2 2 2 2 2 2 2 2 
2 1 1 1 1 2 2 1 1 
2 1 1 2 1 2 1 1 2 
2 2 1 2 1 2 1 1 2 
2 2 1 2 2 1 2 1 2 
1 1 1 2 1 1 1 1 2 
1 1 2 1 1 1 1 2 1 
1 1 2 1 1 1 2 1 1 
2 2 1 1 2 1 2 1 2 
1 1 2 2 1 1 1 2 2 
1 1 2 1 2 1 2 1 2 
1 2 2 1 2 1 1 1 2 
2 
i 3 1000 int
-37 0 0 -60 0 1 -3 0 1 
-6 0 0 148 1 0 -65 0 0 
67 1 0 -28 0 0 -40 0 1 
-217 -1 0 146 1 1 -70 0 1 
-51 0 1 175 1 1 -33 0 1 
-27 0 1 -18 0 0 100 1 1 
137 1 0 -53 0 1 -44 0 1 
-67 0 0 -18 0 1 -73 0 0 
-128 0 0 -28 0 1 -58 0 1 
-2 0 0 -10 0 0 -50 0 1 
-35 0 0 -19 0 0 -136 -1 1 
-49 0 0 -71 0 0 -80 0 -1 
-62 0 1 25 0 0 225 1 1 
-65 0 1 -124 0 1 20 0 1 
126 1 0 123 1 1 -94 0 2 
98 1 0 149 1 0 138 1 1 
-100 0 1 -72 0 0 8 0 0 
-89 0 0 -23 0 1 -62 0 1 
-20 0 0 -67 0 1 5 0 0 
94 1 0 -34 0 0 -11 0 0 
123 1 0 -61 0 1 -49 0 0 
-46 0 -1 -53 0 1 -48 0 0 
-14 0 0 72 1 -1 -46 0 1 
-10 0 0 -7 0 0 -47 0 1 
-4 0 0 -9 0 0 1 0 0 
-54 0 0 -78 0 1 -74 0 1 
-39 0 1 -41 0 0 -38 0 0 
-43 0 1 18 0 0 -62 0 1 
100 1 1 107 1 0 -116 0 0 
-6 0 0 -90 0 1 76 1 0 
-7 0 0 123 1 0 100 1 0 
11 0 0 -50 0 0 -96 0 0 
-49 0 1 156 1 1 113 1 0 
-28 0 0 -167 -1 0 -19 0 0 
-72 0 0 100 1 -1 -74 0 0 
-57 0 0 53 1 0 90 0 0 
-113 0 1 -23 0 1 171 1 0 
98 1 0 -18 0 -1 -25 0 1 
-81 0 0 132 1 -1 -35 0 0 
-60 0 0 -8 0 0 -23 0 0 
90 1 0 -27 0 0 -35 0 1 
77 1 0 -100 0 1 12 0 0 
-33 0 1 -61 0 1 -75 0 0 
21 0 0 -71 0 0 -25 0 0 
7 0 0 -7 0 -1 39 1 0 
-119 0 0 -35 0 0 4 0 0 
-81 0 0 135 1 0 -2 0 0 
153 1 0 109 1 0 -105 0 1 
111 1 1 -90 0 0 -34 0 0 
-51 0 1 -38 0 0 -29 0 0 
5 0 -1 -72 0 0 84 1 -1 
-50 0 0 -22 0 0 -23 0 0 
-94 0 0 -28 0 0 114 1 1 
27 0 0 -80 0 1 -19 0 0 
4 0 0 -27 0 0 5 0 0 
-12 0 0 181 1 0 -22 0 0 
89 1 0 98 1 0 -57 0 0 
57 1 1 71 1 0 -68 0 0 
117 1 0 -29 0 0 -26 0 0 
-27 0 0 -28 0 0 5 0 0 
46 0 0 18 0 0 -73 0 -1 
-79 0 0 90 1 -1 119 1 0 
-95 0 -2 32 0 -1 29 0 -1 
-31 0 0 -15 0 0 27 0 0 
-15 0 0 34 0 0 -62 0 0 
-27 0 0 1 0 0 -86 0 0 
-16 0 0 -11 0 -1 -88 0 0 
-92 0 0 -5 0 0 -73 0 0 
-36 0 -1 -97 0 0 130 1 -1 
-69 0 0 -54 0 0 95 0 0 
-68 0 1 -55 0 0 -75 0 -1 
-75 0 0 -70 0 0 98 1 0 
-71 0 0 -107 0 -1 -54 0 0 
-51 0 0 128 1 0 -89 0 0 
130 1 -1 -163 -1 0 -60 0 0 
115 1 0 159 1 -1 -48 0 0 
-37 0 0 10 0 0 133 1 0 
11 0 0 0 0 -1 5 0 0 
14 0 -1 -65 0 -1 -5 0 0 
19 0 -1 29 0 0 -119 -1 -1 
16 0 -1 7 0 0 124 1 -1 
103 1 0 3 0 -1 77 1 -1 
106 1 -1 -35 0 0 -9 0 0 
-39 0 -1 -123 0 0 9 0 -1 
-39 0 0 -28 0 0 -23 -1 1 
26 0 1 135 0 0 57 0 0 
62 0 0 -76 -1 0 -89 -1 1 
32 0 1 42 0 0 -115 -1 1 
58 0 0 11 0 1 -157 -1 2 
-119 -1 1 -5 0 0 40 0 1 
52 0 0 98 0 1 -8 0 1 
-58 -1 0 -99 -1 0 35 0 0 
59 0 0 21 0 -1 17 0 0 
92 0 1 21 0 -1 -23 0 0 
53 0 1 -1 0 1 15 0 1 
-4 0 0 30 0 1 -22 0 1 
-13 0 0 17 0 -1 -6 0 0 
51 0 0 14 0 1 -156 -1 1 
25 0 1 -186 -1 0 35 0 0 
52 0 0 -59 -1 0 55 0 0 
8 0 1 44 0 0 35 0 1 
8 0 0 46 0 0 -102 -1 1 
74 0 0 -70 -1 0 -86 -1 0 
13 0 0 49 0 0 23 0 1 
21 0 0 33 0 0 48 0 0 
37 0 0 -15 0 0 38 0 0 
-136 -1 0 -136 -1 0 53 0 -1 
-35 -1 1 11 0 0 -13 0 0 
52 0 1 -59 -1 1 33 0 0 
-15 0 1 -5 0 0 8 0 0 
47 0 0 22 0 0 -80 -1 0 
-1 0 1 9 0 0 -117 -1 0 
-90 -1 1 -38 0 0 -20 0 0 
49 0 0 59 0 -1 18 0 0 
-49 0 0 64 0 0 -29 0 0 
-145 -1 1 9 0 0 101 0 0 
45 0 0 68 0 0 -8 0 0 
57 0 0 36 0 -1 -124 -1 -1 
55 0 -1 -131 -1 0 13 0 0 
-110 -1 0 57 0 0 -112 -1 0 
21 0 0 -154 -1 -1 -125 -1 1 
53 0 0 71 0 0 48 0 0 
-75 -1 0 -23 0 1 59 0 0 
6 0 0 8 0 -1 59 0 0 
80 0 0 15 0 0 74 0 0 
22 0 0 -38 0 0 28 0 0 
12 0 -1 74 0 0 68 0 0 
70 0 0 19 0 0 -92 -1 1 
12 0 0 -132 -1 0 62 0 0 
21 0 0 25 0 0 -19 0 0 
52 0 -1 39 0 0 95 0 -1 
80 0 0 -87 -1 -1 67 0 0 
56 0 1 -16 0 0 79 0 -1 
82 0 0 -98 -1 -1 -109 -1 0 
112 0 1 23 0 0 24 0 -1 
-142 -1 0 -90 -1 0 99 0 0 
-125 -1 -1 21 0 0 16 0 0 
23 0 0 86 0 0 56 0 -1 
54 0 -1 55 0 -1 23 0 -1 
65 0 0 76 0 -1 -53 -1 0 
37 0 -1 17 0 0 85 0 -1 
107 0 0 -122 -1 0 -183 -1 -1 
5 0 -1 62 0 0 69 0 0 
70 0 -1 32 0 0 149 0 0 
38 0 0 108 0 0 16 0 0 
33 0 0 99 0 -1 106 0 -1 
-156 -1 -1 23 0 0 5 0 0 
26 0 0 -1 0 -1 -79 -1 0 
240 1 -1 37 0 -1 65 0 -1 
57 0 0 11 0 0 21 0 0 
97 0 0 -116 -1 -1 102 0 -1 
-99 -1 0 50 0 -1 -79 -1 -1 
-86 -1 -1 50 0 0 46 0 0 
0 0 0 9 0 0 39 0 -1 
33 0 -1 19 0 0 -159 -1 0 
-129 -1 0 -5 0 0 23 0 0 
35 0 -1 38 0 -1 3 0 -1 
63 0 0 101 0 -1 -157 -1 -1 
206 1 0 34 0 -1 14 0 -1 
59 0 -1 -104 -1 -1 -49 0 -1 
-171 -1 -2 26 0 -1 -27 0 -1 
-142 -1 0 93 0 0 44 1 1 
127 1 0 -52 0 1 -72 0 1 
130 1 1 -48 0 1 -50 0 1 
-6 0 0 -87 0 0 -65 0 1 
-106 0 0 -44 0 0 -42 0 0 
-57 0 0 -75 0 1 -28 0 1 
-99 0 0 -39 0 1 -95 0 1 
-27 0 0 7 0 1 -34 0 1 
-29 0 1 1 0 1 -22 0 0 
-52 0 1 -84 0 1 -30 0 1 
-35 0 0 40 0 1 -70 0 1 
-45 0 1 -63 0 0 -3 0 1 
-40 0 1 -32 0 1 -9 0 0 
-87 0 1 3 0 1 -73 0 0 
-26 0 1 -5 0 0 -43 0 0 
-47 0 1 -58 0 1 175 1 1 
-13 0 0 167 1 0 -30 0 0 
-54 0 1 -69 0 0 -48 0 1 
-33 0 1 -43 0 0 112 1 -1 
-99 0 0 -16 0 0 -27 0 0 
-30 0 1 -50 0 0 -89 0 0 
-7 0 -1 -32 0 1 -19 0 1 
-87 0 0 -4 0 1 -27 0 0 
-34 0 1 -71 0 0 -76 0 0 
-74 0 0 73 1 0 -33 0 1 
136 1 0 -14 0 0 199 1 1 
-15 0 0 6 0 0 83 1 0 
-63 0 1 -52 0 1 -20 0 1 
154 1 0 -7 0 0 -37 0 1 
42 1 0 -14 0 0 2 0 0 
-38 0 0 33 0 0 -17 0 0 
-18 0 1 -49 0 1 -23 0 0 
-32 0 0 -205 -1 0 72 1 0 
146 1 0 91 1 -1 110 1 0 
203 1 0 8 0 -1 124 1 -1 
-89 0 0 -11 0 0 109 1 0 
110 1 0 -102 0 0 -65 0 0 
94 1 0 -17 0 1 -25 0 1 
95 1 0 105 1 0 -98 0 -1 
-16 0 0 108 1 -1 96 1 0 
-23 0 0 81 1 0 107 1 0 
0 0 -1 -110 0 0 -111 0 0 
-24 0 0 -73 0 0 -41 0 0 
-88 0 0 -17 0 0 -118 0 0 
11 0 1 -62 0 1 24 0 0 
5 0 -1 -58 0 0 -69 0 0 
-58 0 0 -25 0 0 -70 0 0 
-83 0 0 -22 0 -1 24 0 -1 
-38 0 1 -65 0 0 -44 0 0 
-22 0 0 23 0 0 3 0 0 
74 1 0 -19 0 -1 -26 0 0 
102 1 0 96 1 1 116 1 1 
-36 0 0 118 1 0 114 1 1 
-4 0 0 -107 0 -1 5 0 -1 
4 0 0 -69 0 0 -107 0 0 
-59 0 1 37 0 0 101 1 0 
108 1 0 44 1 0 138 1 0 
24 0 -1 65 0 0 -72 0 1 
104 1 0 -106 0 0 -21 0 0 
-88 0 0 -59 0 0 48 0 0 
-81 0 -1 90 1 0 3 0 0 
-61 0 1 -33 0 0 146 1 -1 
-18 0 0 -11 0 0 88 1 0 
-36 0 1 -9 0 0 -37 0 0 
59 1 0 64 0 0 -53 0 0 
-7 0 0 -51 0 1 79 1 0 
53 1 -1 -19 0 0 5 0 0 
110 1 0 72 1 0 -71 0 0 
-20 0 0 -21 0 1 98 1 0 
141 1 -1 -86 0 -1 132 1 0 
120 1 -1 -36 0 0 56 1 -1 
-58 0 -1 -54 0 0 -24 0 0 
-32 0 0 -97 0 0 -7 0 0 
-10 0 -1 187 1 0 2 0 0 
-35 0 0 -30 0 0 -166 -1 0 
31 0 -1 -40 0 0 17 0 -1 
-68 0 0 -90 0 0 -21 0 -1 
-46 0 0 -30 0 0 -14 0 0 
-23 0 0 -8 0 0 -40 0 0 
-4 0 -1 -17 0 0 -65 0 0 
-4 0 -1 -9 0 -1 22 0 -1 
-22 0 0 159 1 -1 25 0 -1 
25 0 0 11 0 0 -107 0 0 
-20 0 0 -33 0 0 -67 0 0 
-12 0 0 -43 0 0 -18 0 -1 
-31 0 0 56 0 1 -124 -1 -1 
145 0 1 -22 0 1 70 0 0 
49 0 0 -22 0 0 9 0 1 
38 0 0 52 0 0 30 0 0 
-31 0 1 -106 -1 0 13 0 0 
18 0 0 -67 -1 1 73 0 0 
-53 -1 1 -94 -1 0 133 0 1 
84 0 0 22 0 0 11 0 0 
44 0 0 28 0 0 40 0 0 
60 0 0 -101 -1 0 -110 -1 0 
75 0 1 13 0 1 -72 -1 0 
105 0 0 180 1 0 70 0 0 
16 0 0 50 0 0 -20 0 0 
4 0 0 12 0 0 52 0 0 
-84 -1 0 -31 0 0 -82 -1 1 
27 0 0 102 0 1 -15 0 0 
-9 0 1 -3 0 1 -2 0 0 
57 0 0 36 0 0 89 0 0 
41 0 1 67 0 1 -104 -1 0 
23 0 0 51 0 0 212 1 0 
40 0 0 26 0 1 45 0 1 
29 0 1 78 0 0 81 0 0 
-104 -1 0 -98 -1 0 -95 -1 0 
-48 -1 0 17 0 0 55 0 0 
-18 0 0 -92 -1 0 5 0 0 
51 0 0 5 0 0 -9 0 0 
54 0 0 47 0 0 38 0 0 
-2 0 0 88 0 -1 22 0 1 
-156 -1 0 -111 -1 -1 17 0 -1 
-4 0 0 -68 -1 0 7 0 1 
26 0 1 -10 0 1 -149 -1 0 
59 0 -1 20 0 0 51 0 0 
43 0 0 145 0 1 -46 0 1 
10 0 0 51 0 0 39 0 0 
62 0 0 67 0 -1 -135 -1 -1 
-136 -1 0 62 0 -1 98 0 0 
-169 -1 0 23 0 0 50 0 0 
99 0 -1 6 0 1 44 0 0 
-137 -1 0 -10 0 0 50 0 0 
-77 -1 0 74 0 -1 -104 -1 0 
45 0 0 62 0 0 54 0 -1 
60 0 0 26 0 -1 -106 -1 1 
53 0 0 5 0 0 49 0 0 
30 0 -1 60 0 0 19 0 0 
-97 -1 0 33 0 -1 103 0 0 
39 0 -1 -19 0 0 46 0 0 
54 0 -1 37 0 0 16 0 0 
100 0 0 -128 -1 1 -147 -1 1 
86 0 0 -18 0 0 88 0 0 
11 0 0 38 0 -1 53 0 -1 
59 0 -1 75 0 1 28 0 0 
19 0 0 -167 -1 1 -144 -1 -1 
31 0 0 -16 0 1 -93 -1 0 
-111 -1 0 46 0 0 -128 -1 -1 
84 0 -1 -47 -1 0 60 0 0 
44 0 0 78 0 0 80 0 -1 
95 0 0 -138 -1 0 86 0 0 
52 0 0 60 0 0 67 0 -1 
-150 -1 0 -113 -1 0 86 0 0 
67 0 -1 3 0 0 39 0 0 
36 0 0 27 0 -1 -111 -1 1 
21 0 -1 44 0 0 47 0 0 
15 0 -1 68 0 -1 -55 -1 0 
4 0 -1 32 0 0 -103 -1 0 
123 0 0 -54 -1 -1 -100 -1 0 
-21 0 0 26 0 0 77 0 -1 
6 0 -1 -128 -1 0 25 0 0 
90 0 0 -115 -1 -1 -50 0 0 
-12 0 0 3 0 0 69 0 -1 
27 0 -1 98 0 0 45 0 -1 
31 0 0 56 0 0 -18 0 0 
52 0 0 67 0 -1 34 0 -1 
-96 -1 -1 27 0 -1 30 0 -1 
3 0 0 106 0 0 -67 -1 0 
16 0 0 -142 -1 1 29 0 -1 
51 0 -1 -96 -1 -1 -9 0 -1 
129 0 0 -81 -1 -1 95 0 -1 
68 0 -1 52 0 -1 105 0 -1 
-10 0 -1 116 0 0 -63 -1 0 
21 0 0 26 0 0 41 0 -1 
-71 -1 0 57 0 -1 39 0 -1 
69 0 0 25 0 -1 45 0 -1 
103 0 -1 44 0 0 -32 0 -1 
21 0 -1 3 0 -1 27 0 0 
-21 0 -1 56 0 -1 -13 0 0 
61 0 0 49 0 -1 137 0 0 
-114 -1 -1 15 0 0 -124 -1 0 
81 0 0 
v 3 1000 double
-249.42694939 -5.1246350366 5.3453062494 -252.02251908 -13.176074189 -3.5806743069 19.745709853 -0.18204552239 15.027141287 
-14.743032964 -25.913541901 -2.0733966859 -150.04352087 1.0861388756 -4.2868357989 -290.94640293 24.304954674 -16.831589874 
-479.89372607 10.530567109 -26.00333036 -211.97120834 2.0025901685 9.0157063758 -271.7428925 -20.727682887 2.2147361265 
-85.491262888 -12.258055664 -11.695775166 -206.88519998 -0.68770336476 11.068597505 -446.72215193 -22.936293669 -6.2705943052 
-373.88485959 12.194207754 -15.067841578 -70.813145975 11.778535456 5.5903798887 -332.526178 25.622111444 0.1321865862 
-140.69400251 -23.200369153 -16.530742705 -274.55227639 -2.9135685395 19.130956299 -281.63204829 -10.618397891 16.688469686 
-394.5212858 -0.11839908323 18.052159156 -6.975024842 0.37664340209 -20.173196955 -404.62097768 -10.899116001 5.0620662178 
-367.91188322 -13.475173509 1.0956991198 4.5270011277 -18.028426007 9.4171297869 -156.18117694 5.0176008523 -8.7665757038 
-440.71434343 -28.750296375 2.1696489353 -131.86565996 -4.635109561 14.589667591 -327.46501235 11.929257099 -1.9336198943 
-108.43414179 15.422425191 -10.943229673 -21.019653371 -28.715183856 -19.257310231 -232.29576471 -11.160289049 -9.1085543358 
-193.76697654 20.999229328 -5.0777910838 -255.04771224 7.376884027 -2.874589187 6.5356943733 28.124045564 13.430203893 
-333.77287322 2.6209853905 6.0178475035 -416.55437786 -24.907133858 14.224889071 -310.09597455 1.3039687435 -20.672807764 
-337.46033337 1.4471538916 -4.0170990853 57.043137092 -2.3638541779 -8.6588998032 -57.39867685 -31.05663463 21.360124962 
-353.61922729 -13.113275147 7.1994527793 -510.3435937 12.382804922 -31.507707475 -90.270555147 -0.81671735876 -10.324915757 
-332.97659987 7.9786418607 1.2140103849 -100.22152058 16.883900012 13.596775879 -263.25530992 29.782139504 -34.411918865 
-438.87908511 -24.416062989 -2.5248491965 -152.35552437 -14.814031676 7.5434308692 -324.48487791 11.157754567 15.281526516 
-359.3511174 -5.6465659163 -7.6315445989 -436.15760326 -17.093088342 1.0734238723 -72.38478151 -4.2743407105 -2.9544126962 
-416.42173926 3.7264813776 -7.7519597811 -191.27029109 4.044400743 13.190280884 -243.22722997 -11.873475542 23.944899609 
-168.6723042 11.839076218 -1.4798507401 -407.71044074 14.22908753 1.2038725082 -50.319310514 -8.3533537306 -24.273879183 
-439.51118232 3.1400015292 14.935259719 -257.64024873 0.19681357072 11.201392977 -38.220263541 -8.7816873073 -11.099179648 
-324.44865137 25.487055438 34.237793865 -398.61780773 9.3743363607 -5.0906662015 -449.26254933 -26.461229002 6.8214261971 
-327.64657787 3.4777275112 3.9949219311 -245.22290736 -0.81913487096 0.87089965117 -495.67106452 -19.852919419 15.321754744 
-262.35195572 -3.2404503879 4.2783129448 -403.93129792 -12.824377073 19.518837051 -245.06975824 11.460258198 -8.112745059 
-177.74876019 3.8965072362 19.793863316 -51.490180469 6.7362532108 -15.284941539 -304.47328788 8.9478497857 23.816511114 
-223.65859795 10.840115689 8.2922978599 -11.829261711 22.790214042 8.6155661666 -65.919634395 -5.9055999551 -11.362813163 
-309.26203884 -2.2261866367 6.4510399048 -202.79064206 18.556284786 -3.9937527789 -467.89556111 1.4147269008 15.346246517 
-258.58733117 -10.648309516 13.296305175 -232.33901731 3.6905122086 24.804764185 -119.82723974 12.31612349 -20.789417701 
-190.22566348 0.55110208839 -13.581724992 -130.05795876 19.352726426 18.275398556 -151.01038805 -0.73457016291 5.1396031821 
-197.89624282 -13.12791074 -11.369297102 -363.68765966 -1.0634591906 14.422604028 -507.0862216 7.1881469471 4.6396936371 
-182.90806996 15.806957461 4.8709272841 -387.76874815 -0.95395232974 -36.992421059 -294.73978577 -12.89293156 -1.8295298981 
-57.224076446 -14.284830177 -15.07254705 -284.89923579 15.899984949 -14.516501115 -516.22768267 22.864242127 -38.781744386 
-78.5158374 21.829214508 -19.988767451 -375.16854567 -13.484442884 5.4426032215 -389.18219987 -6.2941037258 7.4359797316 
-151.50200503 15.665513485 22.016527036 -89.451390047 -10.715823536 -37.410324955 -270.13569276 -17.483842501 2.2671690855 
-134.11849549 30.379130198 -5.3233618637 -57.080797441 -5.8860603336 -5.1604013552 -303.87306083 7.2505846922 37.424872678 
-188.33085921 -49.033383916 -22.842670344 -427.10997668 11.864018347 3.8204785767 -412.69318079 0.71035473392 17.244222289 
-420.05365321 -11.817352799 10.802073776 -455.32225795 -21.770347626 -6.3662798959 -29.355127227 -1.9383318936 -21.015749418 
-297.64521168 -27.800867059 -18.677888869 -126.62638525 -16.613215991 -15.862578415 -39.787634 -5.685673928 -13.289850443 
-387.2386495 2.6181861574 -5.4713951283 -47.060655883 9.2234254195 -21.454991316 -261.14992798 -20.079126822 5.6783128862 
-357.2729851 28.401911547 -19.808456361 -432.11579642 -2.2665613582 -21.00353089 -225.08644411 -17.243871611 -1.8654685692 
-347.43126472 9.9853886067 2.6522755101 -177.91457955 -8.5481338029 -18.680679946 -139.67680688 -13.871342158 4.5584398446 
-304.81299432 -4.9062965075 -3.5259693871 -140.40796657 -14.706089803 -0.35125887869 -260.2326424 -26.341878807 1.9316149676 
-402.78390786 -7.4679498873 -2.014959538 -486.29558745 -8.0690819575 21.130648973 -60.632116555 -10.52884445 1.5754419151 
-125.59154331 17.279633092 -4.6878100927 -230.26369243 -8.40205383 -6.3027687196 -250.27120381 0.69703177271 -2.1252061631 
-59.467987997 -4.7254129666 -23.552182459 -119.99897134 -3.4455119633 -8.4835896859 -151.15126316 4.6400783639 0.3503498065 
-196.05438895 -11.450289258 3.31998053 -116.15992325 -4.0423073265 25.447810122 -402.1806806 11.037885686 0.50294544155 