ITEM: TIMESTEP
48500
ITEM: NUMBER OF ATOMS
1000
ITEM: BOX BOUNDS xy xz yz pp pp pp
0 10 0
0 10 0
-0 10 0
ITEM: ATOMS id type type x y z ix iy iz vx vy vz fx fy fz omegax omegay omegaz radius 
217 1 1 0.417336 0.496326 0.603349 -103 0 0 -490.158 8.88662 1.07886 3036.26 -2732.54 -1466.47 0 0 0 0.5 
284 1 1 0.479868 2.26614 0.951648 -122 0 0 -248.512 -17.8761 -7.99957 766.312 -522.185 -79.2535 0 0 0 0.5 
921 2 2 1.5654 3.77769 1.57893 -84 0 1 -94.6522 12.4462 8.14409 649.763 810.217 542.624 0 0 0 0.5 
699 2 2 4.53396 3.40742 0.72044 21 0 -1 -183.928 14.5028 8.31381 -2717.33 1463.68 -177.161 0 0 0 0.5 
547 2 2 0.819923 2.83568 1.75423 48 0 0 -209.016 -14.4259 -16.3648 288.699 -461.851 265.383 0 0 0 0.5 
353 1 1 2.00383 2.13761 0.257839 189 1 1 -264.389 -2.32357 -1.61481 -1027.54 -1031.45 1309.47 0 0 0 0.5 
711 2 2 0.365462 1.4858 0.536505 189 1 0 -359.64 -17.2646 -23.2814 -107.17 1729.94 134.623 0 0 0 0.5 
511 2 2 4.69305 4.4052 0.917623 -26 0 0 -44.0703 -0.818161 -17.4734 -384.784 407.61 -393.612 0 0 0 0.5 
163 1 1 1.42982 2.40311 1.02386 242 1 1 -234.295 -1.18396 -0.448172 -477.565 -1142.27 1438.58 0 0 0 0.5 
268 1 1 1.09697 3.1793 0.566165 34 0 0 -191.803 -8.12399 5.79242 -138.047 15.724 -921.437 0 0 0 0.5 
269 1 1 3.6192 0.0381287 0.905944 -203 0 0 -492.55 -29.4729 9.14766 -5977.21 307.021 11632.7 0 0 0 0.5 
958 2 2 1.14918 0.42155 0.982569 244 1 2 -488.534 37.7087 16.4539 1248.93 -597.528 609.304 0 0 0 0.5 
393 1 1 1.62163 4.17393 0.792326 182 1 0 -114.98 9.50891 6.16725 3331.39 -2543.75 -635.245 0 0 0 0.5 
440 1 1 1.79596 0.690816 1.75321 -43 0 0 -414.148 1.36864 -27.2532 59.9365 -181.627 96.5533 0 0 0 0.5 
568 2 2 4.77481 2.94034 1.52043 -93 0 0 -197.728 17.9271 9.02093 1202.28 -122.013 260.983 0 0 0 0.5 
687 2 2 2.19901 3.11869 0.395412 223 1 1 -211.604 0.383832 6.53869 600.046 1409.82 -880.88 0 0 0 0.5 
797 2 2 2.46561 2.9481 1.77045 245 1 0 -211.479 18.3012 -16.117 855.664 -114.921 -229.12 0 0 0 0.5 
557 2 2 2.23749 1.88455 1.68915 227 1 0 -285.077 -12.2768 11.6775 0 0 0 0 0 0 0.5 
689 2 2 4.20594 2.28674 0.365927 -167 0 1 -274.894 24.6522 -14.015 860.015 -119.571 -811.331 0 0 0 0.5 
909 2 2 0.290765 1.47312 1.5094 -133 0 1 -336.004 -2.45606 -12.0027 80.9914 -55.3541 -423.271 0 0 0 0.5 
22 1 1 1.8522 1.25838 0.678802 211 1 0 -388.199 -2.65012 31.7898 247.882 1464.7 -690.94 0 0 0 0.5 
483 1 1 3.77441 0.69309 1.58045 222 1 0 -421.806 5.82509 5.67399 -236.572 -2901.79 -789.069 0 0 0 0.5 
631 2 2 3.60609 2.98128 1.2206 35 0 0 -194.562 19.1821 13.4841 -1379.95 1865.41 819.708 0 0 0 0.5 
461 1 1 0.734063 3.85047 1.25239 365 1 0 -96.5227 -26.7121 -6.05994 576.378 -1903.7 -602.41 0 0 0 0.5 
912 2 2 0.15204 3.0315 1.08921 -1 0 0 -208.826 15.9325 5.16132 1187.55 138.242 -552.253 0 0 0 0.5 
742 2 2 0.288042 4.49729 1.34901 2 0 -1 -57.0178 -10.4615 19.332 -1315.37 2001.79 524.149 0 0 0 0.5 
9 1 1 2.51265 4.1519 1.40308 356 1 0 -95.9899 0.42626 -1.6194 536.408 -1573.72 -1139.74 0 0 0 0.5 
198 1 1 2.91543 4.85956 0.247072 -13 0 1 -12.0695 -3.13862 18.5716 1019.2 -65.4639 -158.331 0 0 0 0.5 
971 2 2 1.98457 4.92228 0.339727 45 0 1 -6.22944 -9.85166 9.06028 1850.77 -3464.04 5.51566 0 0 0 0.5 
443 1 1 2.93657 1.23044 0.379786 179 1 0 -392.475 13.0549 -8.99961 115.313 3019.12 -717.017 0 0 0 0.5 
465 1 1 3.96471 2.46511 0.967121 -42 0 1 -215.992 -19.022 21.1236 -2784.41 -1908.99 1810.67 0 0 0 0.5 
316 1 1 4.75695 0.626825 1.91594 -171 0 0 -409.961 2.55391 -9.40701 -559.92 591.043 279.589 0 0 0 0.5 
438 1 1 1.08763 4.8452 0.643006 13 0 0 -15.2986 4.29809 14.3046 -424.079 3814.25 -701.53 0 0 0 0.5 
410 1 1 3.32713 2.03967 0.172826 -79 0 0 -296.936 8.73726 -2.32909 -731.284 -548.572 1340.51 0 0 0 0.5 
587 2 2 0.32227 4.87532 0.0353249 -10 0 1 -3.62205 -20.0622 -3.59462 1110.93 -1538.1 -238.256 0 0 0 0.5 
266 1 1 0.783647 3.9637 0.247197 -328 -1 0 -124.471 4.57775 -13.8495 -950.207 1212.25 -209.731 0 0 0 0.5 
648 2 2 3.61165 1.5492 1.11606 269 1 1 -308.487 -23.1767 -15.7522 -2057.85 3007.96 751.152 0 0 0 0.5 
913 2 2 4.49709 1.09129 1.02781 -51 0 0 -406.99 -24.25 17.749 -876.797 -626.193 594.448 0 0 0 0.5 
128 1 1 2.76524 0.835072 1.51198 105 1 1 -408.595 6.74239 -1.75032 -143.139 60.9236 235.944 0 0 0 0.5 
556 2 2 3.25862 0.625078 0.698716 176 1 -1 -423.674 -6.98583 -6.75881 -922.252 849.317 78.2411 0 0 0 0.5 
372 1 1 4.22714 1.56443 0.466228 -178 0 1 -358.893 -9.64703 -23.2573 1630.31 -19.3443 -2231.54 0 0 0 0.5 
62 1 1 4.23687 2.99466 1.96187 -58 0 0 -208.565 -4.85276 29.0985 -3110.25 2828.64 148.681 0 0 0 0.5 
947 2 2 4.33443 1.62609 1.59717 -30 0 1 -321.898 18.7716 19.5262 1038.81 1739.98 -111.195 0 0 0 0.5 
701 2 2 4.3531 0.0512239 0.894406 141 1 0 -503.551 19.4714 1.69247 -6741.41 2201.72 -8099.27 0 0 0 0.5 
21 1 1 4.34745 4.01136 0.0461575 -109 0 1 -114.664 22.8076 -15.7971 538.408 1593.94 1516.55 0 0 0 0.5 
509 2 2 4.88478 2.25463 1.17483 -138 0 0 -255.484 -27.8648 3.24593 2024.14 -1097.76 815.578 0 0 0 0.5 
247 1 1 3.10805 0.170328 2.22469 -196 0 0 -471.955 7.45007 -3.47283 -1706.84 864.793 -221.448 0 0 0 0.5 
702 2 2 2.78454 2.23653 3.66935 269 1 0 -272.736 0.960197 -0.0887705 -364.349 356.865 -1451.83 0 0 0 0.5 
612 2 2 2.52532 0.392862 2.90778 -64 0 1 -460.511 12.181 2.18676 -520.215 259.981 401.752 0 0 0 0.5 
228 1 1 2.14769 3.76881 2.8941 -134 0 1 -94.4212 -4.29753 -5.2575 112.003 -735.283 834.886 0 0 0 0.5 
593 2 2 4.44404 1.12416 2.34069 -6 0 1 -365.333 14.3058 23.4264 95.7423 287.84 2726.09 0 0 0 0.5 
232 1 1 1.59899 1.17345 2.42833 -113 0 1 -357.579 7.78677 20.099 176.086 226.148 357.877 0 0 0 0.5 
673 2 2 1.2592 2.11606 3.55397 202 1 -1 -247.112 -13.5453 -7.26846 293.808 -542.099 -394.876 0 0 0 0.5 
823 2 2 0.101975 1.31169 3.71439 275 1 -1 -360.268 -9.7525 -19.8331 -611.376 -2815.6 -244.495 0 0 0 0.5 
35 1 1 3.51719 3.86825 3.27666 -148 0 1 -99.1738 -11.2709 -2.20716 -1138.24 997.722 -1992.99 0 0 0 0.5 
196 1 1 2.66387 4.5818 3.2482 314 1 0 -26.8402 0.933684 -7.21798 552.016 312.422 655.045 0 0 0 0.5 
418 1 1 0.787335 2.67985 3.97503 -164 0 1 -225.083 5.26217 6.39947 2086.93 -893.272 -750.847 0 0 0 0.5 
845 2 2 2.48329 3.25723 3.65456 -43 0 0 -137.001 -21.1758 -5.40286 216.897 -290.739 434.994 0 0 0 0.5 
930 2 2 1.97883 2.4562 2.56974 -71 0 0 -219.278 -16.8274 -6.92118 458.608 -672.482 380.27 0 0 0 0.5 
480 1 1 1.57766 0.279488 3.38769 -141 0 2 -469.062 12.0326 8.18503 547.924 -240.581 197.725 0 0 0 0.5 
816 2 2 0.721934 2.59797 2.77227 -24 0 0 -199.235 -16.7547 -5.94413 1658.41 -224.842 -158.795 0 0 0 0.5 
478 1 1 2.25258 4.35966 2.21268 -33 0 1 -33.91 -11.5263 15.8186 314.898 543.235 -423.394 0 0 0 0.5 
293 1 1 -0.0160686 1.71683 2.39231 -162 0 1 -315.589 8.49766 -5.03739 1362.45 -55.5873 -20.2295 0 0 0 0.5 
133 1 1 0.517131 0.40439 2.93601 189 1 1 -454.021 8.28218 22.8569 -1227.31 1219.77 702.191 0 0 0 0.5 
598 2 2 1.4937 2.99652 3.12379 -102 0 1 -198.42 -9.09716 24.2941 785.155 -2443.13 1116.16 0 0 0 0.5 
778 2 2 3.80687 2.29753 2.396 -171 0 1 -244.088 13.2242 18.3 354.326 -1018.62 -58.3572 0 0 0 0.5 
416 1 1 2.43381 0.116494 3.83262 -125 0 0 -450.458 -4.49016 -0.129569 343.004 1260.72 921.978 0 0 0 0.5 
619 2 2 1.97752 1.65234 3.18704 -107 0 1 -243.769 -24.3396 1.05816 170.862 -448.488 -532.458 0 0 0 0.5 
810 2 2 3.61681 4.66677 3.00666 31 0 1 -23.2039 17.797 -15.0062 -294.853 -594.124 250.733 0 0 0 0.5 
101 1 1 0.639776 4.49442 3.95084 -115 0 0 -109.646 37.4906 10.387 86.0789 447.279 -1394.57 0 0 0 0.5 
806 2 2 0.0409671 2.23231 3.60571 -115 0 0 -233.843 -36.6661 4.65722 761.952 2477.46 269.036 0 0 0 0.5 
999 2 2 0.371044 4.10286 2.25631 -48 0 0 -78.734 -13.4456 30.4077 -216.906 293.88 -2750.32 0 0 0 0.5 
744 2 2 4.06729 3.2186 3.33529 237 1 0 -144.446 -20.8054 18.7741 693.203 -1986.95 843.784 0 0 0 0.5 
520 2 2 1.20621 3.68425 2.83312 66 0 1 -94.8608 -1.36333 -13.7298 -385.394 1596.63 -1598.56 0 0 0 0.5 
406 1 1 0.0818256 3.12542 2.05672 -73 0 1 -223.743 8.10889 -11.0646 -41.5682 -330.028 185.181 0 0 0 0.5 
189 1 1 3.6709 1.51277 2.09086 254 1 0 -350.285 1.93607 -0.797504 -2139.99 2600.99 -304.457 0 0 0 0.5 
139 1 1 3.63162 1.81632 3.56644 -66 0 0 -300.12 23.5892 -7.70505 1147.74 1306.2 -481.061 0 0 0 0.5 
503 2 2 2.96968 2.37573 2.74887 68 1 0 -253.563 -4.00121 0.328964 -730.199 128.253 -15.4888 0 0 0 0.5 
530 2 2 4.19286 3.76234 2.26837 -90 0 2 -139.782 40.2094 13.3033 -462.318 472.703 -438.51 0 0 0 0.5 
786 2 2 4.15896 0.360351 2.95505 -188 0 1 -401.453 -18.2407 -11.1302 71.615 1246.19 319.17 0 0 0 0.5 
243 1 1 3.31914 3.60851 2.33737 -60 0 0 -154.198 1.47471 -16.3212 84.5565 253.789 1007.83 0 0 0 0.5 
562 2 2 4.53834 4.1488 3.59364 118 0 1 -86.4493 -3.9223 0.33409 -513.514 1624.22 -2196.84 0 0 0 0.5 
213 1 1 0.559574 4.16547 3.12258 346 1 1 -77.2272 6.02965 9.24097 -1562.74 1817.06 813.602 0 0 0 0.5 
307 1 1 1.59354 3.06522 2.00396 285 1 -1 -205.764 8.68509 10.8591 -556.372 -588.31 761.201 0 0 0 0.5 
126 1 1 1.6649 4.72781 2.92716 272 1 -1 -11.1834 0.446861 4.59159 980.21 -315.01 -390.31 0 0 0 0.5 
91 1 1 4.88098 2.3433 2.22468 -29 0 0 -264.736 5.11168 17.5046 -1275.86 246.624 -326.9 0 0 0 0.5 
700 2 2 0.630548 3.57218 3.83568 182 1 1 -178.396 14.8969 8.42557 1548.57 -1270.8 -1252.25 0 0 0 0.5 
153 1 1 4.62779 4.86109 2.96957 15 0 0 -5.4297 -7.18918 -25.9748 399.108 -2540.05 618.226 0 0 0 0.5 
828 2 2 3.58815 0.942774 2.60662 -82 0 1 -391.415 -22.3635 -0.992911 -1752.32 -488.549 -1281.54 0 0 0 0.5 
142 1 1 3.97195 1.22303 3.30122 -114 0 -1 -353.788 5.58477 -21.271 1670.23 -1621.82 -849.692 0 0 0 0.5 
65 1 1 3.33034 3.13148 3.92349 -93 0 0 -123.407 -17.6797 20.4881 -258.29 -1003.38 -254.81 0 0 0 0.5 
780 2 2 4.733 1.98739 3.94643 -188 0 0 -316.684 19.4139 1.64416 -982.437 861.937 100.398 0 0 0 0.5 
39 1 1 4.84447 3.28194 2.7518 -118 0 0 -190.765 -1.72026 30.4002 2938.23 -218.155 -1195.46 0 0 0 0.5 
413 1 1 1.47147 2.22111 5.24126 -69 0 0 -268.118 -3.0886 21.8324 1138.6 -1711.65 994.35 0 0 0 0.5 
450 1 1 0.200669 1.07735 5.4814 207 1 0 -364.47 -8.25998 -6.88188 2165.34 395.206 289.348 0 0 0 0.5 
510 2 2 2.0859 3.07507 4.71084 -73 0 -1 -173.744 -5.66642 -9.71439 1464.79 -1703.56 678.686 0 0 0 0.5 
693 2 2 1.1907 1.30446 4.91468 98 1 -1 -389.387 2.20568 -9.76278 3676.02 -3093.38 320.763 0 0 0 0.5 
905 2 2 1.62326 3.80161 4.59273 -84 0 0 -107.088 1.35255 -3.71091 -707.257 1551.99 -556.485 0 0 0 0.5 
821 2 2 2.26891 3.35867 5.46299 260 1 0 -139.449 -15.061 8.45269 -1998.41 268.406 362.605 0 0 0 0.5 
178 1 1 2.76785 0.871566 4.35626 114 1 0 -375.884 10.4286 11.302 -730.048 -1120.43 -1072.91 0 0 0 0.5 
608 2 2 1.08664 2.94297 4.85487 -59 0 0 -191.17 8.33318 19.5871 -1195.33 1483.91 -1732.91 0 0 0 0.5 
763 2 2 0.33746 1.26529 4.53611 144 1 1 -383.025 -6.04819 -2.24476 -298.909 1443.75 610.669 0 0 0 0.5 
369 1 1 3.01667 4.83945 5.97686 -26 0 0 -9.42819 2.77194 25.5607 1894.41 -984.599 642.095 0 0 0 0.5 
658 2 2 1.90138 0.517611 5.43151 -92 0 0 -432.886 -1.97196 -12.0422 694.332 -195.371 -1102.74 0 0 0 0.5 
961 2 2 0.273973 2.85118 5.56406 -36 0 0 -235.878 5.38303 -8.08563 4390.54 -2821.81 1262.03 0 0 0 0.5 
336 1 1 0.262547 1.97195 5.91598 87 0 0 -319.627 2.68724 16.3424 5243.18 -4100.4 -746.719 0 0 0 0.5 
40 1 1 4.08662 4.22444 4.30926 -51 0 0 -86.5456 7.75314 4.50759 590.387 482.259 -249.508 0 0 0 0.5 
901 2 2 2.66434 0.117367 5.36852 -180 0 0 -436.387 -11.2111 0.617263 530.822 -747.726 31.1738 0 0 0 0.5 
746 2 2 2.32113 1.90338 5.60893 -71 0 -1 -257.28 -14.0178 0.587328 -279.866 -95.8479 1304.19 0 0 0 0.5 
552 2 2 2.07352 4.1591 5.42989 70 0 -1 -88.4624 23.333 -18.6491 -47.433 -210.381 -1506.81 0 0 0 0.5 
875 2 2 4.09368 2.86045 5.20723 -70 0 1 -196.387 8.21558 -17.7022 -854.093 995.682 -1507.7 0 0 0 0.5 
225 1 1 1.25568 0.716882 5.71219 -157 0 0 -432.664 3.76516 -0.420163 -585.047 383.256 -409.947 0 0 0 0.5 
282 1 1 4.36441 2.31855 5.7733 293 1 0 -235.847 15.3365 -3.88171 2042.83 205.813 1011.16 0 0 0 0.5 
769 2 2 2.05354 2.53105 4.21234 -71 0 1 -245.252 -17.136 -29.4333 -2635.59 509.907 69.9212 0 0 0 0.5 
540 2 2 4.0958 1.94473 4.8062 -349 -1 0 -293.203 5.25133 0.182642 -220.473 1239.62 400.479 0 0 0 0.5 
327 1 1 3.02557 3.20216 5.11638 -71 0 0 -155.309 -5.90671 -4.72295 1864.52 -353.44 -1079.1 0 0 0 0.5 
205 1 1 2.47495 2.00506 4.69264 -52 1 -1 -267.048 -20.0177 10.3857 -788.835 -266.096 -152.059 0 0 0 0.5 
785 2 2 0.551401 2.04382 4.97361 351 1 1 -272.229 4.537 24.533 -2517.97 1632.92 -151.107 0 0 0 0.5 
889 2 2 1.24048 4.87093 5.46275 1 0 0 -35.9263 15.0646 4.95512 3638.18 -6038.32 1978.27 0 0 0 0.5 
357 1 1 4.57695 1.16684 4.85442 -285 0 1 -352.999 -12.2615 0.134021 -415.752 -1841.5 -597.896 0 0 0 0.5 
792 2 2 0.103751 2.84305 4.40411 311 1 0 -187.111 -10.404 4.81681 -2759.74 -1517.33 1427.24 0 0 0 0.5 
938 2 2 3.49928 4.05519 4.86582 -6 0 -1 -72.5767 -19.8915 7.33579 280.593 -60.5071 -1775.31 0 0 0 0.5 
210 1 1 4.16488 0.845983 4.01378 210 1 0 -388.629 -1.57447 4.53054 793.374 -204.257 241.624 0 0 0 0.5 
931 2 2 4.68107 4.33723 5.08525 20 0 0 -111.38 9.3679 25.0331 27.1855 -48.3208 17.2469 0 0 0 0.5 
86 1 1 3.69211 3.56052 5.67735 -44 0 1 -156.285 18.5381 -3.04342 1044.59 -1495.66 1367.2 0 0 0 0.5 
923 2 2 3.16594 0.0378162 4.45654 199 1 0 -437.514 -26.2773 -8.29807 -20.7478 -562.098 -321.905 0 0 0 0.5 
482 1 1 2.98474 4.36201 5.28827 138 1 0 -65.0993 -18.7025 22.2244 -1075.63 -714.834 1403.28 0 0 0 0.5 
248 1 1 3.61149 0.294609 5.18258 -291 0 0 -448.371 2.5389 3.20682 -568.546 1352.84 1137.44 0 0 0 0.5 
983 2 2 3.29764 1.87791 4.40941 -29 0 -1 -279.26 -4.90625 -7.52731 -832.699 1567.65 -192.823 0 0 0 0.5 
642 2 2 3.05534 4.93007 4.09546 -325 -1 0 15.8658 -5.57392 -4.71833 2426.05 -1779.47 -284.002 0 0 0 0.5 
812 2 2 4.5727 1.63969 5.59795 1 0 1 -303.345 -9.74669 5.602 -3087.32 -1947.08 420.154 0 0 0 0.5 
400 1 1 4.17465 0.835656 5.74277 -155 0 0 -385.65 -13.1135 6.3872 -2852.56 1360.07 -1400.79 0 0 0 0.5 
860 2 2 0.385943 4.6284 5.74364 -35 0 1 -56.178 7.36902 6.98308 1051.49 776.034 -191.121 0 0 0 0.5 
459 1 1 3.6321 1.05905 4.73806 -8 0 0 -365.169 8.8354 15.2811 166.42 -966.235 919.661 0 0 0 0.5 
435 1 1 1.27585 3.89788 5.56593 60 0 -1 -104.006 -17.5345 -11.6596 66.0464 1171.34 -501.365 0 0 0 0.5 
743 2 2 0.150865 4.06713 4.53838 -74 0 0 -97.7951 -3.98426 -4.39656 -2553.13 -136.413 2249.74 0 0 0 0.5 
917 2 2 3.02309 4.06205 4.07413 37 0 0 -58.1488 -29.2101 -1.50535 -1852.7 2221.58 1066.38 0 0 0 0.5 
158 1 1 4.42762 0.150095 4.92623 -129 0 1 -468.193 24.8159 -14.7563 -2351.05 1332.39 -1435.12 0 0 0 0.5 
366 1 1 1.07793 4.37356 4.69582 -2 0 1 -108.431 18.3453 8.45436 4563.59 -377.537 -459.777 0 0 0 0.5 
231 1 1 0.191679 4.76157 4.92405 -41 0 1 -11.4234 10.9832 -14.8607 -4175.11 4636.08 819.068 0 0 0 0.5 
611 2 2 0.20964 3.65223 5.83046 -55 0 0 -132.011 28.1527 6.29387 1860.18 -1801.91 -2187.2 0 0 0 0.5 
168 1 1 4.86725 0.574176 5.87956 121 1 0 -386.53 -2.91514 -12.1887 -354.159 -1566.64 1756.83 0 0 0 0.5 
484 1 1 4.92456 2.96035 4.77928 21 0 0 -192.629 26.2722 -8.61674 164.953 79.0959 -129.467 0 0 0 0.5 
616 2 2 0.46953 2.65683 6.59452 -62 0 0 -205.809 -20.8753 5.78756 18.8428 -304.928 -9.02324 0 0 0 0.5 
159 1 1 1.3388 1.43325 6.57833 299 1 -1 -346.635 -0.741806 -27.0209 -691.722 -242.08 -969.495 0 0 0 0.5 
348 1 1 2.02849 3.00831 7.04365 -40 0 0 -168.002 -10.7592 3.65499 36.6188 -1614.52 -862.35 0 0 0 0.5 
415 1 1 3.47197 4.8217 7.58736 -8 0 -1 -14.2759 -2.10934 2.42329 -2924.61 -882.566 -179.149 0 0 0 0.5 
382 1 1 2.54719 4.77226 7.51293 -309 -1 -2 -13.3035 15.2712 13.859 -1254.31 479.284 -569.641 0 0 0 0.5 
253 1 1 1.64453 0.270798 6.66522 -232 0 0 -423.602 11.7498 3.15807 -376.453 1883.91 545.704 0 0 0 0.5 
8 1 1 0.569189 1.50054 7.02056 123 1 1 -333.584 -12.4493 15.9389 1399.28 -576.225 773.593 0 0 0 0.5 
607 2 2 4.14313 4.11353 7.13515 72 0 0 -87.7747 22.0948 -9.92357 639.101 -266.521 -555.901 0 0 0 0.5 
50 1 1 2.80041 2.86913 6.00223 34 0 0 -126.064 -32.6791 -5.55603 -4234.03 1186.22 -1375.51 0 0 0 0.5 
208 1 1 0.665934 0.851153 6.18043 -60 0 1 -409.963 -7.54637 43.1382 -749.216 675.191 1909.6 0 0 0 0.5 
667 2 2 2.07459 2.2166 6.47269 -62 0 0 -253.725 -3.31068 9.44825 -5652.68 2777.48 -2538.28 0 0 0 0.5 
486 1 1 2.33814 3.62659 6.33395 288 1 1 -109.47 -12.7007 5.37175 1603.67 -1277.12 -336.394 0 0 0 0.5 
446 1 1 1.97365 4.45337 6.25009 -54 0 0 -60.2956 10.0982 -18.4653 979.63 2.21514 -1808.44 0 0 0 0.5 
245 1 1 1.58254 4.98455 6.72993 -24 0 0 30.5692 -3.95938 9.84212 -197.152 444.896 2778.55 0 0 0 0.5 
756 2 2 1.11504 0.588818 7.95846 -144 0 1 -420.065 -2.25424 -2.75411 376.007 2072.81 47.0155 0 0 0 0.5 
590 2 2 4.2678 4.89343 7.68583 -36 0 -1 -53.6056 44.2606 -14.5085 3293.27 508.319 17.9539 0 0 0 0.5 
672 2 2 1.38993 2.30761 7.57341 -24 0 -1 -276.862 3.55337 2.01671 -6028.47 1429.29 -569.019 0 0 0 0.5 
95 1 1 2.05562 1.17039 6.94315 -48 0 0 -349.528 -8.25617 4.39101 -1169.8 3621.82 -1779.52 0 0 0 0.5 
200 1 1 1.5221 1.39295 7.69367 -155 0 0 -320.384 -12.006 -11.1722 -4428 -371.915 -826.354 0 0 0 0.5 
156 1 1 3.47819 0.175089 7.144 97 1 0 -455.922 -1.32326 17.4355 -4639.16 3973.39 -3491.87 0 0 0 0.5 
655 2 2 2.21666 0.493629 7.77155 -278 0 0 -449.718 -14.7904 -3.51536 -476.01 56.7978 452.431 0 0 0 0.5 
747 2 2 2.42199 0.918939 6.10633 -225 0 0 -408.822 9.46188 -32.4597 -22.618 220.885 706.949 0 0 0 0.5 
82 1 1 2.47793 3.96052 7.90628 22 0 -1 -121.973 19.3548 3.10583 -401.377 2362.33 1970.09 0 0 0 0.5 
464 1 1 3.69054 2.55407 6.24243 9 0 0 -212.652 -13.8856 4.08772 3580.91 -1288.38 1459.07 0 0 0 0.5 
685 2 2 1.75723 3.89083 7.06083 34 0 1 -47.1371 -7.98445 -11.0113 -2479.41 3205.39 2220.52 0 0 0 0.5 
978 2 2 0.46549 3.58492 7.63388 19 0 -1 -117.972 10.9161 -10.1431 194.708 792.771 621.437 0 0 0 0.5 
759 2 2 3.29916 3.97929 7.25023 -97 0 -1 -86.5486 -10.9547 18.0332 -1610.1 -1749.1 1318.8 0 0 0 0.5 
621 2 2 3.96705 3.32527 6.71056 -3 0 0 -148.999 -4.67379 -14.2368 142.098 619.168 347.631 0 0 0 0.5 
276 1 1 4.67677 4.19624 7.91455 -301 -1 0 -86.5468 10.533 -5.96774 283.813 -1244.56 1094.24 0 0 0 0.5 
766 2 2 0.0347028 4.30291 6.4822 -73 0 0 -64.2428 2.52673 5.47113 -132.242 1771.31 2872.76 0 0 0 0.5 
992 2 2 4.14575 2.67954 7.50083 -147 0 0 -186.348 -6.04475 24.0053 -3353.46 1463.05 160.938 0 0 0 0.5 
910 2 2 3.03048 2.94822 6.88103 -66 0 1 -154.148 -7.94187 2.18119 -830.073 497.232 1249.72 0 0 0 0.5 
224 1 1 4.2812 0.378783 7.00887 -195 0 0 -475.249 12.8255 20.9683 -2281.82 1283 -181.37 0 0 0 0.5 
661 2 2 2.88752 1.60534 7.57314 -100 0 -1 -387.031 33.9689 -1.75097 1618.36 -515.153 -785.331 0 0 0 0.5 
495 1 1 3.91758 0.854893 7.77039 -105 0 1 -463.921 35.8331 6.98081 870.123 1075.93 -1952.06 0 0 0 0.5 
264 1 1 4.4384 2.10059 6.71486 -26 0 -1 -211.125 -16.8475 -0.354 -594.189 -102.294 -1049.04 0 0 0 0.5 
408 1 1 2.7239 3.32257 7.68562 -49 0 -1 -185.111 -8.73827 -15.5755 2008.23 796.596 -129.333 0 0 0 0.5 
204 1 1 0.441552 3.41268 6.75807 -146 0 1 -127.547 22.7665 -15.2997 1501.66 -185.786 -340.709 0 0 0 0.5 
314 1 1 2.26886 2.14141 7.65122 -119 0 0 -368.995 30.7793 -10.5064 4003 585.952 780.125 0 0 0 0.5 
580 2 2 0.987917 4.16966 6.39064 263 1 -1 -61.782 -0.481945 6.94404 82.8734 78.9347 369.32 0 0 0 0.5 
220 1 1 0.292153 4.7495 7.27221 376 1 0 1.37668 0.371373 11.1336 583.264 -982.174 1154.23 0 0 0 0.5 
270 1 1 3.24285 0.410612 6.18056 -134 0 1 -423.174 5.55496 6.59048 121.166 57.382 417.497 0 0 0 0.5 
573 2 2 3.09238 0.914534 7.84686 -149 0 0 -459.596 -2.61171 12.2102 -1490.52 -825.052 222.459 0 0 0 0.5 
613 2 2 2.72392 1.81366 6.6922 -69 0 0 -339.425 20.7655 -30.5859 4694.95 -4556.35 2384.7 0 0 0 0.5 
884 2 2 3.99898 0.0642065 7.98785 107 1 0 -547.944 27.6619 5.88797 922.032 -1258.55 794.825 0 0 0 0.5 
748 2 2 3.2716 3.95414 6.37341 288 1 -1 -132.192 17.5404 -6.13338 2555 -1011.08 -776.304 0 0 0 0.5 
188 1 1 1.03349 4.36869 7.93822 25 0 0 -31.675 -9.70511 -14.5316 4.38257 298.857 172.931 0 0 0 0.5 
441 1 1 2.72504 0.61391 6.99832 21 0 0 -436.688 1.63108 -6.91857 2165.89 -2121.76 -334.431 0 0 0 0.5 
770 2 2 2.70029 4.38335 6.83106 -72 0 0 -73.0144 12.9458 -14.7701 -2469.01 921.017 911.748 0 0 0 0.5 
47 1 1 4.81809 0.795767 7.54204 -169 0 -1 -484.317 36.0534 18.6917 1300.76 437.427 -1291.03 0 0 0 0.5 
390 1 1 4.99438 0.147763 6.82677 177 1 -1 -527.378 14.3957 -12.449 776.433 1898.85 -394.412 0 0 0 0.5 
863 2 2 0.216807 0.746115 9.74639 -82 0 0 -443.693 23.5676 3.52043 -952.597 1571.29 -1030.91 0 0 0 0.5 
904 2 2 2.52905 3.89413 9.91091 224 1 -1 -116.526 10.3412 9.66565 379.374 -2377.07 1728 0 0 0 0.5 
644 2 2 1.97862 3.1846 9.2178 397 1 0 -209.568 1.05691 -5.19757 -330.465 -733.422 -1622.96 0 0 0 0.5 
283 1 1 0.237102 2.22186 8.42827 -184 0 0 -303.831 -12.7031 -0.296013 2195.2 1563.43 -1631.02 0 0 0 0.5 
350 1 1 4.87547 2.38613 9.64673 257 1 -1 -274.602 1.26313 -7.61712 -2233.18 -596.026 -906.534 0 0 0 0.5 
431 1 1 2.24593 0.931714 9.84628 -158 0 -1 -404.893 -10.9282 22.3898 1885.22 1153.39 1676.43 0 0 0 0.5 
485 1 1 1.91032 3.07214 8.24462 -131 0 1 -198.59 -6.02505 -8.19361 -0.919882 -1.51469 -13.1071 0 0 0 0.5 
17 1 1 2.06732 0.103177 8.65264 -149 0 -1 -490.946 10.4144 11.3057 175.967 1296.13 -1097.36 0 0 0 0.5 
959 2 2 4.01692 2.34711 9.53233 220 1 0 -299.822 -3.36979 4.16369 2107.28 1137.37 -1500.73 0 0 0 0.5 
877 2 2 0.835456 1.91855 9.42563 265 1 0 -288.556 -9.21883 -4.16415 -613.885 1506.97 62.3059 0 0 0 0.5 
969 2 2 3.88933 0.435438 8.90417 165 1 0 -446.798 -8.12304 17.0151 -654.297 -89.8231 582.269 0 0 0 0.5 
290 1 1 2.04176 1.27741 8.25101 238 1 0 -392.838 9.5035 16.2753 2260.97 -623.208 2034.02 0 0 0 0.5 
349 1 1 2.34829 4.6415 9.35584 82 0 0 -28.5338 8.07211 4.65147 -2204.4 2823.47 -56.5571 0 0 0 0.5 
623 2 2 1.65002 3.76353 9.85063 -58 0 0 -121.286 -7.55345 14.0393 -948.784 1082.69 1145.67 0 0 0 0.5 
300 1 1 2.72583 0.2085 9.62318 164 1 -1 -483.82 -5.63606 9.46065 552.846 -1788.3 -385.208 0 0 0 0.5 
809 2 2 1.02604 0.959325 8.85569 238 1 -1 -424.434 28.7938 -11.7887 -100.544 882.434 36.7365 0 0 0 0.5 
853 2 2 1.77104 0.0899744 9.57078 224 1 -1 -493.062 -3.68406 17.094 -740.206 -865.001 -320.585 0 0 0 0.5 
2 1 1 1.62086 1.48448 9.56609 -79 0 0 -288.685 -2.23957 4.50092 -2645.2 2630.24 -1422.11 0 0 0 0.5 
134 1 1 1.12053 0.110766 8.86176 -189 0 -1 -495.681 9.43462 -4.36574 531.775 -190.161 -763.057 0 0 0 0.5 
670 2 2 0.591357 0.0635604 9.6401 -140 0 0 -468.24 -4.77113 -6.79866 -280.628 236.746 -2.2748 0 0 0 0.5 
550 2 2 1.07769 2.85768 9.62709 46 0 0 -222.886 -1.53537 -9.82733 -251.455 -819.134 373.12 0 0 0 0.5 
67 1 1 3.87606 4.80038 8.5175 333 1 1 -11.8227 -3.33146 19.6044 358.575 1232.09 297.665 0 0 0 0.5 
148 1 1 0.685287 3.02246 8.16531 -47 0 0 -165.453 -18.6979 11.2978 -970.74 -2709.94 1244.34 0 0 0 0.5 
157 1 1 2.72359 1.93675 8.74937 -86 0 0 -322.363 4.77311 -26.6724 -5.17441 -8.80348 57.6598 0 0 0 0.5 
671 2 2 3.15033 2.76622 8.0887 -37 0 0 -204.826 -25.0339 12.6092 991.422 -1517.46 -113.259 0 0 0 0.5 
628 2 2 0.0579627 4.71041 8.29661 43 0 1 2.4743 0.0850281 2.38164 -695.363 88.0161 -1363.57 0 0 0 0.5 
926 2 2 4.34118 3.63457 8.46579 230 1 0 -180.112 11.1808 5.45603 -1659.37 117.142 -6701.04 0 0 0 0.5 
541 2 2 3.01556 4.04058 9.01605 265 1 -1 -89.1431 5.11874 21.8845 1167.57 -1697.7 -916.9 0 0 0 0.5 
209 1 1 0.49407 4.6552 9.1518 -337 -1 -1 -15.9438 -2.20038 -12.7333 1800.89 -171.621 550.568 0 0 0 0.5 
733 2 2 2.81135 2.74007 9.37758 90 0 -1 -232.17 -3.82735 7.50719 952.13 -1390.26 529.976 0 0 0 0.5 
665 2 2 3.58366 3.04202 9.95988 197 1 0 -227.64 3.39581 1.10533 -860.133 1802.82 1056.54 0 0 0 0.5 
115 1 1 2.5987 0.94551 8.96596 200 1 -1 -410.814 9.04183 15.5285 -201.907 1244.5 1129.93 0 0 0 0.5 
536 2 2 2.99253 0.249797 8.55207 -226 0 0 -466.601 -0.433586 13.4318 -2011.84 3046.05 3.44129 0 0 0 0.5 
391 1 1 2.82198 3.38337 8.66342 -17 0 -1 -197.411 -10.1379 -2.48765 -330.322 1192.47 259.509 0 0 0 0.5 
173 1 1 3.94984 4.08477 9.24841 238 1 0 -93.695 -15.6362 -18.6771 -223.63 764.054 1584.07 0 0 0 0.5 
31 1 1 4.55519 1.66658 8.07515 219 1 0 -316.803 -10.6012 -7.19023 -3250.26 1041.57 -2997.59 0 0 0 0.5 
772 2 2 1.82953 4.59177 8.50278 -57 0 1 -27.7994 -0.669002 -1.12681 2583.52 -1932.29 562.846 0 0 0 0.5 
773 2 2 4.2245 0.0926543 9.94444 -150 0 -1 -568.871 -25.7458 -20.661 -12794.2 -8048.46 4439.07 0 0 0 0.5 
93 1 1 3.4677 1.49288 9.4255 203 1 -1 -327.546 -19.2952 18.5246 1497.87 -827.056 -378.915 0 0 0 0.5 
402 1 1 4.09919 1.97792 8.79304 -242 0 0 -349.481 1.14561 -16.3602 -1207.22 -786.45 -1889.13 0 0 0 0.5 
981 2 2 3.53864 1.18307 8.56571 152 1 -1 -412.698 16.3615 -3.75591 -336.643 1837.66 1844.19 0 0 0 0.5 
354 1 1 4.46648 3.14782 9.83562 -81 0 0 -205.714 17.9798 -5.12267 -2260.86 -2094.01 -819.927 0 0 0 0.5 
107 1 1 2.79648 4.71038 8.46195 -307 -1 1 -29.0704 23.0726 -0.946191 -122.823 -906.608 51.5173 0 0 0 0.5 
577 2 2 0.254798 3.63904 9.07456 253 1 -1 -164.935 0.252432 11.9307 2749.93 -1419.39 909.331 0 0 0 0.5 
403 1 1 1.38446 4.7683 9.55612 -9 0 -1 -26.7773 -1.23517 7.20432 391.851 56.3945 580.7 0 0 0 0.5 
426 1 1 2.64635 1.80534 9.61003 180 1 -2 -317.979 -9.95685 -3.00193 -676.817 -1256.62 -578.011 0 0 0 0.5 
171 1 1 3.36009 4.87593 9.38079 -14 0 -1 -15.9652 5.84595 9.79809 -1152.01 319.491 -91.6115 0 0 0 0.5 
544 2 2 4.18929 2.89547 8.80781 -29 0 0 -253.558 0.901028 9.11928 -623.129 249.336 209.757 0 0 0 0.5 
373 1 1 4.48523 1.45096 9.38016 -183 0 -1 -389.131 -8.73359 -0.471869 -1829.47 -588.699 1327.24 0 0 0 0.5 
692 2 2 4.76 0.489833 9.71497 205 1 -1 -564.015 42.0611 -11.465 -9527.79 -10773 5676.7 0 0 0 0.5 
162 1 1 4.80456 4.83693 8.90077 243 1 -1 -2.77674 -16.1036 4.3398 -1373.34 2482.29 -3016.13 0 0 0 0.5 
339 1 1 3.88359 0.780862 9.99459 -92 0 0 -443.916 30.2229 -15.5562 -7291.7 7393.87 1184.83 0 0 0 0.5 
460 1 1 4.95933 2.69289 8.44918 -33 0 0 -251.234 2.08416 -12.4061 426.93 -194.507 -325.864 0 0 0 0.5 
160 1 1 4.68084 7.45836 0.854922 103 0 0 245.355 -13.1164 1.38494 -1398.61 1768.98 221.576 0 0 0 0.5 
529 2 2 2.78566 6.27882 1.39033 -21 0 1 136.979 -14.4797 -7.33044 835.803 1131.47 1056.92 0 0 0 0.5 
44 1 1 0.105387 7.71973 0.728376 110 0 0 291.226 -25.3864 0.653778 -3341.25 -235.021 -2192.47 0 0 0 0.5 
221 1 1 3.27212 5.5459 1.00326 100 0 1 23.9787 6.63554 15.1018 2373.08 -3149.04 -2683.46 0 0 0 0.5 
664 2 2 1.05039 9.51695 0.910335 147 0 0 441.857 12.2334 0.81875 367.215 878.673 -984.448 0 0 0 0.5 
405 1 1 3.6762 8.33006 0.995315 20 0 0 352.275 -19.2066 11.5067 503.363 -1678.67 -123.685 0 0 0 0.5 
424 1 1 0.978404 8.74333 0.432885 2 0 1 396.867 -7.19653 5.81907 517.837 402.938 -101.964 0 0 0 0.5 
73 1 1 0.546578 9.41532 0.0718053 -50 -1 0 435.179 -11.1697 8.18191 -3137.28 870.105 1065.53 0 0 0 0.5 
46 1 1 3.10074 7.96048 0.0916014 102 0 1 274.449 8.17926 0.733641 -1615.76 1378.21 11.8726 0 0 0 0.5 
686 2 2 2.57192 8.18341 1.87066 91 0 -1 295.18 34.4509 -29.1272 1954.89 1112.16 849.357 0 0 0 0.5 
911 2 2 3.91427 5.1312 0.179092 -323 -1 -1 -14.4229 6.7697 13.6071 191.56 702.435 -330.67 0 0 0 0.5 
420 1 1 3.49452 9.28123 0.312695 -64 -1 1 472.775 -42.7135 -3.68414 -6894.34 -11820.3 2552.47 0 0 0 0.5 
801 2 2 0.124248 7.65135 1.96126 -319 -1 -1 284.146 -5.17463 3.22177 78.0414 -1371.19 1638.88 0 0 0 0.5 
887 2 2 0.0917012 8.45934 0.334238 205 0 0 393.677 3.87009 4.76177 229.034 -340.169 1490.79 0 0 0 0.5 
170 1 1 2.81328 8.49471 0.924753 170 0 0 348.695 -3.96737 -1.81137 -10.9948 818.063 405.169 0 0 0 0.5 
684 2 2 4.22959 9.26566 0.598571 96 0 1 450.324 9.91058 31.6192 -4812.18 5813 -3465.52 0 0 0 0.5 
741 2 2 3.31539 5.13034 1.91577 -123 0 0 13.4344 -12.3436 13.6504 -83.368 -1175.48 -764.667 0 0 0 0.5 
376 1 1 2.86443 9.49629 1.57446 -231 -1 0 469.735 -9.32578 -4.12653 -4832.09 3406.09 -400.366 0 0 0 0.5 
632 2 2 3.5913 7.18033 1.39913 44 0 0 215.454 -1.75016 -1.78542 3413.93 -896.576 474.693 0 0 0 0.5 
324 1 1 0.264926 9.39474 1.39073 154 0 0 445.98 -13.5235 -23.0484 -957.529 -1337.92 261.977 0 0 0 0.5 
567 2 2 2.59248 8.62109 0.0132848 59 0 1 299.945 36.2882 0.86903 3344.61 1622.77 2288.95 0 0 0 0.5 
341 1 1 2.68129 6.55452 0.472913 20 0 0 146.633 14.6292 7.64346 1406.07 -213.753 2222.57 0 0 0 0.5 
839 2 2 2.86103 7.29869 1.11655 -8 0 1 235.091 -7.41859 -3.57689 -1902.62 -526.608 -1239.97 0 0 0 0.5 
703 2 2 1.81411 7.28788 1.46037 -214 -1 0 235.805 -4.62473 -17.2406 -2118.01 -1079.66 -1367.39 0 0 0 0.5 
758 2 2 1.36863 6.76515 0.37567 20 0 0 195.169 6.37462 -12.4266 377.204 1068.88 -805.896 0 0 0 0.5 
832 2 2 3.67956 7.52826 0.575052 27 0 0 258.946 -6.76312 -11.5528 1848.04 -890.25 454.538 0 0 0 0.5 
274 1 1 0.913655 5.68199 1.20826 -288 -1 -1 99.6044 -33.4288 -3.63689 -3129.31 -740.522 1521.36 0 0 0 0.5 
627 2 2 3.25964 6.04372 0.160383 8 0 0 81.775 0.673973 -13.9983 1942.92 -1790.6 -1196.6 0 0 0 0.5 
814 2 2 2.24467 6.6682 1.65369 -286 -1 2 183.936 0.350935 -2.73296 -352.95 -2277.3 1274.37 0 0 0 0.5 
893 2 2 4.27027 5.03099 1.82094 16 0 0 14.2418 -9.92428 -20.9803 332.992 37.5893 139.48 0 0 0 0.5 
370 1 1 2.25262 7.17662 0.0919129 -5 0 0 211.901 -11.4449 -12.3294 183.84 -1675.89 -541.922 0 0 0 0.5 
984 2 2 2.73321 9.6066 0.445813 246 0 1 498.219 -23.3929 -3.30846 -2206.1 942.855 385.742 0 0 0 0.5 
323 1 1 3.4594 9.1518 1.2821 -318 -1 0 443.261 -8.43716 -25.6045 -3274.58 -2531.39 -114.03 0 0 0 0.5 
847 2 2 1.43304 6.50933 1.30501 41 0 0 173.207 -24.313 -6.212 -3236.03 -515.351 -1071.5 0 0 0 0.5 
386 1 1 2.44721 5.09542 1.19428 113 0 0 20.0813 -8.64748 2.52271 551.979 712.648 -51.0187 0 0 0 0.5 
343 1 1 1.66518 7.67703 0.0463634 -142 -1 1 259.377 0.144424 -11.2023 -1196.56 58.3334 64.7938 0 0 0 0.5 
634 2 2 1.8048 7.93442 1.4624 112 0 -1 285.61 -1.40286 -9.53424 -1490.63 478.79 818.77 0 0 0 0.5 
946 2 2 0.502332 6.18719 1.25157 112 0 0 130.785 7.58479 5.63297 -2181.7 2834.53 -821.398 0 0 0 0.5 
118 1 1 4.2594 9.03225 1.67772 200 0 1 370.118 25.4663 4.44064 2687.13 961.954 1890.52 0 0 0 0.5 
83 1 1 0.969565 7.06671 1.02173 184 0 0 224.507 -0.320843 -4.90531 -1327.69 929.487 -502.809 0 0 0 0.5 
141 1 1 1.83012 8.69104 0.663572 -145 -1 1 385.544 0.533402 1.75054 1739.32 754.052 -507.072 0 0 0 0.5 
310 1 1 1.82218 9.31239 1.30611 132 0 1 436.773 32.8901 24.3125 938.042 193.631 -602.838 0 0 0 0.5 
152 1 1 0.947837 7.86509 0.459399 82 0 1 279.996 6.84624 -11.6875 -507.276 -1048.62 1195.65 0 0 0 0.5 
313 1 1 0.539286 7.65635 1.27503 -228 -1 -1 278.881 21.6139 0.424229 1467.38 2026.08 2006.08 0 0 0 0.5 