# vtk DataFile Version 4.2
Generated by LIGGGHTS
ASCII
DATASET POLYDATA
POINTS 1000 float
1.84375 0.0128806 1.55258 0.00819781 0.15141 0.356582 2.73043 3.36169 0.848365 
2.05159 2.56186 0.847452 2.05402 3.17266 1.70587 0.585727 0.833591 0.825855 
2.49493 2.14707 0.233563 0.9775 2.00923 1.46653 0.981396 2.1847 0.336709 
2.34296 2.03514 1.58691 1.77034 1.07361 1.56467 3.06233 0.912629 0.513265 
1.46933 1.62063 0.864851 1.02751 1.08042 1.62691 2.47962 1.41752 0.889062 
3.66534 3.38668 1.11188 3.46739 0.75038 1.64603 4.90404 1.57323 1.92877 
1.62663 0.48257 0.77691 4.78347 1.29825 1.07919 0.505889 1.28423 0.069711 
0.930515 0.160263 1.18345 1.09465 0.782169 0.215109 2.07627 4.19971 0.136207 
0.255738 1.09162 1.89403 2.5488 4.06995 1.24713 2.95787 4.09156 0.209652 
0.687828 3.38182 0.141381 0.172898 2.53995 0.502214 2.1412 4.87353 1.4971 
0.158952 3.07704 1.77871 4.83277 4.65281 1.5376 0.611443 4.84453 1.45946 
1.2941 4.71192 1.08546 3.81875 4.18395 0.997077 3.78336 4.97042 0.484907 
4.35812 2.50413 1.86254 4.65793 3.58363 0.393549 3.97418 1.03363 0.695979 
3.4653 2.84557 1.90906 3.33915 2.9145 0.233616 3.83199 3.8701 0.0853513 
4.24777 2.72985 0.89071 1.49075 4.37783 0.4036 3.39339 0.19463 0.851807 
3.80386 4.93493 1.47847 0.604439 3.89979 1.47401 3.93818 1.61895 1.42923 
4.5317 4.69749 0.632994 4.62225 1.99967 0.659496 4.86207 0.832839 0.368857 
4.803 3.8182 1.34181 1.78963 0.193408 2.85106 2.57834 4.19456 3.6581 
1.76633 2.71172 3.07631 3.21771 0.0209181 2.77953 2.33413 1.25081 2.22755 
0.742837 2.62152 2.01505 2.23508 3.16904 3.84971 1.43392 1.70541 2.34324 
0.575245 0.625897 2.65359 1.40453 3.52478 3.33428 2.5463 2.43702 3.25217 
3.41971 4.27071 3.64108 2.10934 2.49382 2.32229 0.324608 2.00647 3.6992 
4.17785 0.555479 2.28538 0.683943 1.91489 2.51133 1.48503 0.809019 2.4299 
0.998714 2.4307 3.29062 1.43598 1.32542 3.23188 0.0847891 0.480806 3.65188 
2.62013 0.406728 2.10467 2.06483 1.88345 3.83682 1.52835 0.709139 3.73951 
0.646708 1.37072 3.28794 4.81373 1.07159 2.9758 2.96615 3.43808 3.35218 
2.7623 1.33084 3.14957 1.66136 4.96891 3.09245 0.219298 2.66144 3.01791 
3.22587 0.830781 3.68421 4.04324 3.3612 3.0373 3.5746 0.133718 3.56953 
1.70576 4.47172 2.29044 2.6751 3.48409 2.43084 4.02958 3.78899 2.15623 
3.36666 2.21601 3.07107 3.65991 0.96642 2.78632 2.76434 4.35575 2.43733 
0.652414 3.62756 2.62167 0.557788 4.44452 2.25801 0.850404 4.29308 3.39256 
0.442896 4.9205 3.00079 4.88702 0.121073 3.62082 4.83496 1.94894 3.0088 
1.77033 4.77107 3.99551 4.86194 4.73073 2.59658 0.611238 0.0682907 2.00214 
0.554218 1.43415 4.26286 0.635735 0.388891 5.91371 0.717773 2.36834 4.50117 
4.52591 3.77 5.55217 0.68619 1.22788 5.0514 2.23392 3.50818 5.93606 
0.95762 1.36843 5.90169 2.70683 4.10904 5.05974 2.18829 2.06984 5.00343 
1.22349 0.454637 4.4343 2.6277 2.17956 5.95248 1.61759 3.53913 4.26964 
0.795629 2.0862 5.37674 1.90844 2.6393 5.62615 2.76906 1.52354 5.22258 
0.345292 0.530164 5.3216 1.63718 3.89273 5.27027 1.60168 1.35441 4.64435 
4.68124 2.62791 4.96273 4.7508 4.19587 4.11747 3.64457 3.48084 4.17687 
1.24031 2.88158 5.03672 1.94449 3.36674 5.06727 2.28436 2.92429 4.74423 
2.1721 4.4201 4.55681 2.67458 0.895113 4.43459 3.48282 1.33592 5.70547 
1.53928 2.40029 4.22641 0.238178 4.14083 5.15463 3.86419 4.32052 4.40768 
3.24995 3.80373 5.90232 0.520886 2.9777 5.68774 0.512832 3.26485 4.84519 
2.86877 2.53407 4.41849 1.15643 4.57057 4.79619 4.1029 2.87813 4.30163 
1.24368 4.47382 5.76588 3.1821 1.76327 4.05375 0.390908 4.27729 4.25459 
4.13615 1.70152 4.2877 4.10205 4.39674 5.24013 3.24131 2.97061 5.24054 
2.27238 0.059344 5.01704 4.05986 2.99394 5.89352 0.976647 3.77579 4.18396 
0.109338 2.79419 4.00824 3.85971 4.56132 5.88029 4.83725 1.50669 4.92419 
4.68297 1.55172 5.90168 2.89219 3.56999 4.47107 4.0732 0.621276 5.43451 
3.97202 0.56609 4.44585 4.0845 1.827 5.25016 4.81449 0.725879 5.53918 
1.33337 0.975233 6.36765 2.37266 3.7889 7.84725 1.77069 3.89913 7.28735 
4.70385 3.03294 7.87911 2.70759 1.10256 7.77038 0.615269 2.67028 6.56809 
1.11702 1.57735 6.88884 1.46877 2.4175 6.42493 1.1011 1.77827 7.78659 
1.72414 0.494898 6.87907 1.92021 2.75712 7.44897 2.00237 1.73989 6.5596 
1.02009 0.220496 7.84225 1.40027 3.21274 6.82983 0.400443 1.76621 6.42947 
1.99103 1.43337 7.40704 0.633116 0.714559 7.16569 4.84252 1.58201 6.95671 
3.87289 2.91379 6.95089 1.93218 0.309049 7.82891 3.55496 3.65705 6.99514 
2.85769 1.76143 7.04824 1.02951 2.7546 7.90734 2.1069 4.1481 6.48651 
1.05959 3.89464 7.52577 0.574027 3.33897 6.90561 0.246904 2.5988 7.88767 
1.22966 3.70613 6.23211 3.976 4.55212 6.82917 2.93909 4.84751 6.72894 
0.0720023 3.61644 6.1189 0.191804 3.89179 7.42807 3.25707 1.24176 6.50344 
3.85757 1.5579 7.23154 1.57857 4.74759 7.67105 3.69242 2.26589 7.87539 
3.19518 2.93728 6.25156 2.77113 3.73953 6.71398 0.376551 4.60085 6.13243 
4.5841 2.30391 6.45934 3.36811 4.84146 7.63053 0.102748 4.66789 7.07066 
3.11908 4.11452 7.99194 1.74896 4.71441 6.73568 3.73244 0.391306 6.91639 
3.6924 2.13929 6.42005 4.48615 3.91005 6.68656 2.84422 2.56359 7.25718 
2.79367 3.28275 7.63112 2.88723 0.570158 7.10595 1.82544 4.18516 8.3092 
2.32258 0.00386021 8.68813 2.33497 0.198358 9.65774 2.58691 0.891779 8.69761 
0.199361 2.76971 9.17211 3.22928 2.45237 9.4006 2.31025 2.77005 8.3622 
1.34003 0.995733 8.99176 0.914374 0.0371033 8.82821 3.65669 1.61917 9.54124 
2.3296 2.12464 9.09901 4.63226 4.81884 9.02616 0.0794287 1.18086 8.3931 
2.58372 3.74998 9.2415 0.647176 0.509256 9.49325 0.793362 2.25649 9.32886 
1.58342 0.433994 9.67938 1.67042 2.30429 9.74056 2.33268 4.56717 9.08082 
2.75924 1.36924 9.75072 0.276334 0.461471 8.23305 1.98542 1.44794 8.32917 
3.38956 0.373913 8.44169 1.45454 3.10133 9.91096 2.38862 3.22235 9.83759 
4.36827 3.73558 8.91012 0.83888 1.46866 9.26788 4.09252 4.6982 9.69616 
1.8095 3.29345 8.54259 4.1107 2.38226 9.90241 1.84122 1.4184 9.75108 
3.12279 1.88409 8.78024 4.74679 0.354057 9.63241 0.822165 4.66646 8.91773 
0.847365 3.99501 9.53114 1.60024 4.96544 8.79902 4.12859 4.40063 8.25685 
3.63739 3.75262 8.97655 3.15388 0.216673 9.36282 0.652235 4.18573 8.23206 
3.58973 1.26177 8.61606 3.46997 4.78013 8.89509 0.892075 3.4666 8.76245 
2.72979 2.04248 8.0035 4.21029 2.65411 8.69156 4.21216 0.960471 9.7191 
0.902786 4.8785 9.96519 4.87078 1.90099 9.30288 4.83038 4.35246 9.86092 
4.90344 1.02804 8.57795 4.96003 2.27746 8.32166 0.00493798 7.55318 0.982764 
4.15533 5.93647 1.39109 0.538962 8.88056 1.67586 4.58739 8.88742 0.18619 
0.672484 9.70487 0.23496 4.02482 9.98948 0.496487 2.57412 7.10156 0.973064 
3.80871 9.29213 1.17673 3.40951 8.33312 1.68156 4.15608 6.89765 1.96715 
3.2115 6.25869 0.396575 4.19497 7.84094 1.76379 3.77127 8.95039 0.306037 
0.274303 8.23054 0.161392 3.24293 7.95171 1.02811 2.08787 6.69336 1.94209 
4.68274 5.47949 1.62924 0.577463 6.74597 0.0599095 3.27468 6.94317 1.65357 
1.06801 8.72046 0.4975 2.10741 9.44212 0.0521229 2.11497 5.79397 1.96634 
0.627493 7.01607 1.96861 2.25156 8.78388 1.40484 1.90256 9.27562 1.94552 
1.28327 6.35629 1.69434 0.701658 7.64617 0.217145 1.85988 7.91355 1.57093 
2.24557 8.69619 0.263496 0.630585 7.08375 0.883602 1.5675 7.91638 0.719653 
0.440338 5.84962 0.457661 1.5739 6.47042 0.524081 4.0131 6.03861 0.183555 
3.82871 6.5326 1.00679 1.2859 8.53645 1.37095 3.06861 9.2284 0.75126 
0.946876 6.52223 1.19611 2.48363 5.18051 0.537914 4.22726 8.73038 1.37557 
1.89999 7.25304 1.61172 2.21825 9.46931 0.99306 2.39197 6.16603 0.66531 
4.228 7.69941 0.823927 3.28212 7.53204 0.347864 0.656628 5.60422 1.75795 
4.56768 7.41508 0.0643298 2.74486 5.69542 1.34316 2.50037 7.85836 0.227941 
2.58033 8.32542 0.977548 2.96723 8.66211 1.94333 3.17639 9.45924 1.66164 
3.31703 5.42246 0.867931 4.93299 6.43682 0.675985 3.73036 7.25347 2.67025 
2.71824 5.14581 3.93549 0.961212 6.26096 3.93713 3.07232 6.28485 2.34042 
3.65878 8.10089 2.42909 0.217866 9.71978 3.97698 2.66033 5.15541 2.92228 
3.67647 8.84874 3.43944 3.97433 9.73972 2.1053 2.90119 7.11562 2.42676 
3.27199 7.91587 3.63258 2.70583 8.56964 3.11053 1.15481 8.63063 2.24684 
3.51008 5.66934 2.08232 4.30704 5.66901 2.47008 3.09702 5.87621 3.50232 
4.11493 9.86175 3.02742 0.398054 9.3852 2.68348 3.03656 6.99543 3.73867 
4.54916 6.50568 3.18433 1.75316 6.68436 3.31514 0.925992 6.72848 2.78031 
0.753066 8.44367 3.46293 1.79631 8.29231 3.44328 0.0100291 7.64312 3.34514 
2.31053 8.26814 2.30124 3.89533 8.9213 2.51531 4.59945 7.63586 3.96936 
1.89464 8.82789 2.66599 2.4106 7.69323 3.67847 3.04563 9.95263 2.0035 
3.3476 9.46241 3.94332 2.15077 9.38814 3.1827 0.796667 5.93088 2.54712 
0.19523 6.19898 3.35582 1.29878 5.22414 2.23036 3.14577 9.22332 2.63629 
2.07079 7.30783 2.62018 3.93047 7.12328 3.56215 1.69649 5.71385 3.75503 
1.60506 5.88985 2.88083 2.86782 7.84067 2.80044 4.51772 7.44806 2.90951 
1.06426 7.58378 3.67291 0.830356 5.58974 3.46648 0.255808 6.985 2.82684 
2.65183 8.63658 3.90386 2.63335 6.44236 3.03476 4.83308 6.11165 3.95313 
4.84868 8.12631 2.3387 4.91585 7.11467 2.26149 4.28264 9.61359 4.15342 
2.87559 6.27485 4.23708 3.48622 5.18873 5.79549 1.27058 9.66334 4.63411 
4.61447 8.96087 4.36344 3.28303 8.84925 5.3696 4.80425 8.79371 5.40206 
2.79469 8.98797 4.69489 3.77232 6.22375 5.86036 2.91958 7.38472 5.43495 
0.811078 7.15449 5.56674 1.17744 5.40554 4.46987 4.7131 6.46046 5.53623 
2.91336 6.56985 5.88318 3.10187 6.00562 5.28685 4.16569 5.18595 4.43825 
2.54187 7.08273 4.59526 3.09663 9.86959 5.89684 2.36669 5.185 5.90757 
0.21742 6.3883 4.55115 3.04859 8.15029 5.97071 4.05691 6.09551 4.53761 
1.06787 9.88662 5.81242 0.339927 9.72721 4.87592 4.43695 5.62907 5.21929 
4.83405 6.94694 4.43713 2.08912 9.12456 4.07732 4.02406 7.97064 5.07517 
2.38707 5.33899 4.7741 2.31842 6.22266 5.04334 0.288439 5.29997 5.25193 
2.33622 9.27191 5.19306 1.11033 5.31015 5.5469 2.22736 7.63201 5.72698 
1.59612 6.2959 4.59734 2.28238 7.99873 4.57244 2.13347 8.42427 5.4091 
0.903628 8.28913 4.36779 0.521051 7.52514 4.81619 3.973 8.13331 4.09545 
3.20116 8.04135 4.60875 1.51763 7.0738 4.15956 3.78388 7.01886 5.56207 
[...]
POINT_DATA 1000
FIELD FieldData 7
id 1 1000 int
16 765 130 903 583 388 898 96 487 
15 800 17 196 920 680 627 360 316 
921 826 27 747 32 674 425 881 319 
758 538 590 531 415 582 136 796 928 
579 138 10 231 882 872 819 264 463 
555 86 585 104 400 636 392 984 18 
430 505 629 461 689 805 606 905 784 
675 697 523 703 142 159 667 902 761 
212 428 204 944 886 101 151 999 416 
708 600 954 731 772 157 785 249 279 
62 95 937 457 289 39 889 465 35 
973 648 411 374 498 396 262 616 767 
586 201 725 750 243 873 418 522 240 
271 370 743 679 383 956 611 67 510 
646 366 451 7 69 369 764 340 948 
816 507 678 513 408 291 719 509 939 
869 424 117 716 364 79 216 900 584 
259 802 448 832 908 863 569 565 265 
502 862 918 492 251 352 467 329 406 
924 992 929 187 232 608 343 225 229 
47 263 347 890 351 222 384 476 241 
668 951 348 235 927 860 135 326 272 
260 148 876 839 4 745 402 777 372 
335 820 619 34 205 597 480 845 323 
609 762 380 640 760 982 533 790 775 
195 134 66 563 776 581 310 865 562 
995 376 119 359 612 672 592 749 223 
120 30 110 573 935 127 857 596 317 
958 11 969 885 815 782 203 489 160 
949 712 244 113 541 694 859 512 81 
880 665 981 230 851 109 791 199 808 
897 575 419 248 833 781 92 610 923 
82 486 242 763 103 114 491 798 292 
88 350 441 58 593 73 578 614 960 
621 5 309 178 922 330 980 169 6 
878 83 810 684 26 676 696 404 158 
167 729 994 915 458 164 975 991 131 
357 753 534 615 202 61 780 365 983 
450 208 515 483 186 913 936 691 887 
179 494 453 84 952 617 988 690 137 
214 188 385 68 818 715 959 8 550 
398 925 432 180 28 893 971 283 529 
693 987 769 207 1 875 443 799 290 
910 993 98 778 746 211 472 57 412 
286 143 481 556 268 122 72 841 474 
603 909 287 324 132 181 955 191 504 
303 638 953 43 724 31 847 320 801 
338 588 381 51 894 395 278 744 748 
49 558 478 246 657 930 124 438 681 
107 834 479 499 934 215 312 844 549 
551 870 126 14 965 105 977 353 116 
967 947 170 239 892 624 666 238 850 
739 768 721 377 414 673 544 525 695 
874 321 950 707 344 580 649 660 315 
60 793 670 482 571 500 622 176 484 
702 63 46 87 625 161 367 468 171 
174 957 44 986 295 825 71 871 1000 
431 36 342 100 530 506 102 770 787 
650 519 774 108 106 755 224 118 567 
566 493 637 807 339 789 779 598 559 
293 759 517 13 21 974 943 574 677 
423 40 682 490 879 907 91 485 587 
12 828 868 901 730 193 280 112 814 
933 147 382 346 548 389 717 932 919 
391 473 543 273 756 25 298 644 275 
427 806 858 836 914 554 659 228 254 
773 720 257 434 429 378 420 804 149 
371 54 488 361 623 399 511 332 751 
741 497 539 80 256 358 514 19 722 
895 827 304 33 123 594 705 154 206 
2 867 771 217 527 409 568 314 266 
439 456 854 163 654 671 245 653 641 
94 714 564 236 234 661 233 250 643 
495 786 227 962 23 852 282 740 313 
738 837 220 129 766 737 888 190 557 
613 754 288 846 968 237 53 460 524 
50 77 198 327 65 658 516 449 966 
247 152 727 503 734 861 38 379 403 
795 864 276 318 633 783 258 572 354 
226 368 89 99 308 809 811 647 255 
139 979 526 306 656 270 311 849 822 
413 662 9 835 56 446 899 42 52 
284 269 393 618 838 842 144 373 916 
840 545 390 704 632 452 267 817 85 
535 599 90 175 904 407 172 620 20 
906 812 337 165 70 78 22 518 462 
853 634 182 426 685 589 605 699 301 
166 162 706 328 595 788 302 866 536 
663 794 3 576 631 133 322 945 401 
218 121 655 297 48 37 917 455 435 
194 528 405 277 602 698 192 417 213 
496 520 421 570 546 692 961 341 709 
542 156 386 733 938 978 410 471 553 
153 723 466 470 145 821 349 552 803 
253 197 454 848 976 440 173 711 300 
813 75 469 274 59 433 742 710 830 
333 521 29 884 184 221 307 931 792 
210 855 700 464 728 683 477 436 701 
926 55 209 941 686 146 856 445 200 
942 299 334 356 45 883 940 736 345 
824 422 355 111 669 185 628 140 823 
732 387 177 985 829 76 577 752 475 
189 843 877 996 547 74 797 93 155 
561 24 537 652 831 261 331 150 540 
664 601 989 459 183 997 336 325 128 
912 508 964 651 437 735 635 375 990 
444 281 591 397 285 891 639 115 362 
630 447 125 726 532 305 757 363 688 
963 626 645 713 911 252 41 896 560 
604 970 168 998 442 97 642 687 219 
294 296 64 607 394 141 946 718 972 
501 
type 1 1000 int
1 2 1 2 2 1 2 1 1 
1 2 1 1 2 2 2 1 1 
2 2 1 2 1 2 1 2 1 
2 2 2 2 1 2 1 2 2 
2 1 1 1 2 2 2 1 1 
2 1 2 1 1 2 1 2 1 
1 2 2 1 2 2 2 2 2 
2 2 2 2 1 1 2 2 2 
1 1 1 2 2 1 1 2 1 
2 2 2 2 2 1 2 1 1 
1 1 2 1 1 1 2 1 1 
2 2 1 1 1 1 1 2 2 
2 1 2 2 1 2 1 2 1 
1 1 2 2 1 2 2 1 2 
2 1 1 1 1 1 2 1 2 
2 2 2 2 1 1 2 2 2 
2 1 1 2 1 1 1 2 2 
1 2 1 2 2 2 2 2 1 
2 2 2 1 1 1 1 1 1 
2 2 2 1 1 2 1 1 1 
1 1 1 2 1 1 1 1 1 
2 2 1 1 2 2 1 1 1 
1 1 2 2 1 2 1 2 1 
1 2 2 1 1 2 1 2 1 
2 2 1 2 2 2 2 2 2 
1 1 1 2 2 2 1 2 2 
2 1 1 1 2 2 2 2 1 
1 1 1 2 2 1 2 2 1 
2 1 2 2 2 2 1 1 1 
2 2 1 1 2 2 2 2 1 
2 2 2 1 2 1 2 1 2 
2 2 1 1 2 2 1 2 2 
1 1 1 2 1 1 1 2 1 
1 1 1 1 2 1 2 2 2 
2 1 1 1 2 1 2 1 1 
2 1 2 2 1 2 2 1 1 
1 2 2 2 1 1 2 2 1 
1 2 2 2 1 1 2 1 2 
1 1 2 1 1 2 2 2 2 
1 1 1 1 2 2 2 2 1 
1 1 1 1 2 2 2 1 2 
1 2 1 1 1 2 2 1 2 
2 2 2 1 1 2 1 2 1 
2 2 1 2 2 1 1 1 1 
1 1 1 2 1 1 1 2 1 
2 2 1 1 1 1 2 1 2 
1 2 2 1 2 1 2 1 2 
1 2 1 1 2 1 1 2 2 
1 2 1 1 2 2 1 1 2 
1 2 1 1 2 1 1 2 2 
2 2 1 1 2 1 2 1 1 
2 2 1 1 2 2 2 1 2 
2 2 2 1 1 2 2 2 2 
2 1 2 2 1 2 2 2 1 
1 2 2 1 2 1 2 1 1 
2 1 1 1 2 1 1 1 1 
1 2 1 2 1 2 1 2 2 
1 1 1 1 2 2 1 2 2 
2 2 2 1 1 2 1 1 2 
2 1 2 2 1 2 2 2 2 
1 2 2 1 1 2 2 2 2 
1 1 2 1 2 2 1 1 2 
1 2 2 2 2 1 1 1 2 
2 1 1 1 2 1 2 2 2 
1 1 2 1 2 1 1 2 1 
1 2 2 2 2 2 2 1 1 
2 2 1 1 1 1 1 2 1 
1 1 1 1 2 1 2 1 2 
2 1 2 1 1 1 2 1 2 
2 2 1 1 1 2 2 1 1 
1 2 2 1 2 1 2 1 1 
1 1 2 1 2 2 1 2 2 
1 2 2 1 1 2 1 1 2 
1 2 1 2 1 2 1 2 1 
2 2 1 1 2 2 2 1 2 
2 2 1 2 2 1 1 1 2 
1 1 1 1 1 2 2 1 2 
1 1 2 2 2 2 1 1 1 
2 2 1 1 2 2 1 2 1 
1 1 1 1 1 2 2 2 1 
1 2 2 1 2 1 1 2 2 
1 2 1 2 1 1 2 1 1 
1 1 1 2 2 2 1 1 2 
2 2 1 2 2 1 1 2 1 
2 2 1 1 2 1 1 2 1 
2 2 1 1 1 1 1 2 1 
2 2 1 1 2 2 2 2 1 
1 1 2 1 2 2 1 2 2 
2 2 1 2 2 1 1 2 1 
1 1 2 1 1 1 2 1 1 
1 2 1 1 2 2 1 1 1 
1 2 1 2 2 2 2 1 2 
2 1 1 2 2 2 1 1 2 
1 2 1 1 1 2 1 2 2 
1 1 1 2 2 1 1 2 1 
2 1 1 1 1 1 2 2 2 
1 2 1 2 1 1 1 2 2 
1 2 2 1 2 2 1 1 2 
2 1 1 2 2 1 2 1 1 
2 1 1 1 1 2 2 2 1 
2 1 1 1 2 1 2 1 2 
2 1 1 2 2 1 2 2 1 
1 2 2 2 2 1 2 1 1 
2 1 2 2 2 1 1 1 2 
2 2 2 1 1 2 1 1 1 
2 2 2 2 1 2 2 1 2 
1 1 2 1 1 2 2 1 1 
2 1 1 2 2 1 2 1 2 
2 2 2 2 2 1 1 2 2 
2 2 1 2 1 1 2 2 1 
1 1 1 2 1 1 2 2 2 
2 
i 3 1000 int
-37 0 0 46 1 0 -7 0 0 
-7 0 0 -18 0 1 -32 0 1 
-14 0 0 -9 0 1 -34 0 0 
-24 0 1 63 1 0 -30 0 1 
70 1 0 -36 0 1 -23 0 0 
-1 0 0 -32 0 1 -37 0 0 
-18 0 1 48 1 0 -23 0 1 
-54 0 1 64 1 0 -3 0 0 
-27 0 0 1 0 0 1 0 0 
-21 0 0 60 1 0 4 0 0 
-18 0 0 4 0 0 11 0 0 
-15 0 0 6 0 0 -5 0 0 
-8 0 0 -6 0 1 -23 0 1 
-22 0 1 -6 0 0 -4 0 0 
-10 0 1 -1 0 0 44 1 1 
-6 0 0 -12 0 1 -14 0 1 
-4 0 1 -18 0 0 -26 0 1 
-11 0 0 39 1 1 -7 0 0 
-8 0 0 -19 0 0 -31 0 0 
54 1 0 -17 0 0 -34 0 0 
-22 0 0 -7 0 0 -31 0 1 
-3 0 0 -15 0 0 -21 0 1 
-44 0 1 -21 0 0 46 1 0 
-38 0 0 28 1 0 -33 0 0 
64 1 0 -11 0 0 -55 0 0 
-23 0 0 67 1 0 -4 0 0 
-14 0 0 -9 0 0 -15 0 0 
-44 0 0 -3 0 1 30 1 0 
95 1 0 -12 0 1 -4 0 0 
69 1 0 -29 0 1 98 1 0 
-15 0 0 -3 0 0 -7 0 0 
2 0 0 -56 0 -1 -30 0 0 
1 0 0 6 0 0 -35 0 1 
-11 0 0 44 1 0 -14 0 0 
-3 0 0 78 1 0 -7 0 0 
-42 0 0 -2 0 0 -18 0 0 
40 1 0 -26 0 0 -3 0 0 
-26 0 0 -13 0 0 -13 0 0 
-17 0 0 -5 0 0 -36 0 0 
-45 0 0 -2 0 0 -16 0 0 
-5 0 0 -7 0 0 -25 0 0 
-3 0 0 61 1 0 -13 0 0 
-10 0 0 -4 0 0 3 0 0 
-6 0 0 -16 0 0 -11 0 0 
-31 0 1 -5 0 0 44 1 0 
-5 0 0 -22 0 0 -4 0 0 
-19 0 0 -6 0 0 -16 0 0 
38 1 0 -25 0 0 1 0 0 
-18 0 0 3 0 0 -19 0 0 
-30 0 0 -6 0 0 -10 0 0 
-30 0 0 -11 0 0 -12 0 0 
-27 0 -1 -6 0 0 -3 0 0 
-12 0 -1 -20 0 0 -17 0 0 
76 1 -1 -9 0 0 -12 0 0 
-29 0 0 -29 0 0 -8 0 0 
-58 0 0 -6 0 0 -9 0 0 
69 1 0 -20 0 0 -22 0 0 
-14 0 0 -47 0 0 -4 0 0 
-25 0 0 -11 0 0 -4 0 0 
-7 0 0 -11 0 0 -15 0 0 
-24 0 0 -9 0 0 2 0 0 
1 0 0 -5 0 0 79 1 0 
-23 0 0 5 0 0 68 1 0 
-8 0 0 -4 0 0 -4 0 0 
-15 0 0 2 0 0 3 0 0 
-13 0 -1 6 0 0 -45 0 -1 
-45 0 0 -9 0 0 -6 0 0 
-19 0 0 -54 0 -1 5 0 0 
-49 0 0 -38 0 -1 -19 0 0 
-22 0 0 -20 0 -1 -5 0 0 
58 1 0 -54 0 -1 -14 0 0 
-14 0 0 -14 0 0 -20 0 -1 
-4 0 -1 -40 0 -1 -14 0 0 
-33 0 0 -15 0 0 -4 0 -1 
70 1 -1 -28 0 0 -38 0 -1 
-29 0 0 -13 0 0 -9 0 0 
-4 0 0 -26 0 0 4 0 0 
-8 0 0 -19 0 -1 34 1 0 
-26 0 0 -20 0 -1 -5 0 -1 
-6 0 -1 5 0 0 -14 0 -1 
1 0 -1 -69 0 0 -11 0 -1 
-34 0 -1 -3 0 0 -5 0 0 
-11 0 0 -7 0 0 -18 0 0 
3 0 -1 -20 0 0 -10 0 0 
43 1 0 -13 0 -1 26 0 0 
3 0 0 23 0 0 37 0 0 
-33 -1 0 28 0 0 26 0 0 
37 0 1 26 0 0 -88 -1 0 
5 0 0 20 0 0 -62 -1 1 
-29 -1 1 3 0 0 10 0 1 
18 0 0 3 0 1 19 0 0 
41 0 1 -30 -1 1 3 0 0 
9 0 0 -75 -1 0 29 0 0 
8 0 0 51 0 0 10 0 0 
-67 -1 1 11 0 0 34 0 1 
2 0 1 10 0 0 10 0 0 
9 0 0 31 0 1 -44 -1 1 
3 0 1 -1 0 0 -73 -1 0 
14 0 0 -37 -1 0 -72 -1 0 
8 0 1 10 0 1 12 0 1 
23 0 0 7 0 1 17 0 1 
18 0 0 18 0 1 43 0 1 
2 0 0 2 0 0 15 0 0 
8 0 0 11 0 0 10 0 0 
35 0 1 34 0 0 -7 0 0 
31 0 0 31 0 1 27 0 0 
28 0 0 43 0 0 39 0 -1 
9 0 0 8 0 0 2 0 0 
36 0 0 44 0 1 18 0 0 
7 0 0 6 0 0 12 0 0 
42 0 1 27 0 0 17 0 0 
-42 -1 1 29 0 1 10 0 0 
49 0 0 32 0 0 -51 -1 1 
-69 -1 0 -49 -1 0 13 0 0 
4 0 0 4 0 0 -49 -1 0 
21 0 0 18 0 0 0 0 0 
2 0 0 18 0 0 22 0 0 
35 0 0 5 0 0 9 0 0 
40 0 1 14 0 0 26 0 1 
21 0 0 2 0 0 -60 -1 0 
2 0 0 10 0 0 -66 -1 0 
24 0 0 39 0 0 52 0 0 
36 0 0 -2 0 0 19 0 0 
14 0 0 1 0 0 7 0 0 
8 0 0 3 0 0 3 0 0 
22 0 0 -44 -1 0 -5 0 0 
17 0 0 20 0 0 18 0 0 
41 0 1 -55 -1 -1 20 0 0 
12 0 0 50 0 0 44 0 0 
-15 0 0 11 0 0 5 0 0 
-59 -1 1 2 0 0 28 0 0 
11 0 0 39 0 0 -71 -1 0 
37 0 0 8 0 0 28 0 -1 
27 0 0 7 0 0 18 0 0 
31 0 0 25 0 0 14 0 0 
34 0 0 2 0 0 32 0 0 
14 0 0 33 0 0 11 0 0 
5 0 0 34 0 0 3 0 0 
19 0 0 -1 0 -1 9 0 0 
-18 -1 0 -57 -1 0 32 0 0 
0 0 0 0 0 0 -68 -1 -1 
9 0 0 0 0 0 5 0 0 
6 0 0 1 0 0 4 0 0 
55 0 -1 25 0 0 30 0 -1 
8 0 0 7 0 0 11 0 0 
67 0 0 5 0 0 -8 0 0 
46 0 0 15 0 -1 -1 0 0 
-38 -1 0 9 0 0 20 0 0 
6 0 0 11 0 0 10 0 0 
0 0 0 19 0 0 -58 -1 0 
1 0 0 2 0 0 33 0 -1 
2 0 0 -4 0 -1 14 0 0 
21 0 0 35 0 0 -3 0 0 
41 0 -1 10 0 0 26 0 0 
-52 -1 0 20 0 -1 9 0 -1 
18 0 0 -48 -1 0 25 0 0 
3 0 0 -32 -1 -2 45 0 0 
-59 -1 1 26 0 -1 23 0 -1 
-5 0 0 -34 -1 -1 17 0 0 
19 0 -1 10 0 -1 9 0 -1 
-90 -1 -1 1 0 0 47 0 0 
-11 0 0 21 0 0 2 0 0 
1 0 0 39 0 -1 -2 0 0 
17 0 0 5 0 0 -3 0 0 
2 0 -1 13 0 0 19 0 0 
51 0 0 21 0 -1 44 0 0 
6 0 0 5 0 -1 -3 0 0 
25 0 -1 11 0 0 -2 0 -1 
23 0 -1 25 0 -1 11 0 -1 
25 0 0 26 0 0 31 0 -1 
0 0 0 -8 0 0 -23 0 0 
-22 0 0 -36 0 0 -8 0 1 
-4 0 0 -8 0 1 -16 0 0 
1 0 0 -22 0 0 -24 0 1 
-6 0 0 -9 0 0 -17 0 1 
-21 0 1 -12 0 0 -26 0 0 
-38 0 1 47 1 1 -2 0 1 
53 1 1 45 1 0 -15 0 1 
-10 0 0 -7 0 1 -38 0 0 
-4 0 0 -8 0 1 -53 0 1 
-38 0 0 -12 0 0 -17 0 0 
-26 0 0 -48 0 0 101 1 1 
-10 0 0 -4 0 1 -7 0 1 
-38 0 0 -5 0 1 -4 0 0 
-37 0 0 48 1 1 -5 0 0 
1 0 0 -31 0 1 -15 0 1 
-36 0 0 -17 0 1 -15 0 1 
-24 0 0 -47 0 0 38 1 0 
-26 0 0 -1 0 0 -30 0 1 
-2 0 0 -44 0 0 -22 0 0 
44 1 0 -29 0 0 -15 0 0 
-27 0 0 -4 0 0 -1 0 0 
0 0 0 2 0 0 -31 0 0 
-39 0 1 -10 0 1 -34 0 0 
-39 0 0 81 1 0 -8 0 0 
0 0 0 -39 0 0 -2 0 0 
45 1 0 -5 0 0 -15 0 0 
-7 0 0 -39 0 1 6 0 0 
-7 0 0 2 0 0 -6 0 0 
-23 0 0 -15 0 0 -23 0 1 
9 0 0 -59 0 0 -3 0 0 
-10 0 0 0 0 1 -45 0 1 
-9 0 0 -12 0 1 -27 0 -1 
-12 0 -1 -31 0 0 45 1 0 
-55 0 0 50 1 0 -34 0 0 
-3 0 0 -13 0 0 -5 0 0 
-16 0 0 -25 0 0 -34 0 0 
-43 0 0 -10 0 0 -17 0 0 
59 1 0 -25 0 0 -20 0 0 
1 0 0 1 0 0 -20 0 0 
2 0 0 -23 0 0 -27 0 -1 
-10 0 0 0 0 0 90 1 0 
-13 0 0 -17 0 0 -43 0 0 
-6 0 0 -2 0 0 -9 0 0 
35 1 0 -39 0 1 3 0 0 
-14 0 0 60 1 0 -8 0 0 
-14 0 0 85 1 0 -2 0 0 
-27 0 0 -23 0 0 -8 0 -1 
-15 0 0 -6 0 0 -23 0 0 
-16 0 0 -33 0 1 -21 0 0 
-2 0 0 -19 0 0 -39 0 0 
43 1 -1 -22 0 0 -28 0 0 
61 1 0 -47 0 0 58 1 0 
-34 0 0 -13 0 0 -5 0 0 
73 1 0 -16 0 0 25 1 0 
-7 0 0 -19 0 0 7 0 -1 
-4 0 0 52 1 0 -8 0 0 
4 0 0 1 0 0 -13 0 0 
3 0 0 36 1 0 -2 0 0 
1 0 0 0 0 0 -4 0 0 
-52 0 0 -2 0 0 1 0 0 
-38 0 0 -4 0 0 -32 0 0 
-17 0 0 -15 0 0 1 0 0 
-31 0 0 -15 0 0 5 0 -1 
-38 0 -1 -10 0 0 -33 0 0 
-12 0 0 -36 0 0 -12 0 0 
-24 0 0 -14 0 0 -8 0 0 
-25 0 0 -13 0 -1 -16 0 0 
-10 0 -1 -4 0 0 42 1 -1 
-2 0 0 -19 0 -1 -11 0 0 
-8 0 0 22 1 0 -28 0 0 
38 1 -1 -26 0 0 -22 0 0 
3 0 0 -10 0 0 -5 0 0 
-25 0 -1 -7 0 0 61 1 -1 
-5 0 0 -11 0 0 -11 0 0 
-29 0 -1 -29 0 0 74 1 0 
-53 0 0 -41 0 0 -10 0 -1 
-5 0 0 -2 0 0 -20 0 0 
-10 0 -1 -16 0 -1 -19 0 -1 
-6 0 0 43 0 0 7 0 0 
52 0 0 10 0 0 8 0 0 
-48 -1 1 -2 0 0 29 0 1 
42 0 1 3 0 0 2 0 0 
10 0 0 11 0 0 12 0 0 
-45 -1 0 -2 0 0 -66 -1 0 
13 0 0 13 0 1 44 0 0 
28 0 0 14 0 1 8 0 1 
21 0 0 -29 -1 0 52 0 0 
16 0 0 24 0 0 27 0 0 
24 0 0 9 0 1 15 0 1 
5 0 0 8 0 0 36 0 0 
5 0 0 24 0 0 26 0 1 
-2 0 0 22 0 1 17 0 0 
36 0 1 2 0 0 -56 -1 0 
15 0 1 41 0 0 30 0 1 
39 0 0 6 0 0 29 0 1 
5 0 0 12 0 0 22 0 0 
18 0 0 48 0 0 -67 -1 1 
39 0 0 23 0 0 -75 -1 0 
9 0 0 4 0 0 1 0 0 
-67 -1 0 1 0 0 -7 0 0 
-53 -1 1 32 0 0 12 0 0 
11 0 0 12 0 0 42 0 0 
53 0 1 19 0 0 34 0 0 
-34 -1 1 -4 0 0 33 0 0 
3 0 0 13 0 0 32 0 1 
-67 -1 1 21 0 0 13 0 0 
60 0 0 7 0 0 10 0 0 
-1 0 0 17 0 0 -70 -1 1 
11 0 0 14 0 0 18 0 0 
22 0 0 39 0 0 47 0 0 
12 0 0 20 0 0 31 0 0 
-49 -1 0 17 0 0 40 0 0 
-45 -1 1 21 0 0 10 0 0 
37 0 0 20 0 0 36 0 -1 
63 0 0 13 0 1 35 0 0 
-34 -1 -1 12 0 0 35 0 -1 
13 0 -1 29 0 0 32 0 -1 
7 0 0 3 0 0 16 0 0 
21 0 0 20 0 0 20 0 0 
46 0 0 1 0 0 17 0 0 
35 0 0 -54 -1 0 14 0 0 
2 0 0 12 0 0 -1 0 0 
14 0 0 10 0 0 9 0 0 
6 0 0 19 0 0 -51 -1 0 
-9 0 0 12 0 0 -3 0 0 
-39 -1 0 0 0 0 -56 -1 0 
7 0 0 -14 0 0 8 0 0 
8 0 0 35 0 0 6 0 0 
13 0 0 -51 -1 1 26 0 0 
-1 0 0 -77 -1 -1 15 0 0 
7 0 0 -77 -1 0 1 0 0 
5 0 0 47 0 0 64 0 -1 
-64 -1 1 -36 -1 -1 24 0 0 
13 0 0 1 0 0 18 0 0 
44 0 -1 5 0 -1 12 0 0 
25 0 0 6 0 0 62 0 0 
5 0 -1 46 0 0 16 0 0 
63 0 -1 11 0 -1 1 0 0 
23 0 0 51 0 -1 31 0 0 
4 0 0 22 0 0 -4 0 0 
1 0 0 22 0 -1 -58 -1 0 
6 0 0 10 0 0 23 0 0 
-1 0 0 7 0 -1 7 0 0 
30 0 0 20 0 -1 4 0 0 
15 0 -1 -59 -1 0 19 0 -1 
16 0 -1 -39 -1 0 14 0 0 
-41 -1 0 17 0 -1 0 0 -1 
8 0 0 15 0 -1 -43 -1 0 
14 0 -1 42 0 -1 4 0 -1 
28 0 0 10 0 -1 -15 0 -1 
14 0 0 15 0 0 -48 -1 0 
41 0 0 24 0 -1 20 0 -1 
39 0 0 0 0 -1 6 0 0 
19 0 0 3 0 -1 19 0 0 
-51 -1 0 -58 -1 -1 53 0 0 
-41 -1 -1 -1 0 -1 12 0 0 
10 0 0 61 0 -1 0 0 0 
-59 -1 0 4 0 -1 -3 0 0 
-50 -1 0 22 0 0 6 0 -1 
21 0 0 14 0 -1 25 0 -1 
3 0 0 12 0 -1 8 0 0 
9 0 0 -29 -1 0 14 0 -1 
4 0 0 
v 3 1000 double
-449.44853026 4.0818027745 13.874388844 -455.12045822 8.1356035865 23.803740468 -126.76535012 -9.9531019697 -19.265394634 
-236.36641361 15.410401358 3.4688963747 -214.95163769 28.811265416 -16.270091611 -389.29858896 -3.2946992992 26.56891179 
-249.40295997 4.1706965895 -18.562769525 -251.46522701 1.9824128346 -6.512702032 -263.69027281 3.8395902328 0.15270244959 
-253.62990182 -4.2276347289 17.21238736 -343.85575868 -3.5108609814 -2.855762116 -335.38278167 -27.753061645 -8.2245981864 
-258.0953382 -16.374841306 -20.224734943 -349.99822826 -10.65776945 3.7443870496 -309.31121554 -6.3175025498 10.362826827 
-127.27165177 -6.3045826667 10.254198636 -437.6033864 24.547829795 21.766090016 -284.63492448 -2.9981865032 18.054267688 
-385.97286801 -2.8121631166 -3.7445957749 -313.73604577 -20.051780739 12.002790756 -355.14006313 17.215160971 -13.579188674 
-385.80722322 -45.392060928 12.026672184 -384.97015461 3.3918520069 -1.3500330054 -34.860948317 -8.6538990444 -13.482582643 
-353.99195876 -8.8004942479 -15.45284155 -39.117504985 1.3659605169 16.960947906 -70.542214822 -0.52666872954 4.5134526819 
-188.24150227 0.094715525978 18.628813083 -207.24169935 -1.8312130631 3.7221847333 -10.744755109 14.976984077 13.063193528 
-194.58481789 11.606968412 -13.587355769 -17.79638979 2.8584679941 14.520395959 -24.119175407 -11.461931553 -10.051448112 
-10.212911049 -2.2706449048 2.3048212605 -33.654613787 -6.2687164412 -3.4852120492 -8.0615203801 -1.5778436648 1.4509285509 
-199.45674317 -12.461999891 -3.8401690243 -121.71454089 -0.63467558896 -15.825925287 -332.70603883 -23.805269391 18.286670197 
-180.12139589 0.38860938048 29.799145202 -190.01839543 8.8266318503 -9.751910614 -96.752940076 5.8524486057 -24.319499702 
-205.27938274 6.5425803057 5.1405881096 -37.905230704 -18.786018942 7.8265477481 -502.77648573 -2.7026276377 7.221171749 
22.162396862 1.6404522428 4.65575059 -95.227948424 -4.7370650373 -24.192405678 -257.39343619 -11.929932059 -2.1605797377 
-15.26098077 1.0203153048 16.995474074 -234.59837837 -9.3205313872 -17.897918369 -344.88530896 -8.3593952735 -2.3115592616 
-90.629198526 -16.909026883 -8.605247995 -421.57418656 -25.152050277 38.059232881 -89.801464779 4.5855897758 5.6962690913 
-238.6031283 27.343944033 0.26537469765 -477.31929475 20.333101398 20.894036509 -383.84859324 29.866706085 31.980337283 
-208.53078569 17.566204364 5.9788037015 -153.64111614 -6.1259831305 -16.448602105 -295.64400915 12.239000201 -8.0474698041 
-368.29757383 5.4243138525 11.437526769 -96.376242572 -2.3183148379 -35.731760471 -247.48862444 19.674235118 -19.610825476 
-65.961251411 19.797390073 -14.177710573 -244.16703099 7.3083749619 2.9692811971 -230.68447351 -10.584162807 -6.4964694484 
-428.46055589 11.995167467 9.7215942305 -294.65345074 -4.3274909069 13.930875019 -361.16474051 -7.012425918 4.3724083326 
-219.14681725 6.4289174004 2.5597727141 -313.04181844 15.891809491 -9.9064016068 -428.53560087 13.403782948 32.038740645 
-459.28334509 7.6422142024 10.60306568 -228.65657553 -28.033963889 -7.7537307989 -416.61523634 -3.443534346 10.397679515 
-312.83507687 -22.100277719 -5.9351058675 -366.08738027 -15.842228961 22.478658232 -131.38547673 -2.0117673629 0.42198670794 
-391.2741782 15.899915217 3.99245383 -0.031608247253 -2.9060341425 -0.055700646534 -161.73247855 -4.0242550073 -14.722233526 
-415.99609185 34.634284086 -7.5745124297 -142.42789605 5.0480128659 -18.345044531 -451.54643068 17.357269188 1.1741754181 
-36.140819568 -19.644263317 -0.99234867256 -190.43333928 9.1127335489 -14.244620874 -91.742151901 0.21738461292 27.566835706 
-247.81385303 7.1661318218 -5.8548000966 -400.72785796 5.775521241 26.616415447 -45.283185004 0.12534176981 -1.3177610842 
-86.35860326 -22.846657152 -6.6834385918 -45.927784387 2.782819247 0.96373831902 -74.450829489 1.8333417893 -6.1732339495 
-9.6515614286 14.864677187 3.522882522 -467.23007213 25.354015345 17.972649449 -298.79050338 8.851308101 23.863346936 
-22.141197867 0.64106192696 -16.765861469 16.735168027 -10.892088384 -32.270777074 -405.60596296 -23.387855815 12.89161968 
-271.52426327 -18.976751195 5.3281513575 -464.54070791 20.286050852 7.9711531075 -232.68128923 -0.96431295437 4.416087009 
-91.233581576 -9.3867977343 26.802727758 -317.39843449 1.0362890317 -1.1457039136 -115.07001985 -10.947331714 -1.1489206453 
-345.87976462 10.609219904 -7.7663785908 -53.449462116 11.170752694 22.070672619 -235.47353163 -18.720605428 -2.2545228639 
-389.54100311 -14.610495334 39.883904363 -227.74005683 2.2010766003 9.8392097484 -120.22189414 6.0449394085 0.59491327716 
-267.30499068 25.619529846 25.216739771 -197.67694043 -2.3471612819 3.8494275152 -259.14581605 -32.25698203 5.3854620303 
-416.07368221 -1.562126984 -15.58829941 -87.960699615 18.445175464 -3.518725564 -293.68946041 -9.3453922514 16.624420604 
-223.68000589 6.2745582278 19.939519799 -58.982620102 3.6535309256 -15.924189903 -168.5956449 24.29750665 -20.593940037 
-138.28988621 -13.350449833 0.13228329991 -127.89290337 13.538578091 1.8727717932 -178.53562432 -3.6007556748 -6.8891632736 
-43.581057022 -5.6538489372 -3.697374843 -398.04865784 18.0010656 -6.7596503128 -262.09058608 -24.764023329 -15.287219794 
-225.13993702 12.561307511 11.241672023 -49.177384184 4.8019686977 -14.760730672 -63.612888321 6.2792591341 -6.4708673651 
-132.13844405 14.001957749 -5.3220303385 -142.59273828 -18.144814882 -16.137950639 -140.7223682 -5.0303315917 -11.713066421 
-220.75437966 5.9288729444 -9.5276172022 -23.833452552 -2.2598594193 -3.0427377658 -200.58359454 -15.282980415 -15.694373249 
-47.270848005 10.301399681 13.493240782 -261.09076133 -18.913225674 -14.283974329 -39.393966882 -0.57605568311 -5.145323483 
-306.86710776 7.7745048682 -32.429130189 -55.398207988 15.401855003 -19.464495455 -211.02759352 13.076357484 3.1093237113 
-477.10757864 22.937861868 -4.8348998859 -191.37807707 10.208266944 3.8994855707 -80.323586795 -14.661765214 -9.3605045946 
-175.74642083 16.497816292 -18.411799809 -15.627885225 -15.035610112 34.146234708 -299.1967815 6.8056121828 -28.92133504 