# vtk DataFile Version 4.2
Generated by LIGGGHTS
ASCII
DATASET POLYDATA
POINTS 1000 float
2.0308 3.07895 0.954662 0.516603 2.68394 0.629 2.33826 4.32723 1.95354 
4.55515 4.38117 1.00992 2.5974 0.897201 0.712028 1.66938 1.52166 0.86454 
0.154773 2.2632 1.51901 2.50287 0.0673529 1.05225 4.04206 2.72774 1.17788 
1.92973 4.18207 0.914186 2.19927 2.42802 0.313166 1.19166 0.884102 0.346997 
4.40696 3.61656 0.66044 1.29629 2.77495 1.53777 1.99392 0.731798 1.26399 
0.547996 1.71934 1.88242 3.16887 0.756744 1.72675 0.109659 0.0145781 1.46442 
2.01087 2.11265 1.51526 2.67984 3.99365 0.336892 1.22431 2.22901 0.682304 
4.3927 1.302 0.949906 1.45883 0.256346 0.24651 1.29195 1.39729 1.90072 
3.99897 1.09428 0.0491181 1.79014 4.90343 0.443951 2.92489 3.50758 1.86096 
0.760442 4.33402 0.363355 3.46899 3.77681 0.895202 3.41077 2.88295 1.92972 
0.190273 4.32092 1.48861 3.78071 2.23617 0.0201831 4.16769 4.67805 0.350005 
2.65064 1.93037 0.791978 4.51654 2.94407 1.98855 3.74579 3.77784 0.0756174 
3.93718 0.444667 1.05458 1.35732 4.8626 1.35076 2.58832 0.0164789 0.138497 
2.94295 2.07396 1.54998 3.8878 4.84718 1.25577 0.706668 3.26922 1.35007 
0.97752 3.96694 0.917811 2.71397 4.95633 0.149645 3.09542 2.86218 0.952077 
2.73813 4.00533 1.26418 3.36889 1.54396 0.519242 3.50568 1.59604 1.4558 
3.75236 2.94031 0.150181 3.84624 3.76453 1.56926 4.92858 2.1913 1.6636 
4.93396 3.30425 0.250785 2.13921 2.85441 2.0362 2.36143 0.334066 2.93358 
4.25561 3.07427 3.656 2.42607 1.92143 3.26364 1.82033 3.41105 3.2582 
1.76457 2.58614 2.98851 4.21372 3.99046 2.30166 3.39793 1.56436 3.81292 
1.97916 1.07192 3.01504 3.97807 3.03873 2.72227 1.61479 1.70783 2.95529 
2.56187 2.80174 2.76284 2.53901 1.00778 2.31711 0.21455 1.02717 2.5286 
0.810563 1.73386 3.21597 0.820155 0.41488 3.61138 1.19213 3.03282 2.46578 
1.06864 0.850985 2.69798 1.99895 0.466264 3.64597 3.3713 3.6603 2.69267 
1.55001 3.9619 2.58515 1.4491 0.228948 2.64903 2.87603 2.14626 2.36487 
1.2342 2.80919 3.86383 4.52566 3.80139 3.13532 0.989411 1.20275 3.84762 
3.74362 0.823902 2.56536 1.78028 4.0704 3.87192 2.1388 2.51222 3.83424 
2.42081 4.74488 2.95556 0.0676876 3.6091 2.09265 0.792536 3.85043 3.42726 
1.01668 4.59623 2.69748 3.45758 4.46897 2.1261 3.64414 3.33699 3.94909 
0.230445 2.88783 2.66425 4.85928 0.151413 2.43684 4.37401 2.19339 3.54833 
2.51341 1.37423 3.88468 2.86108 3.25895 3.91609 2.65335 3.87792 3.20081 
3.14668 2.77936 3.30946 3.98275 4.1276 3.62866 0.315665 4.85633 2.82 
3.34947 2.03362 3.01248 3.8846 1.74646 2.33612 3.84213 4.52639 2.8933 
1.77211 1.1483 3.98845 4.8341 1.46099 3.1282 2.84547 2.24397 4.19295 
1.61738 1.16795 5.72128 1.29423 1.71843 5.22117 4.02119 4.88877 4.12573 
0.115197 1.42063 4.13586 0.605104 1.01984 4.77107 2.20239 0.825408 5.38266 
3.26877 4.38519 4.29127 0.977345 0.497747 5.39543 1.66875 0.660536 4.55879 
3.62723 4.94905 5.27206 2.19791 1.50121 4.92559 1.97145 4.08827 5.83567 
4.28422 2.71212 5.93082 0.0554045 2.00602 5.0609 1.57359 3.1659 5.73655 
0.279681 0.182635 4.35284 0.475967 2.69923 5.86726 1.71995 1.80831 4.41163 
4.75265 2.78166 4.39067 0.610124 1.84162 5.717 2.2486 2.48494 5.22836 
2.56727 1.6176 5.71366 1.51998 2.49127 4.61147 4.42253 1.79029 4.63693 
0.97709 2.61115 5.17553 3.01334 3.00902 5.89953 2.29211 0.0289298 5.79253 
2.04721 4.62737 5.18024 2.85055 4.50325 5.02141 4.61492 1.85205 5.58601 
0.571127 3.67738 5.84768 4.44687 3.77856 5.03044 3.28669 3.34712 5.09789 
2.59768 3.60574 4.61969 2.45286 0.356409 4.87794 0.209924 4.21238 5.21959 
0.828603 4.75991 5.68381 1.38951 4.63508 4.39403 3.01839 3.9546 5.89637 
3.42579 0.944813 5.63705 3.83035 2.17661 5.27415 0.337558 4.51708 4.07935 
3.99532 2.91742 4.72947 4.23374 4.49981 4.89678 0.55947 3.75719 4.43392 
3.01784 2.35053 5.11904 4.93777 1.17869 5.24099 4.9696 0.709077 4.36165 
4.4399 2.14518 7.79568 2.21374 2.71079 6.22884 1.86048 0.280194 7.25879 
4.04381 0.0512989 7.98536 1.1905 0.435999 7.60195 1.48116 0.392025 6.38684 
1.15312 1.02683 6.89484 2.22008 0.311771 6.54819 1.7854 1.90222 6.09256 
0.462519 0.884293 6.08601 3.83107 1.52496 7.3164 0.719067 0.110962 6.81116 
0.654855 1.76055 6.61969 1.55536 3.20836 6.77026 1.69337 3.92853 7.29199 
0.323803 0.914291 7.26902 1.14932 1.62982 7.65246 0.444657 0.102255 7.98214 
0.860259 2.72469 7.35976 1.74282 2.59955 7.23729 3.15978 3.60806 7.92636 
2.05418 1.20114 6.61688 2.45187 1.86803 7.29439 1.65385 1.81438 6.92123 
3.84791 4.49979 6.49238 4.12007 3.68982 6.2849 0.112708 4.8766 7.80138 
2.95355 1.0979 6.48715 3.53466 2.57597 6.24214 3.42754 0.676467 7.60117 
0.367392 3.04257 6.66916 4.5572 4.30333 7.00326 1.77925 4.67674 7.93249 
3.60373 4.51155 7.79505 0.817668 4.59768 7.55531 4.93785 0.255397 6.83067 
0.855231 4.521 6.57771 3.18391 1.96285 7.41654 3.26792 2.82453 7.12617 
2.77647 1.98321 6.49022 0.519056 3.93344 7.72527 4.09377 0.949771 6.63774 
4.4042 0.915276 7.59041 2.09875 4.77823 6.93654 4.1416 2.77672 6.90935 
1.73457 4.89476 6.06869 1.42442 4.9818 7.22227 4.33558 3.50832 7.50996 
4.65612 4.78462 7.69582 4.76185 2.48691 7.0186 4.78639 1.79733 6.63922 
4.98633 0.977986 6.29558 1.26022 0.148404 8.4918 1.23387 0.809126 8.95845 
1.74901 1.56015 8.57344 1.55624 2.48412 9.78078 2.00128 2.00585 9.2972 
1.0399 0.986025 8.08413 2.23064 4.17841 8.12321 2.13029 2.67677 8.68427 
0.521106 2.16339 8.08141 1.50307 3.97307 9.63739 1.17616 2.30405 8.97517 
4.14593 4.99707 8.69451 0.873772 1.1822 9.51071 1.96142 1.22465 9.66185 
0.345707 0.0642823 9.90181 2.20977 4.04459 8.99109 2.35195 3.30977 9.07447 
4.56546 2.79986 9.00119 1.41864 2.31008 8.16708 0.75974 2.04881 9.90696 
1.98129 3.2688 9.95101 2.49129 0.711809 9.89829 3.82749 0.237019 9.74162 
2.47922 0.957111 8.98308 1.82481 0.299928 9.31416 3.90762 4.06563 8.73038 
4.29058 3.44893 8.69883 2.33653 4.84288 9.30677 0.262593 3.46403 9.8156 
0.514806 3.15692 8.13163 4.87185 4.77829 8.64655 0.22842 4.07344 9.25105 
2.89328 2.29925 8.6887 2.93328 1.61134 9.68856 3.9761 0.887152 8.79813 
3.62953 3.09189 9.16992 2.65806 1.36244 8.15843 4.80495 0.427095 9.42906 
3.15706 0.452014 9.43568 4.40081 3.25521 9.61721 4.61334 0.101689 8.88765 
3.62999 2.97984 8.03243 0.859422 4.33311 8.66126 3.65733 4.4003 9.59488 
2.97434 3.29012 9.80097 3.50782 1.52308 9.13433 1.10958 3.41589 8.9047 
3.19037 0.462992 8.47971 1.43595 4.93977 9.50998 2.79145 2.46348 9.58188 
3.7769 2.28377 8.39557 4.58866 2.43448 9.98593 4.74417 3.15543 8.19359 
4.75761 2.06914 8.94234 4.74135 4.14019 9.39643 4.78249 0.50594 8.39715 
4.87469 1.54082 8.22047 4.84997 4.0768 8.24388 0.949688 8.58351 1.57993 
3.18322 8.85264 0.256182 1.94068 9.14761 1.04692 4.61523 6.58988 1.74532 
0.268684 9.10593 1.71964 1.61783 6.39974 1.62935 3.38882 5.42077 1.79128 
-0.0578156 7.80404 1.66872 2.70163 7.71439 1.52685 3.47783 7.47718 0.974392 
1.29419 9.62982 1.00196 1.44469 5.87097 0.0254601 0.688369 5.09479 0.0374207 
4.04409 7.99389 1.67885 2.71678 8.57135 1.13044 3.7483 6.82068 1.8041 
3.06387 7.15471 1.85154 2.98945 6.02704 0.786044 4.62788 5.62807 0.967822 
1.82683 9.87749 1.6603 1.69452 9.59502 0.118926 4.58106 7.74543 0.171034 
3.8689 5.65492 0.583763 0.346998 8.88287 0.11016 0.0470492 8.33586 0.815512 
2.96292 9.51946 0.693427 2.08293 5.72422 1.52013 2.16718 6.59029 1.767 
0.0405515 5.86139 0.475522 0.869965 5.58329 1.64027 1.82474 5.70851 0.743366 
1.15836 6.78637 1.87714 0.132363 7.35118 0.926314 2.5875 5.07027 1.36217 
1.41621 7.16977 0.254888 1.10209 7.3268 1.14738 1.96454 8.43667 0.557028 
4.75385 6.15969 0.176808 3.35221 8.16807 1.88328 0.866875 5.88396 0.737025 
4.2428 6.43736 0.935336 2.42268 6.80389 0.743857 3.13024 9.94952 1.67869 
3.44743 8.26697 0.671337 3.77204 9.46722 1.24097 4.04395 9.8567 0.400569 
4.32694 5.36944 1.92972 4.39204 7.41662 1.01153 4.46876 9.29073 1.28708 
4.53704 8.41766 0.893731 0.238918 8.32065 2.49576 2.1346 9.7221 2.33483 
3.67764 7.64951 2.55044 4.49886 8.11236 3.31177 4.22118 7.34862 3.7357 
2.79307 7.80103 2.9054 4.1706 5.73622 2.79991 1.86585 6.63817 3.75784 
1.84811 9.46773 3.95527 4.33525 5.17864 3.3067 0.0745978 9.43292 3.80006 
0.988814 9.61311 3.62524 0.301223 8.78809 3.35383 3.44735 9.29622 3.1241 
2.83542 6.8827 3.94818 4.23244 6.47892 3.38513 2.67801 5.93967 2.17257 
3.22958 9.04447 2.0646 0.858256 7.65594 2.03239 0.862622 9.28101 2.5265 
0.21941 9.66368 2.7559 2.40358 6.63513 2.60568 3.24669 6.5417 2.95179 
0.702422 5.72968 3.20719 3.8624 8.73635 2.53856 2.42709 5.23584 3.76808 
2.48996 6.07216 3.35877 1.72482 8.46801 2.82257 0.919245 6.96865 2.66988 
0.868198 5.38537 2.35684 0.959767 8.43397 3.14434 4.57555 5.77873 3.96741 
3.57006 6.40535 3.85904 0.587397 6.1721 2.41811 1.94228 8.29035 3.78175 
0.909155 6.93161 3.5114 1.52658 6.12199 2.63483 1.38799 5.44527 3.72142 
3.37625 5.66074 2.69884 1.04614 7.68486 3.10185 1.79348 7.07644 2.86395 
4.76194 8.79391 2.69827 4.89528 8.78385 3.97713 4.92202 6.54611 2.62184 
0.402106 8.0117 4.0158 3.0497 6.97878 4.91002 0.750099 6.27308 4.04746 
1.47362 9.99493 5.32513 3.38662 5.82612 5.56536 3.53749 7.67108 4.4318 
4.31342 9.12636 5.49847 0.0931857 8.07322 4.928 2.65444 6.15168 5.26322 
1.42201 9.82097 4.49426 4.4251 7.71559 4.63935 1.34988 7.45524 5.91219 
1.21179 6.0377 4.87346 3.83154 7.31019 5.85381 1.2806 9.62973 5.87507 
2.42235 9.07427 4.70652 0.765879 7.31701 5.04381 3.6529 5.50463 4.50617 
0.331758 9.35499 4.67908 3.36079 9.18488 5.20468 0.62766 6.48938 5.176 
0.188815 8.17987 5.76206 0.490089 5.37788 4.13524 4.89843 6.94237 5.82869 
3.83698 6.77997 5.28387 0.964426 9.0481 5.14475 2.70563 7.75516 5.13119 
1.76215 9.11687 5.34898 4.70376 7.03679 4.29826 1.05711 8.2041 5.29745 
3.30068 6.1823 4.66037 1.27742 6.16863 5.88542 -0.0456565 5.95243 4.49991 
2.92227 9.65065 5.90516 0.983631 7.45343 4.1487 2.56983 5.32929 4.71443 
3.04094 8.58258 4.41327 1.99271 8.02 4.78855 1.23956 5.18997 4.80811 
4.5321 5.5726 5.51661 1.89306 6.86275 5.23159 2.24279 6.07078 4.37347 
0.389668 7.22413 5.9579 4.85898 5.45287 4.86685 1.70906 7.15262 4.45741 
2.03234 6.02789 5.80018 4.45272 6.45759 5.12568 4.88402 6.36539 4.41179 
[...]
POINT_DATA 1000
FIELD FieldData 7
id 1 1000 int
213 106 409 857 909 548 21 280 587 
598 67 127 886 767 776 204 282 222 
670 839 584 79 233 259 526 335 770 
941 612 865 351 984 830 648 234 582 
385 976 680 327 955 783 149 755 661 
516 843 647 495 288 807 833 9 851 
15 12 75 641 725 25 258 265 609 
456 907 585 19 211 18 313 378 445 
596 129 853 625 208 394 272 600 228 
679 760 244 921 555 364 370 298 925 
322 214 354 868 331 256 186 731 827 
483 159 506 23 187 460 541 290 96 
102 120 278 894 932 311 746 509 39 
247 251 603 653 232 434 200 939 33 
780 722 615 988 407 637 671 437 326 
245 443 78 952 579 465 967 249 340 
524 511 789 762 691 786 488 389 573 
877 486 970 43 425 98 975 530 729 
687 169 972 502 640 418 913 785 654 
918 205 189 46 568 651 375 439 708 
608 366 87 646 420 676 621 737 478 
485 590 207 559 752 501 220 936 547 
912 424 173 781 523 287 126 281 674 
998 881 902 613 242 141 496 968 61 
71 40 384 42 644 876 812 196 316 
372 283 348 581 180 374 49 219 51 
944 236 823 86 399 212 750 688 454 
935 438 403 264 754 826 227 983 908 
138 956 586 314 974 269 66 824 386 
419 906 885 701 938 494 562 131 589 
911 6 95 197 160 363 174 990 37 
804 497 850 533 297 334 4 796 430 
164 563 312 683 447 570 36 928 726 
453 376 551 639 135 304 32 614 365 
153 712 690 266 471 179 150 195 855 
695 950 457 181 103 255 505 362 295 
802 678 235 275 945 521 224 503 667 
884 108 871 561 117 849 391 617 574 
714 832 900 553 593 942 405 48 994 
143 163 309 504 917 564 24 177 44 
22 825 356 601 818 315 681 732 856 
744 866 929 105 542 479 959 254 184 
610 191 953 10 808 491 699 810 151 
101 834 371 977 715 182 624 188 914 
546 882 221 527 464 739 393 114 273 
904 417 166 240 271 388 517 705 718 
694 292 253 709 285 50 879 436 632 
704 525 338 320 11 82 140 154 528 
397 537 301 575 713 466 3 878 317 
441 144 963 753 230 560 550 519 604 
673 344 862 817 299 899 93 34 353 
414 852 27 490 811 629 957 774 920 
706 668 390 797 28 556 809 628 76 
401 330 422 229 57 426 451 218 793 
152 104 973 59 711 508 279 113 116 
415 552 697 176 649 655 512 999 241 
903 358 318 901 769 597 775 210 339 
623 130 380 677 431 898 216 237 618 
549 759 226 341 656 930 217 864 842 
565 707 461 450 35 29 947 772 91 
225 905 766 531 408 662 835 467 142 
352 821 620 72 175 619 743 7 828 
406 937 428 110 875 172 966 446 954 
756 332 919 742 730 333 858 765 889 
433 748 482 359 404 121 293 346 62 
820 427 566 416 421 529 1000 787 538 
846 815 206 193 806 795 611 513 243 
951 893 626 472 778 493 844 650 137 
692 665 410 277 147 361 231 284 672 
666 792 860 350 728 880 863 910 987 
185 741 636 402 83 347 321 379 890 
308 658 803 543 773 17 514 480 896 
703 895 717 80 355 805 926 887 768 
992 31 861 223 583 148 476 958 38 
267 869 303 343 996 845 734 572 132 
2 257 686 345 534 924 250 800 97 
794 396 139 145 47 829 689 660 652 
192 56 948 261 112 522 118 539 89 
616 592 65 307 383 819 816 492 685 
369 157 745 291 940 146 239 158 16 
594 487 171 702 270 675 536 740 260 
960 323 721 923 510 14 916 602 263 
74 761 201 190 156 883 69 162 458 
571 995 484 462 777 452 368 822 473 
854 373 840 758 578 133 477 736 329 
518 444 859 682 927 107 599 788 986 
63 638 520 554 77 965 319 841 109 
962 328 99 716 946 90 698 209 645 
969 100 342 500 413 199 448 991 971 
53 54 934 507 634 580 738 305 455 
357 262 469 423 643 659 1 980 943 
664 607 81 123 627 915 558 684 349 
595 622 30 720 392 238 779 799 248 
961 710 693 215 931 749 545 933 274 
727 763 178 784 873 20 642 360 289 
577 296 757 724 5 336 286 395 557 
58 111 203 733 429 771 798 635 989 
540 801 170 831 183 449 814 949 630 
55 874 700 300 897 489 481 631 838 
119 735 669 985 122 544 633 68 870 
606 367 848 432 605 64 891 202 837 
45 591 381 459 155 567 134 412 70 
569 306 382 982 515 115 663 499 325 
997 535 657 13 276 813 782 94 387 
124 302 751 498 198 442 88 847 194 
252 398 470 125 723 892 377 411 790 
60 246 791 310 84 128 836 867 161 
747 41 888 136 324 8 532 165 52 
73 268 576 979 993 92 337 474 168 
981 468 764 294 922 26 588 167 463 
475 696 978 85 872 440 964 719 400 
435 
type 1 1000 int
1 1 1 2 2 2 1 1 2 
2 1 1 2 2 2 1 1 1 
2 2 2 1 1 1 2 1 2 
2 2 2 1 2 2 2 1 2 
1 2 2 1 2 2 1 2 2 
2 2 2 1 1 2 2 1 2 
1 1 1 2 2 1 1 1 2 
1 2 2 1 1 1 1 1 1 
2 1 2 2 1 1 1 2 1 
2 2 1 2 2 1 1 1 2 
1 1 1 2 1 1 1 2 2 
1 1 2 1 1 1 2 1 1 
1 1 1 2 2 1 2 2 1 
1 1 2 2 1 1 1 2 1 
2 2 2 2 1 2 2 1 1 
1 1 1 2 2 1 2 1 1 
2 2 2 2 2 2 1 1 2 
2 1 2 1 1 1 2 2 2 
2 1 2 2 2 1 2 2 2 
2 1 1 1 2 2 1 1 2 
2 1 1 2 1 2 2 2 1 
1 2 1 2 2 2 1 2 2 
2 1 1 2 2 1 1 1 2 
2 2 2 2 1 1 1 2 1 
1 1 1 1 2 2 2 1 1 
1 1 1 2 1 1 1 1 1 
2 1 2 1 1 1 2 2 1 
2 1 1 1 2 2 1 2 2 
1 2 2 1 2 1 1 2 1 
1 2 2 2 2 1 2 1 2 
2 1 1 1 1 1 1 2 1 
2 1 2 2 1 1 1 2 1 
1 2 1 2 1 2 1 2 2 
1 1 2 2 1 1 1 2 1 
1 2 2 1 1 1 1 1 2 
2 2 1 1 1 1 2 1 1 
2 2 1 1 2 2 1 2 2 
2 1 2 2 1 2 1 2 2 
2 2 2 2 2 2 1 1 2 
1 1 1 2 2 2 1 1 1 
1 2 1 2 2 1 2 2 2 
2 2 2 1 2 1 2 1 1 
2 1 2 1 2 1 2 2 1 
1 2 1 2 2 1 2 1 2 
2 2 1 2 1 2 1 1 1 
2 1 1 1 1 1 2 2 2 
2 1 1 2 1 1 2 1 2 
2 2 1 1 1 1 1 1 2 
1 2 1 2 2 1 1 2 1 
1 1 2 2 1 2 2 2 2 
2 1 2 2 1 2 1 1 1 
1 2 1 1 2 2 2 2 2 
2 2 1 2 1 2 2 2 1 
1 1 1 1 1 1 1 1 2 
1 1 2 1 2 2 1 1 1 
1 2 2 1 2 2 2 2 1 
2 1 1 2 2 2 2 1 1 
2 1 1 2 1 2 1 1 2 
2 2 1 1 2 2 1 2 2 
2 2 1 1 1 1 2 2 1 
1 2 2 2 1 2 2 1 1 
1 2 2 1 1 2 2 1 2 
1 2 1 1 2 1 2 1 2 
2 1 2 2 2 1 2 2 2 
1 2 1 1 1 1 1 1 1 
2 1 2 1 1 2 2 2 2 
2 2 1 1 2 2 2 2 1 
2 2 2 1 2 1 2 2 1 
2 2 1 1 1 1 1 1 2 
2 2 2 1 2 2 2 2 2 
1 2 2 1 1 1 1 1 2 
1 2 2 2 2 1 2 1 2 
2 2 2 1 1 2 2 2 2 
2 1 2 1 2 1 1 2 1 
1 2 1 1 2 2 2 2 1 
1 1 2 1 2 2 1 2 1 
2 1 1 1 1 2 2 2 2 
1 1 2 1 1 2 1 2 1 
2 2 1 1 1 2 2 1 2 
1 1 2 1 2 1 1 1 1 
2 1 1 2 1 2 2 2 1 
2 1 2 2 2 1 2 2 1 
1 2 1 1 1 2 1 1 1 
2 2 1 1 2 1 1 2 1 
2 1 2 2 2 1 1 2 1 
2 1 2 2 2 1 2 2 2 
1 2 2 2 1 2 1 2 1 
2 1 1 2 2 1 2 1 2 
2 1 1 1 1 1 1 2 2 
1 1 2 2 2 2 2 1 1 
1 1 1 1 2 2 1 2 2 
2 2 1 1 2 2 2 2 1 
2 2 1 2 1 1 2 2 1 
2 2 2 1 2 2 2 2 1 
2 2 1 2 2 1 2 1 1 
2 1 2 2 1 1 1 1 2 
1 1 1 2 1 2 2 2 2 
2 2 1 2 1 1 2 2 2 
1 2 2 1 2 1 1 2 2 
1 2 2 2 1 2 2 1 2 
2 1 2 1 2 1 2 1 2 
1 2 1 1 1 2 1 1 1 
2 1 1 2 2 1 2 1 1 
2 2 2 1 1 2 2 1 1 
1 1 2 1 1 1 1 2 1 
1 1 1 1 2 2 1 1 2 
1 1 2 1 1 1 2 2 1 
2 1 2 1 1 1 2 1 1 
1 1 2 2 2 1 1 1 1 
2 1 2 1 2 1 2 1 1 
1 2 2 1 2 1 2 2 1 
1 
i 3 1000 int
119 1 1 -34 0 0 195 1 1 
-2 0 0 -26 0 1 -70 0 1 
-85 0 1 -66 0 0 -27 0 1 
-28 0 1 142 1 1 -60 0 1 
163 1 0 -49 0 1 -68 0 1 
-98 0 1 123 1 0 143 1 1 
-17 0 1 -32 0 1 -45 0 1 
-56 0 1 -50 0 1 -78 0 -1 
-69 0 1 -53 0 1 -42 0 0 
-4 0 0 4 0 1 -45 0 -1 
-19 0 1 96 1 1 125 1 0 
127 1 1 -62 0 0 9 0 0 
-126 0 0 51 0 0 -78 0 0 
-27 0 0 11 0 1 -26 0 1 
-5 0 0 -49 0 0 -36 0 0 
-83 0 1 -1 0 1 -55 0 0 
-51 0 1 -6 0 -1 -33 0 0 
18 0 0 145 1 0 -101 0 0 
-61 0 1 -72 0 0 96 1 1 
-9 0 0 -29 0 0 -85 0 0 
-59 0 1 -45 0 1 -25 0 0 
-13 0 0 -48 0 0 -65 0 1 
-52 0 0 71 1 0 -22 0 1 
-87 0 0 -95 0 0 -15 0 0 
-42 0 1 -91 0 0 80 1 0 
-5 0 0 3 0 0 69 1 -1 
-94 0 0 -24 0 1 -77 0 1 
-22 0 0 -48 0 1 -199 -1 0 
-51 0 1 -23 0 0 -28 0 0 
-9 0 0 -70 0 0 39 1 0 
36 1 0 8 0 0 -17 0 1 
-61 0 1 4 0 0 -13 0 0 
69 1 0 200 1 0 -38 0 0 
74 1 0 133 1 0 -63 0 0 
-72 0 0 -63 0 0 -7 0 0 
73 1 0 95 1 0 -55 0 0 
1 0 -1 -95 0 -1 122 1 -1 
9 0 0 -32 0 0 -10 0 0 
-7 0 0 -58 0 0 -71 0 0 
-108 0 0 -25 0 0 107 1 0 
149 1 0 -49 0 1 -56 0 0 
-108 0 0 -24 0 0 143 1 0 
-116 0 0 -80 0 0 100 1 0 
34 0 0 21 0 0 -49 0 1 
-1 0 0 -72 0 0 -16 0 0 
-37 0 0 51 1 0 12 0 1 
38 0 0 -21 0 0 -3 0 0 
97 1 -1 -60 0 1 -13 0 0 
-24 0 1 -18 0 -1 -70 0 0 
-74 0 0 78 1 0 -88 0 1 
-79 0 1 -34 0 0 -70 0 0 
130 1 0 95 1 0 129 1 -1 
-66 0 0 -85 0 0 -14 0 0 
111 1 1 -34 0 1 114 1 1 
87 1 0 115 1 0 25 0 -1 
-92 0 0 -86 0 0 -68 0 0 
6 0 0 177 1 0 -60 0 1 
-60 0 0 -105 0 -1 101 1 0 
90 0 0 -36 0 0 32 0 -1 
81 1 -1 -21 0 0 -84 0 0 
-26 0 0 -15 0 0 5 0 0 
-37 0 0 7 0 0 87 1 -1 
6 0 0 -29 0 0 5 0 0 
-70 0 1 6 0 -1 108 1 1 
-90 0 0 5 0 -1 67 1 0 
166 1 0 5 0 0 66 0 0 
19 0 -1 2 0 0 85 1 0 
91 1 0 -66 0 1 100 1 0 
103 1 -1 15 0 -1 -19 0 -1 
-121 0 0 -8 0 -1 124 1 0 
-28 0 0 -160 -1 0 -12 0 0 
95 0 0 135 1 0 -93 0 0 
42 1 0 -11 0 0 -34 0 0 
-53 0 0 184 1 0 -28 0 0 
41 0 0 134 1 -1 -69 0 -1 
-71 0 0 -95 0 0 -9 0 0 
-7 0 0 23 0 0 -16 0 0 
-4 0 0 16 0 -1 4 0 0 
-68 0 0 -73 0 0 138 1 -1 
-20 0 1 -79 0 -1 127 1 -1 
-73 0 0 2 0 0 114 1 0 
-29 0 0 26 0 -1 -1 0 -1 
-12 0 -1 -63 0 0 155 1 -1 
-68 0 0 14 0 -1 -54 0 0 
-34 0 0 -59 0 0 128 1 0 
-53 0 0 220 1 0 -95 0 0 
-19 0 0 10 0 0 48 0 0 
56 0 0 53 0 0 20 0 0 
40 0 0 13 0 0 11 0 0 
97 0 1 49 0 0 34 0 1 
-121 -1 -1 3 0 0 -10 0 0 
50 0 0 60 0 0 16 0 -1 
52 0 -1 4 0 0 -182 -1 0 
-98 -1 0 131 0 1 66 0 1 
175 1 0 97 0 0 35 0 0 
-103 -1 0 17 0 0 -23 0 1 
35 0 0 8 0 1 -9 0 1 
16 0 0 52 0 1 -131 -1 1 
-112 -1 0 -5 0 0 88 0 0 
38 0 0 -88 -1 0 -3 0 1 
39 0 1 -7 0 0 -68 -1 0 
133 0 0 54 0 1 -103 -1 0 
27 0 0 59 0 0 55 0 0 
-96 -1 0 50 0 0 79 0 0 
58 0 -1 -99 -1 1 -145 -1 0 
42 0 0 17 0 -1 10 0 0 
47 0 0 8 0 0 -56 -1 1 
-83 -1 0 19 0 0 62 0 0 
-2 0 1 -6 0 0 -20 0 0 
-55 -1 0 51 0 0 -20 -1 1 
-86 -1 1 -22 0 0 -50 0 0 
33 0 0 -87 -1 1 -9 0 0 
47 0 0 -91 -1 0 7 0 1 
-13 0 0 44 0 1 -10 0 1 
207 1 0 -31 0 0 -64 -1 0 
-162 -1 1 26 0 1 13 0 0 
6 0 0 50 0 0 46 0 0 
49 0 0 99 0 0 32 0 0 
36 0 0 20 0 0 5 0 0 
106 0 -1 49 0 0 29 0 -1 
66 0 0 73 0 -1 28 0 0 
46 0 0 97 0 0 20 0 0 
19 0 0 -143 -1 1 -101 -1 0 
78 0 0 11 0 -1 -16 0 1 
68 0 0 -142 -1 1 50 0 0 
87 0 0 5 0 0 45 0 0 
36 0 -1 84 0 0 61 0 0 
-89 -1 1 70 0 0 52 0 -1 
26 0 -1 45 0 0 -29 0 0 
-44 -1 0 36 0 0 -35 0 0 
61 0 0 99 0 0 55 0 -1 
24 0 -1 18 0 0 5 0 0 
12 0 0 -19 0 0 56 0 0 
23 0 0 19 0 0 5 0 0 
22 0 -1 -151 -1 -1 -108 -1 1 
51 0 -1 55 0 0 15 0 -1 
-87 -1 0 -50 0 0 -96 -1 0 
-21 0 0 -59 -1 0 -107 -1 0 
-146 -1 0 -179 -1 -1 -124 -1 0 
67 0 0 84 0 -1 16 0 0 
110 0 1 43 0 0 23 0 -1 
80 0 -1 -121 -1 -1 43 0 0 
31 0 0 -21 0 -1 33 0 -1 
81 0 0 3 0 0 37 0 -1 
53 0 -1 80 0 0 67 0 -1 
76 0 -1 -125 -1 1 49 0 0 
45 0 0 93 0 0 -12 0 0 
37 0 0 6 0 -1 56 0 0 
61 0 0 77 0 0 36 0 0 
39 0 0 -51 -1 -1 54 0 1 
82 0 -1 37 0 0 -33 0 0 
20 0 -1 -16 0 0 -83 -1 -1 
63 0 -1 114 0 0 68 0 0 
82 0 -1 -96 -1 0 -64 -1 0 
-92 -1 -1 9 0 0 -101 -1 -1 
45 0 -1 -76 -1 0 -106 -1 0 
49 0 0 -9 0 0 50 0 -1 
118 0 -1 32 0 -1 67 0 -1 
103 0 -1 26 0 0 70 0 0 
51 0 -1 40 0 -1 -168 -1 -2 
-64 -1 0 97 0 0 57 0 -1 
3 0 0 25 0 -1 99 0 -1 
13 0 0 0 0 0 -31 0 0 
44 0 -1 50 0 -1 -155 -1 0 
234 1 -1 34 0 -1 10 0 0 
3 0 -1 56 0 -1 -27 0 -1 
39 0 0 15 0 0 -139 -1 0 
34 0 -1 -18 0 0 171 1 1 
-26 0 0 -20 0 0 -46 0 1 
-63 0 0 9 0 1 -52 0 1 
-85 0 0 95 1 0 -39 0 1 
-38 0 1 -17 0 0 -32 0 1 
-18 0 1 -56 0 0 -39 0 0 
-72 0 1 -48 0 1 -30 0 1 
-96 0 0 -34 0 0 -64 0 1 
24 0 0 -57 0 1 -14 0 0 
-22 0 0 -26 0 1 -68 0 1 
-46 0 1 -212 -1 0 143 1 0 
53 1 0 -93 0 2 64 1 0 
20 0 1 -51 0 1 -6 0 0 
-43 0 1 -26 0 0 -50 0 1 
-43 0 0 -4 0 0 -36 0 1 
-19 0 1 170 1 1 -72 0 0 
-50 0 1 104 1 0 4 0 0 
107 1 0 11 0 0 -32 0 1 
-40 0 0 -36 0 0 -31 0 1 
-52 0 1 -18 0 0 -46 0 1 
-32 0 1 -3 0 1 -114 0 0 
-32 0 1 -29 0 1 109 1 0 
-36 0 1 -97 0 0 -46 0 0 
9 0 -1 -87 0 0 -3 0 0 
-11 0 0 119 1 0 1 0 0 
88 1 -1 108 1 -1 18 0 0 
-28 0 0 8 0 0 124 1 0 
-87 0 0 119 1 0 -38 0 0 
-66 0 0 -6 0 0 151 1 1 
-64 0 0 97 1 0 -7 0 0 
-73 0 0 -39 0 1 151 1 0 
-38 0 1 75 1 0 -49 0 1 
106 1 0 -68 0 0 -56 0 0 
-22 0 0 -57 0 0 -39 0 0 
-31 0 0 5 0 0 -17 0 -1 
18 0 0 -112 0 1 132 1 0 
71 1 0 -23 0 0 -118 0 0 
102 1 0 53 1 1 -24 0 0 
-104 0 1 -80 0 0 -23 0 0 
-33 0 1 -87 0 0 -22 0 -1 
24 0 0 90 1 0 -16 0 1 
70 1 0 23 0 0 27 0 0 
-25 0 0 -23 0 1 86 1 0 
12 0 0 -90 0 0 -74 0 0 
-111 0 0 93 1 0 -10 0 0 
6 0 -1 -73 0 0 -23 0 0 
-34 0 1 -27 0 0 104 1 0 
-81 0 0 -42 0 0 -69 0 0 
-49 0 0 -60 0 1 -7 0 -1 
-100 0 0 -68 0 0 -41 0 0 
-21 0 0 76 1 0 -72 0 -1 
41 1 0 76 1 -1 -94 0 -2 
-105 0 0 86 1 0 -14 0 0 
-9 0 -1 -57 0 1 -16 0 0 
-27 0 0 111 1 1 -53 0 0 
-104 0 0 -31 0 0 94 1 0 
-18 0 0 -10 0 -1 -19 0 0 
-39 0 0 -49 0 0 64 0 0 
-11 0 0 -27 0 0 27 0 -1 
97 1 0 32 0 0 -39 0 0 
-35 0 0 154 1 -1 3 0 0 
46 0 0 -27 0 0 -29 0 0 
96 1 0 -57 0 0 -17 0 0 
-53 0 0 27 0 0 5 0 0 
23 0 0 -28 0 0 134 1 0 
-7 0 0 -9 0 0 -13 0 0 
105 1 0 -79 0 0 -51 0 0 
-21 0 0 -17 0 -1 -18 0 0 
121 1 -1 -39 0 0 -35 0 0 
-6 0 0 -105 0 0 24 0 0 
-32 0 0 -33 0 0 -5 0 0 
-69 0 0 22 0 -1 -7 0 0 
-158 -1 0 3 0 0 -85 0 -1 
-66 0 0 -74 0 -1 -8 0 -1 
107 1 0 -59 0 0 -27 0 0 
-106 0 -1 -46 0 0 -88 0 0 
114 1 0 -114 -1 -1 111 1 0 
73 1 -1 -36 0 -1 11 0 0 
-48 0 -1 95 1 0 -23 0 0 
29 0 0 -88 0 0 -64 0 0 
-22 0 0 25 0 0 0 0 -1 
-47 0 0 68 0 0 34 0 0 
20 0 1 -79 -1 1 25 0 1 
103 0 0 -93 -1 0 21 0 0 
-15 0 0 -33 -1 1 11 0 0 
-3 0 0 -69 -1 0 -16 0 1 
-16 0 0 55 0 0 89 0 1 
71 0 0 -154 -1 2 -64 -1 1 
-107 -1 0 28 0 1 -113 -1 1 
-5 0 0 14 0 1 -116 -1 1 
37 0 0 39 0 0 44 0 1 
51 0 0 20 0 -1 53 0 0 
-80 -1 0 100 0 1 18 0 -1 
-6 0 0 39 0 0 17 0 0 
-56 -1 0 27 0 0 -73 -1 0 
-43 0 0 36 0 0 28 0 0 
35 0 0 -132 -1 0 50 0 0 
68 0 0 -9 0 0 -22 0 1 
12 0 1 -42 0 0 -154 -1 0 
-4 0 1 58 0 0 48 0 0 
6 0 0 27 0 1 21 0 0 
-68 -1 0 58 0 -1 107 0 0 
143 0 1 54 0 0 8 0 0 
-153 -1 1 -101 -1 0 91 0 0 
-114 -1 0 -25 0 1 -47 -1 0 
-132 -1 -1 94 0 1 -46 -1 0 
36 0 0 49 0 1 25 0 1 
-39 0 0 -17 0 0 37 0 0 
27 0 0 43 0 0 38 0 0 
73 0 1 22 0 0 10 0 0 
17 0 0 -16 0 0 -133 -1 0 
-18 0 0 102 0 0 -152 -1 0 
-2 0 0 72 0 0 33 0 0 
44 0 0 24 0 0 -122 -1 1 
87 0 -1 -18 0 0 -108 -1 -1 
-46 0 1 21 0 1 16 0 0 
-63 0 1 -77 -1 0 -134 -1 0 
-133 -1 0 -107 -1 0 -122 -1 -1 
92 0 -1 35 0 -1 58 0 0 
-128 -1 0 26 0 -1 72 0 0 
60 0 0 50 0 0 88 0 0 
38 0 -1 57 0 0 -94 -1 0 
98 0 -1 -21 0 0 -74 -1 0 
-110 -1 0 -162 -1 0 59 0 0 
-129 -1 0 -140 -1 -1 84 0 0 
50 0 0 52 0 -1 -9 0 0 
-103 -1 1 74 0 1 55 0 0 
58 0 0 57 0 0 51 0 0 
65 0 -1 21 0 0 67 0 -1 
66 0 -1 15 0 0 6 0 1 
-9 0 0 31 0 0 -165 -1 0 
43 0 0 58 0 0 10 0 0 
-98 -1 1 66 0 0 11 0 0 
-85 -1 -1 57 0 -1 -123 -1 1 
26 0 0 14 0 0 53 0 -1 
28 0 -1 68 0 -1 -119 -1 0 
59 0 0 -138 -1 0 24 0 0 
15 0 0 30 0 0 15 0 0 
-51 -1 0 -135 -1 0 51 0 0 
144 0 -1 75 0 -1 -95 -1 -1 
3 0 -1 -125 -1 -1 49 0 -1 
46 0 0 21 0 0 60 0 -1 
22 0 0 84 0 0 44 0 0 
3 0 -1 -99 -1 0 121 0 0 
68 0 -1 -18 0 0 -112 -1 -1 
85 0 0 78 0 0 105 0 0 
147 0 0 -20 0 0 7 0 -1 
47 0 0 20 0 0 -153 -1 -1 
95 0 0 47 0 -1 53 0 -1 
-126 -1 0 65 0 -1 37 0 -1 
-138 -1 1 -33 0 -1 -90 -1 0 
24 0 0 127 0 0 33 0 -1 
2 0 0 91 0 0 25 0 0 
103 0 -1 1 0 -1 -2 0 0 
-121 -1 0 -111 -1 -1 199 1 0 
-11 0 -1 64 0 0 31 0 0 
30 0 -1 55 0 -1 136 0 0 
48 0 0 31 0 -1 55 0 -1 
61 0 0 20 0 0 14 0 0 
93 0 -1 44 0 0 8 0 0 
47 0 -1 11 0 0 -45 0 0 
63 0 0 26 0 0 99 0 -1 
31 0 0 101 0 -1 104 0 0 
18 0 0 19 0 -1 25 0 -1 
60 0 0 -4 0 -1 20 0 0 
43 0 -1 105 0 0 -77 -1 -1 
26 0 -1 
v 3 1000 double
-235.23985509 24.659101206 -3.2568232791 -247.44224102 16.33711081 -14.289895227 -40.913618581 -5.4258604559 18.235046957 
-38.056415014 0.49959649155 23.988517719 -376.8565216 28.653204666 -3.4186883369 -287.61449885 -24.330912523 -2.7690418211 
-324.27486818 34.270227578 -21.561299536 -438.8766158 -16.680768468 1.924597548 -213.56311337 2.1473213204 1.5395351867 
-69.884374358 -11.098430618 -2.6156168513 -248.69035745 3.2144133289 2.8691513618 -361.61897495 10.637508539 15.359650029 
-129.7968275 -7.4721317524 14.582575302 -173.9399608 -11.930405409 -7.6840746622 -336.7053494 -18.651291065 7.7750925067 
-341.63752586 -8.1989652465 -2.2069688628 -394.81720849 12.450085837 -4.9476068243 -472.96670879 4.3665058568 22.670002316 
-270.31243811 -14.418095815 -9.2064535445 -74.886258818 2.0734236406 -1.7652327744 -251.06394547 0.47587430516 9.2061744708 
-339.4845044 13.557496725 4.3585369245 -422.48883731 -15.543486375 14.516174163 -325.15962878 -13.865298314 -21.712720231 
-312.69923922 -9.0530945814 -8.3528225543 7.299807773 -1.2167550387 -25.564679266 -136.40501817 -0.027892655315 22.460422236 
-22.607277398 -14.209274264 -12.822036572 -94.612186553 -6.5684931537 -12.141432759 -181.19055006 -27.503790279 4.874662623 
-74.248667351 4.5961376893 -10.001810933 -253.58087369 -40.586216042 7.9698327172 -9.9140787036 1.2296729084 -19.898841176 
-311.90530479 -9.0936993535 9.2840832375 -210.01110085 6.5943012643 7.1212174255 -101.54768688 10.334250597 -16.201149093 
-477.49006552 13.874961685 36.470455317 35.019219887 -12.251650251 3.2112002255 -469.8921781 -4.9467645407 -8.3426404922 
-276.29431785 14.403041651 -7.5338152931 4.3224070745 -4.2848328809 -4.7162517087 -177.99864127 1.972747567 24.6572039 
-58.629788059 -8.6239976994 18.61487897 11.465560877 12.422924668 -7.1119944177 -219.68427298 -1.246404476 -2.0159379467 
-78.392712978 6.3524654717 -3.8771489901 -308.18160339 -8.7957159204 10.786722499 -293.49220104 -2.2769331677 1.7222698199 
-159.50391674 -5.2049389122 18.748990586 -120.90838879 -2.8145823706 11.987220786 -241.4628748 -8.2563529996 4.3444492575 
-125.46474667 -1.0446472233 0.68526766758 -218.24639806 9.3438775415 -1.2254107741 -481.88860574 4.6003742849 -7.1337744056 
-200.77246802 1.3819893187 -3.6777771032 -300.56703649 8.7924553166 -17.585270865 -123.28288568 -14.047479279 16.256726982 
-229.04970194 -16.181480868 12.917548676 -124.78424894 8.9188077636 0.71011547705 -401.21263052 21.072353365 -8.3815337185 
-402.43506179 -4.467473908 -14.766886188 -199.68501651 -11.070024063 22.572979041 -321.29198084 1.415155585 -15.938929648 
-227.95629186 24.755835599 13.671328844 -388.6855033 10.343234451 -1.4402515452 -380.90672135 -12.360227554 -1.2293273916 
-318.96110107 4.6814222577 -3.0258513966 -536.71209642 21.858605672 -27.293697238 -159.74863488 -1.6070759607 7.7068542467 
-418.90228345 4.019272494 -3.8726952804 -491.05606281 -17.790351627 10.287931626 -133.63704616 1.77552351 24.998394323 
-85.518997132 -9.4541033364 -12.964058364 -481.25019562 -36.470929116 -21.807638229 -262.30911606 -18.505812424 -16.302403271 
-265.69149171 21.970363684 -8.2117594801 -149.60664137 11.401519894 -5.4374907416 -415.97938975 8.3475039264 17.280608801 
-405.17168038 10.807403729 25.949761082 -78.986419921 -5.1345600721 -0.27882403352 -261.0494162 23.488304967 28.50199346 
-87.242316631 21.24566011 -4.7536639444 -128.56338603 -6.3692464938 15.005418403 -97.489631129 -12.257118428 2.5173675758 
-62.664168341 -1.5781218847 -4.7263895044 -77.855613311 13.904056836 1.2999104617 -183.39758026 14.148157239 16.352141603 
-155.43839086 -31.728626825 25.071441409 -454.62067383 9.9863412515 5.3036915882 -294.30979974 -16.671911901 -19.031453533 
-400.97996565 11.422988062 3.6074688644 -199.58852549 -5.1660582579 -5.8738367474 -146.87328956 -1.702217566 -17.198153839 
-216.68236342 10.394025863 2.3943112223 -143.83438572 4.5582898104 32.422398071 -19.0180451 -4.8692156104 -11.456336292 
-283.90046768 -18.519315842 -4.8630558458 -307.51396462 -0.99557974442 -10.371113669 -97.697175067 6.3089354538 -7.6571914534 
-423.64945211 12.276520864 -23.371729859 -337.50717519 -7.1639674648 4.3482263868 -278.69697968 2.763649361 13.015826446 
-384.41067506 -25.505070416 22.70996948 -302.9162524 -1.5199469213 -13.025683197 -37.684033236 -1.5927099262 3.1656230429 
-409.48993209 33.982483595 -9.6786360665 -436.01819534 34.976538636 -16.797984888 -445.88423132 -1.3464468851 8.4389134931 
-59.670840661 -9.9507738075 -24.449077816 -475.94707431 22.070973946 -33.188669886 -516.38068911 17.886729316 7.3737942493 
-22.113453591 21.460478116 11.574970137 -332.19631421 0.22650733893 4.7923659052 -107.44299667 -14.820846462 13.393288983 
-211.47459573 8.8200965593 -8.5230300567 -285.64717051 -30.803373413 -32.315216597 -190.97651157 11.28617822 -0.54618639664 
-516.45739896 15.724396634 1.9188103293 -211.73590454 -3.0273898177 8.6978512802 -321.89080892 3.3134537559 -17.688319263 
-203.06262797 -15.53685977 -2.1356194863 -291.35528419 -25.297504143 9.4649085983 -274.13931778 -4.9289417083 12.694719223 
-362.98675626 16.515816884 -7.2568180762 -273.61418984 26.058616272 13.436212276 -271.93048747 -24.335968252 -16.119353422 
-275.00611886 12.380315777 31.187579652 -209.05561051 7.6868252264 -8.9082099946 -559.94486887 5.3967593162 -3.8242903545 
-40.734406895 -4.1468223158 5.703443501 -13.238906033 -22.855730479 27.664872856 -305.56325792 -4.7808381803 2.4648200407 
-128.30407047 3.8413448908 9.4572455445 -144.46017416 -10.556979761 15.755290125 -147.02207815 2.8278351317 -0.86232685987 