ITEM: TIMESTEP
28500
ITEM: NUMBER OF ATOMS
1000
ITEM: BOX BOUNDS xy xz yz pp pp pp
-4.54747e-13 10 -4.54747e-13
0 10 0
-0 10 0
ITEM: ATOMS id type type x y z ix iy iz vx vy vz fx fy fz omegax omegay omegaz radius 
804 2 2 1.33768 0.00810684 0.295308 -116 0 0 -519.198 5.17745 -3.50445 290.079 359.757 -472.957 0 0 0 0.5 
332 1 1 2.23577 0.626986 1.6869 -112 0 0 -457.139 1.36568 -15.4872 1343.26 -994.516 -890.842 0 0 0 0.5 
446 1 1 2.42522 3.71405 1.92785 -34 0 1 -147.176 14.2924 -16.3466 -36.1625 2570.45 -39.283 0 0 0 0.5 
38 1 1 1.51537 2.17486 1.77924 -62 0 1 -283.248 -7.50927 -12.2153 -486.51 1054.73 -445.257 0 0 0 0.5 
298 1 1 2.38426 0.816432 0.74857 -86 0 0 -408.28 -6.69181 -22.854 -1663.75 -602.152 1314.79 0 0 0 0.5 
908 2 2 2.03228 3.15247 1.16244 -61 0 1 -214.238 2.18797 -24.9021 -1284.79 241.06 -18.8147 0 0 0 0.5 
768 2 2 0.759542 2.3875 0.32912 -105 0 -1 -334.784 30.1254 -3.37682 716.501 -629.457 3155.73 0 0 0 0.5 
211 1 1 4.66428 1.34893 1.6438 90 1 0 -396.12 22.7228 -4.1998 -587.189 1075.23 -202.997 0 0 0 0.5 
386 1 1 1.86509 1.25694 0.15159 64 1 0 -394.105 -0.822313 -26.276 946.958 -442.148 -758.773 0 0 0 0.5 
766 2 2 4.62955 2.75532 0.670431 -60 0 1 -192.447 0.36832 -1.64037 1158.94 -450.25 -899.031 0 0 0 0.5 
467 1 1 1.69926 4.90883 0.529162 204 1 1 42.6244 -21.0497 -0.259766 -2231.15 862.285 639.943 0 0 0 0.5 
769 2 2 1.12871 1.71324 0.166495 -5 0 1 -384.662 -4.56643 -17.9897 -366.193 -268.486 569.414 0 0 0 0.5 
775 2 2 3.61137 1.66835 0.647028 -97 0 0 -279.147 -26.8213 -11.3983 133.559 447.065 -662.832 0 0 0 0.5 
541 2 2 0.425627 1.94726 1.7992 97 1 0 -292.56 -6.36353 4.05373 393.435 -527.147 1739.38 0 0 0 0.5 
941 2 2 1.3818 3.67393 0.146333 -8 0 0 -126.473 -0.188388 6.96009 -222.566 -462.307 -924.223 0 0 0 0.5 
767 2 2 3.433 1.46602 1.54146 -59 0 1 -302.352 -17.1892 -11.7002 -71.559 -2054.08 2486.86 0 0 0 0.5 
857 2 2 3.94125 3.96914 0.367805 -5 0 0 -60.5434 -13.6893 3.65912 2141.67 2586.14 1812.24 0 0 0 0.5 
19 1 1 1.59186 1.2154 1.82042 -63 0 0 -419.817 -3.41428 -16.8647 -1085.57 -514.94 2634.34 0 0 0 0.5 
157 1 1 0.987416 2.83393 1.02092 -41 0 1 -242.59 11.4239 4.47683 254.615 -650.418 -344.901 0 0 0 0.5 
486 1 1 1.27606 1.57558 1.09633 117 1 1 -330.429 -8.48548 -19.3904 -1013.6 1459.68 -2232.72 0 0 0 0.5 
797 2 2 0.274473 1.10308 0.480927 138 1 0 -394.144 -12.6852 -5.92917 -78.1762 -897.293 -565.872 0 0 0 0.5 
858 2 2 2.23484 4.31387 0.366647 -12 0 0 -17.9788 -30.4131 0.00267741 906.395 -1733.93 1113.13 0 0 0 0.5 
243 1 1 0.474394 2.81871 1.85647 -49 0 0 -214.152 1.64974 22.75 3128.68 169.143 -188.388 0 0 0 0.5 
830 2 2 4.1061 4.92773 0.369796 159 1 0 -12.6795 6.87622 4.44359 -1206.49 17.1459 1851.71 0 0 0 0.5 
358 1 1 2.76064 2.55755 1.26589 -26 0 0 -259.315 9.21383 -15.6105 2685.35 -126.725 -1410.2 0 0 0 0.5 
995 2 2 0.118024 0.187655 0.114039 -96 0 1 -474.839 -5.16349 -21.3299 320.315 616.721 -506.895 0 0 0 0.5 
526 2 2 0.141283 1.79907 1.00413 -81 0 1 -317.639 4.09577 15.4978 1456.32 -961.026 1392.48 0 0 0 0.5 
787 2 2 1.64549 3.92956 1.01414 -44 0 1 -161.688 24.7157 -4.99125 1546.55 2913.78 -1042.82 0 0 0 0.5 
416 1 1 3.11117 2.47714 0.0614093 -71 0 0 -233.201 -30.4892 -12.89 -532.619 541.009 -726.185 0 0 0 0.5 
721 2 2 3.35811 0.81249 0.654102 132 1 1 -442.236 -4.83823 24.9063 2311.5 242.299 -219.087 0 0 0 0.5 
323 1 1 0.903239 3.59935 1.47734 -153 -1 0 -145.661 8.26692 30.775 -7.11786 -794.511 557.608 0 0 0 0.5 
523 2 2 4.42146 0.469132 0.145873 -81 0 2 -474.59 32.3205 -11.8198 2.62584 1410.76 -97.9596 0 0 0 0.5 
902 2 2 4.01667 3.97034 1.46769 154 1 1 -113.185 1.37251 0.0630595 3393.59 -1448.01 -1591.79 0 0 0 0.5 
783 2 2 2.81645 1.77571 1.52578 -34 0 1 -329.959 -12.7704 -5.09853 -1326.9 1546.71 -2284.5 0 0 0 0.5 
67 1 1 4.04093 3.13506 1.35289 170 1 1 -169.949 -13.325 -6.38459 -21.3621 1327.66 622.582 0 0 0 0.5 
190 1 1 0.557987 3.90172 0.852675 -27 0 1 -137.405 27.8222 -5.63292 235.976 383.436 154.178 0 0 0 0.5 
175 1 1 2.73636 4.92547 1.188 10 0 0 10.3331 -9.61647 17.3135 -4458.59 2368.19 -1317.79 0 0 0 0.5 
218 1 1 0.0410216 3.6951 0.22212 25 0 0 -137.466 -3.26641 -16.7641 -238.263 -2141.01 557.174 0 0 0 0.5 
872 2 2 4.54813 4.68283 1.01131 -3 0 0 -29.6881 -13.9723 8.09741 -2480.02 -1224.12 2437.9 0 0 0 0.5 
171 1 1 4.10709 2.38064 1.62281 -21 0 0 -259.505 -25.3395 0.366588 135.828 -1548.86 554.157 0 0 0 0.5 
49 1 1 3.75648 2.50785 0.47061 -11 0 1 -202.586 1.47262 8.23955 -128.757 -652.299 232.13 0 0 0 0.5 
510 2 2 3.18659 4.33371 0.539803 -37 0 0 -30.8475 -7.18806 10.1223 99.3145 -2798.25 -269.104 0 0 0 0.5 
250 1 1 3.2729 3.29783 0.880974 -41 0 1 -177.321 7.97319 4.83745 -1375.22 -1106.47 1347.43 0 0 0 0.5 
839 2 2 0.268738 4.77573 1.29812 -35 0 1 -32.8376 0.723602 -0.140492 1507.05 -2383.49 1362.41 0 0 0 0.5 
976 2 2 3.59931 4.59342 1.38689 51 0 0 -49.4255 7.03537 -10.3593 2113.93 2001.48 1531.59 0 0 0 0.5 
219 1 1 4.77564 4.43132 0.115546 15 0 0 -60.8411 4.79002 -11.3036 1993.74 -1855.64 684.888 0 0 0 0.5 
9 1 1 4.69966 4.56815 1.96674 175 1 0 -58.7924 -6.16197 1.74023 544.473 47.8771 1359.57 0 0 0 0.5 
531 2 2 4.92081 3.49607 1.34479 -51 0 0 -158.522 5.51529 2.87223 -1027.63 796.425 -1531.02 0 0 0 0.5 
222 1 1 0.389106 1.0707 2.15804 164 1 1 -339.493 -21.5116 -0.627274 978.323 -931.94 -941.679 0 0 0 0.5 
662 2 2 1.41327 1.26596 2.94194 -45 0 1 -351.009 -16.3985 15.3264 -3227.7 -72.8943 2583.45 0 0 0 0.5 
745 2 2 0.914595 2.66062 2.94425 -9 0 1 -223.194 20.5877 2.8036 1311.73 142.088 -1523.88 0 0 0 0.5 
828 2 2 3.95366 3.82975 3.28506 -36 0 1 -126.458 2.5588 -14.2506 -1262.1 -1464.79 89.6889 0 0 0 0.5 
117 1 1 4.17394 0.246047 3.07898 -112 0 0 -546.699 7.63489 10.0089 1522.82 475.865 2849.79 0 0 0 0.5 
16 1 1 1.31576 3.57102 2.48442 -91 0 0 -160.429 25.3119 16.9958 184.56 954.46 493.595 0 0 0 0.5 
62 1 1 2.05429 3.36659 3.06291 -41 0 0 -148.723 0.850095 -1.92715 -314.608 -63.9058 169.197 0 0 0 0.5 
231 1 1 3.33424 4.38088 2.54961 -34 0 1 -64.4425 18.8879 25.8193 -777.33 921.99 2791.32 0 0 0 0.5 
282 1 1 1.76897 0.644646 3.43551 145 1 0 -370.684 -29.9595 22.2046 -927.615 -1410.05 1328.7 0 0 0 0.5 
79 1 1 2.05219 1.12749 2.5213 -69 0 1 -405.189 15.435 1.30415 1872.81 450.883 -1275.98 0 0 0 0.5 
75 1 1 1.15625 2.93901 3.90467 126 1 1 -192.293 9.15532 17.5191 -1929.54 2508.58 -851.57 0 0 0 0.5 
603 2 2 4.07622 2.47577 2.62362 130 1 0 -230.891 -12.9853 -4.41437 852.867 -1084.41 210.925 0 0 0 0.5 
331 1 1 1.81963 2.71225 3.67744 0 0 0 -183.807 -1.5521 -0.57638 -1846.23 -1834.73 443.231 0 0 0 0.5 
380 1 1 1.65907 2.86129 2.263 -38 0 1 -200.159 -1.14171 6.15304 549.088 -1223.44 -405.881 0 0 0 0.5 
350 1 1 2.59337 2.60243 3.44897 98 1 0 -199.829 -8.79672 3.69584 -1090.66 -639.052 522.019 0 0 0 0.5 
228 1 1 3.31858 3.07387 3.39628 -84 0 1 -194.95 23.1593 35.2447 1775.23 1130.31 479.926 0 0 0 0.5 
427 1 1 4.63955 3.25602 2.28264 -13 0 0 -205.552 12.3943 14.6564 -48.2562 60.985 103.953 0 0 0 0.5 
389 1 1 1.37818 1.9252 3.79165 -44 0 0 -309.368 10.0054 4.68296 438.961 2933.45 -805.542 0 0 0 0.5 
744 2 2 2.17993 0.316421 2.65166 94 1 0 -478.497 -10.6487 -14.5102 -697.343 -69.0003 -1157.85 0 0 0 0.5 
930 2 2 4.70254 4.69452 3.14672 -16 0 0 4.33501 -2.44167 7.35539 -1878.25 -544.93 -212.553 0 0 0 0.5 
677 2 2 2.32025 4.4537 3.05236 -19 0 1 -61.1279 -1.65837 -20.4532 -1185.41 276.672 -665.803 0 0 0 0.5 
158 1 1 2.3048 2.08029 2.27339 -6 0 1 -287.141 -2.09984 4.42905 -251.604 325.074 988.151 0 0 0 0.5 
647 2 2 1.04182 1.94312 2.63158 -67 0 0 -298.762 -9.92046 -18.3893 -747.168 862.061 -1055.78 0 0 0 0.5 
895 2 2 4.71806 3.52449 3.74327 -72 0 0 -144.831 -5.05584 -8.0694 1892.67 663.697 1420.71 0 0 0 0.5 
196 1 1 2.2511 1.7987 3.18226 156 1 0 -351.606 15.6386 13.9781 -1024.79 2034.77 -1258.96 0 0 0 0.5 
339 1 1 0.496698 1.67818 3.46526 -49 0 1 -301.579 -15.0743 -3.07592 -154.817 23.7026 -386.158 0 0 0 0.5 
600 2 2 3.7245 4.33965 3.91718 -28 0 1 -63.6357 13.8123 23.4765 3175.09 -2647.65 459.732 0 0 0 0.5 
503 2 2 2.16391 4.83322 2.03701 -19 0 0 -31.2751 -6.8222 6.11525 -2713.68 985.927 -248.21 0 0 0 0.5 
851 2 2 3.5276 0.876069 2.66624 -118 0 0 -461.28 16.7086 15.6923 937.502 -2342.25 217.252 0 0 0 0.5 
615 2 2 4.18237 1.05468 3.39572 119 1 0 -416.023 27.936 -16.5746 87.2939 -9.81708 606.097 0 0 0 0.5 
359 1 1 0.210204 4.28003 3.93238 -29 0 0 -19.9567 -14.3082 0.688755 -548.355 138.133 -766.627 0 0 0 0.5 
333 1 1 0.461161 3.80822 2.22804 -9 0 0 -161.077 8.35455 19.9194 -1493.03 522.486 659.968 0 0 0 0.5 
955 2 2 0.209356 4.81725 2.772 10 0 1 -32.5304 -2.2118 -3.16386 0 0 0 0 0 0 0.5 
722 2 2 0.347133 2.87175 3.60003 -85 0 0 -201.962 -9.97147 -4.7273 -2096.81 403.24 1241.16 0 0 0 0.5 
445 1 1 1.45577 3.86343 3.82021 -18 0 0 -70.7458 -8.61104 -13.5753 1079.45 -2809.5 397.188 0 0 0 0.5 
95 1 1 3.01055 4.29258 3.44008 -12 0 0 -68.5538 7.40204 18.0942 27.9033 -988.61 347.099 0 0 0 0.5 
186 1 1 2.96956 1.10976 2.12779 91 1 0 -458.132 -6.01939 -9.92478 3424.76 499.382 -1350.83 0 0 0 0.5 
966 2 2 3.13323 1.68316 2.76706 -45 0 1 -353.106 -4.38781 19.3957 -2108.47 2674.51 -582.159 0 0 0 0.5 
7 1 1 -0.0142481 2.57106 2.72345 -46 0 0 -229.14 -0.963591 -8.69965 317.11 225.113 484.503 0 0 0 0.5 
280 1 1 3.85296 0.201488 2.13394 -84 0 0 -512.436 22.8887 -20.1362 362.111 -855.133 789.488 0 0 0 0.5 
760 2 2 2.83829 4.5882 2.0987 -51 0 1 -31.0893 -6.26606 -11.9896 -62.2113 -1994.42 -319.2 0 0 0 0.5 
876 2 2 3.39618 2.43718 3.1054 -38 0 1 -246.424 -25.8549 13.6416 2988.49 -450.146 -985.93 0 0 0 0.5 
846 2 2 3.78319 4.01778 2.39482 -45 0 1 -85.7624 10.9257 -13.7822 2567.34 -1653.31 -621.769 0 0 0 0.5 
203 1 1 2.76106 0.191895 3.22609 -113 0 0 -496.991 14.5843 18.5212 -1424.51 1618.2 1587.47 0 0 0 0.5 
78 1 1 2.93152 3.53385 2.89173 8 0 1 -151.003 19.9394 -30.8027 277.475 1756.22 -1063.01 0 0 0 0.5 
367 1 1 2.58224 1.20574 3.59114 74 1 -1 -386.977 0.175083 10.6193 700.521 -9.19234 -600.062 0 0 0 0.5 
612 2 2 2.81975 2.96118 2.10562 -2 0 1 -209.075 -14.8427 -13.0581 437.723 -682.823 1425.36 0 0 0 0.5 
102 1 1 1.03002 4.60611 3.42026 0 0 -1 -7.9644 -10.4266 -14.266 237.401 -933.581 -1628.3 0 0 0 0.5 
142 1 1 3.71801 3.23122 2.31915 -79 0 0 -212.552 -8.56213 -4.65292 -657.569 647.024 -401.481 0 0 0 0.5 
542 2 2 4.74741 0.442771 2.5456 -162 0 1 -533.94 36.0118 -12.141 290.475 -924.694 103.869 0 0 0 0.5 
370 1 1 4.8595 4.0229 2.91287 -16 0 0 -114.847 -22.9033 -20.0182 -1202.74 -2613.07 305.766 0 0 0 0.5 
516 2 2 4.53223 3.59542 4.85409 -86 0 1 -130.699 -0.439147 34.3493 -1143.46 832.733 1414.14 0 0 0 0.5 
322 1 1 2.5468 1.28064 5.15796 58 1 0 -356.33 -12.3759 -14.5634 2765.18 -2768.51 -569.753 0 0 0 0.5 
951 2 2 3.26811 4.18191 4.7411 -35 0 0 -70.4293 9.19141 17.6054 -1278.49 -730.82 -255.298 0 0 0 0.5 
524 2 2 0.775777 1.8996 5.14515 -34 0 1 -313.816 5.0647 -8.82847 1444.11 227.325 180.839 0 0 0 0.5 
145 1 1 2.48259 0.25319 5.06522 116 1 0 -442.635 0.318254 1.27507 1198.55 730.859 3137.14 0 0 0 0.5 
378 1 1 2.67659 0.615227 4.20364 -110 0 0 -416.4 13.831 -0.765015 799.473 1141.23 208.552 0 0 0 0.5 
496 1 1 2.13554 3.33845 4.51462 94 0 0 -116.032 2.42438 -16.806 706.755 1149.86 -1602.61 0 0 0 0.5 
33 1 1 3.72872 2.25926 4.11035 168 1 0 -232.073 -17.8787 20.0406 -107.53 -37.8219 -215.037 0 0 0 0.5 
666 2 2 2.41289 4.19534 4.23817 23 0 0 -72.1435 7.67454 19.6364 17.6165 186.62 -85.0251 0 0 0 0.5 
773 2 2 0.456353 1.47816 4.37535 -53 0 0 -320.631 -17.4228 2.27474 -82.0859 -296.001 -192.121 0 0 0 0.5 
303 1 1 4.0437 0.421241 4.82299 116 1 0 -435.977 9.88773 -6.63599 -2156.65 -2343.83 134.783 0 0 0 0.5 
742 2 2 2.43079 3.9811 5.2939 6 0 -1 -65.1301 8.25896 -10.1892 215.436 869.677 -52.2644 0 0 0 0.5 
932 2 2 1.97307 1.81223 4.94023 -45 0 0 -285.282 -16.3853 33.6342 -3197.99 2396.59 -852.979 0 0 0 0.5 
743 2 2 1.594 3.6037 4.91207 -44 0 0 -76.642 -10.4058 18.8451 -1240.68 786 3386.26 0 0 0 0.5 
988 2 2 1.29671 3.3547 5.81533 33 0 0 -151.424 8.64746 11.5628 2265.15 -3660.6 -490.848 0 0 0 0.5 
618 2 2 2.06504 0.744062 4.48526 -44 0 1 -382.569 -18.8644 28.1798 -3854.65 351.126 -1043.41 0 0 0 0.5 
47 1 1 0.903117 0.41208 5.71697 -70 0 0 -426.082 -39.4461 6.80971 -400.712 -1876.56 -215.334 0 0 0 0.5 
856 2 2 0.729256 1.17193 5.71246 -117 0 0 -371.616 -0.140279 7.22654 270.082 -1179.71 -837.584 0 0 0 0.5 
345 1 1 1.24871 2.699 5.38574 125 1 0 -233.597 -10.2331 -6.1647 -1228.64 -996.923 310.569 0 0 0 0.5 
653 2 2 1.63172 2.45545 4.60258 176 1 0 -229.429 6.34546 -5.0326 859.504 -212.875 -59.9996 0 0 0 0.5 
15 1 1 4.15125 2.40787 4.9553 -68 0 1 -201.426 -8.33801 7.16036 -193.166 397.777 -846.035 0 0 0 0.5 
265 1 1 2.63111 2.65062 4.43691 -52 0 1 -198.83 -18.4204 9.65811 1898.26 -2654.23 -490.85 0 0 0 0.5 
748 2 2 3.52313 1.26945 5.16763 134 1 -1 -350.855 5.7222 7.62578 749.762 -507.839 -1608.43 0 0 0 0.5 
778 2 2 0.163397 2.51491 5.59175 -121 0 1 -249.877 24.2251 11.6471 -542.291 461.62 791.778 0 0 0 0.5 
394 1 1 1.38637 0.950037 5.05723 90 1 -1 -365.406 -13.5823 29.6545 -1119.74 -588.451 1186.53 0 0 0 0.5 
780 2 2 4.37505 1.46189 5.54425 -126 0 0 -341.193 -9.23219 6.51338 151.447 -163.361 1.36778 0 0 0 0.5 
258 1 1 3.06977 0.180326 4.19616 -74 0 1 -455.469 2.23274 25.8713 4344.67 -1560.2 575.516 0 0 0 0.5 
326 1 1 1.7912 4.47806 5.35523 -19 0 0 -21.0266 -0.105899 -2.9653 -955.42 -4.61454 1233.76 0 0 0 0.5 
64 1 1 0.0821132 4.11288 5.05691 56 0 -1 -28.774 -18.1419 13.2268 -289.862 -345.065 -150.357 0 0 0 0.5 
741 2 2 3.71057 3.39124 4.23241 -93 0 0 -116.389 -3.81569 7.02456 125.053 702.288 79.0595 0 0 0 0.5 
46 1 1 0.913344 3.87854 5.9729 89 0 0 -89.322 25.7222 6.75891 -937.594 3260.15 1061.64 0 0 0 0.5 
488 1 1 3.0603 2.31553 5.85674 -88 0 1 -245.3 -6.18942 -28.6944 -292.161 80.4061 -894.036 0 0 0 0.5 
992 2 2 2.04764 2.64159 5.89243 -114 0 0 -215.203 11.8048 -22.2076 -650.227 396.413 926.296 0 0 0 0.5 
652 2 2 2.92803 1.20413 5.81641 -4 0 0 -371.071 -3.99961 -19.0997 -388.726 -321.623 228.851 0 0 0 0.5 
792 2 2 0.918906 4.13241 4.53643 125 1 0 -34.8173 -1.49105 8.39785 -678.267 1185.73 457.998 0 0 0 0.5 
827 2 2 3.85147 4.04619 5.50903 -39 0 0 -69.5485 8.43029 -9.49878 1608.35 -1215.43 11.6648 0 0 0 0.5 
625 2 2 4.64543 1.90444 4.57429 -13 0 0 -226.335 -0.818599 -15.9702 -231.304 2502.96 -20.4701 0 0 0 0.5 
987 2 2 1.67028 1.30504 4.09482 110 1 0 -337.378 -12.3928 29.7777 -914.013 796.445 -976.083 0 0 0 0.5 
672 2 2 -0.00600048 4.05974 5.98343 -22 0 -1 -72.5411 2.01066 18.6429 -1715.33 319.771 259.969 0 0 0 0.5 
11 1 1 0.812044 4.95082 5.72949 -18 0 -1 50.078 -39.0684 15.7698 -330.696 -1779.8 -130.819 0 0 0 0.5 
579 2 2 3.53964 2.87451 5.04483 -25 0 0 -194.086 -6.68909 -5.26106 973.423 -972.591 -13.6828 0 0 0 0.5 
189 1 1 3.57572 1.03151 4.29214 124 1 0 -416.823 23.8718 -32.2842 -855.011 -1312.42 523.775 0 0 0 0.5 
948 2 2 2.9995 3.33179 5.09612 163 1 0 -155.331 6.23645 15.4039 91.2759 146.252 -1047.08 0 0 0 0.5 
635 2 2 3.33291 4.76774 5.86537 -198 -1 0 -7.91291 8.23898 13.9017 -1008.61 372.341 343.319 0 0 0 0.5 
756 2 2 3.48955 0.399206 5.57937 -50 0 1 -436.427 -13.0227 -2.90985 -81.3011 996.04 756.668 0 0 0 0.5 
154 1 1 4.46504 4.36971 4.62558 4 0 0 -56.6391 10.1795 9.23467 775.913 -1188.61 680.273 0 0 0 0.5 
514 2 2 4.52514 3.25879 5.81219 -53 0 0 -123.51 2.84699 -14.0941 -455.399 278.49 -590.111 0 0 0 0.5 
798 2 2 4.54852 0.357872 5.63471 -126 0 0 -465.256 33.813 -5.25457 384.796 1311.26 621.796 0 0 0 0.5 
506 2 2 4.53768 2.23295 5.8599 -73 0 0 -271.278 7.72585 -4.55586 -387.759 2020.14 157.388 0 0 0 0.5 
293 1 1 4.78578 1.19572 4.57874 -102 0 0 -382.992 -13.6197 13.4942 1484.57 -178.758 -2751.18 0 0 0 0.5 
659 2 2 4.51456 0.412782 4.0034 -65 0 0 -449.081 -1.89153 14.0935 -1067.73 2089.31 -4088.47 0 0 0 0.5 
39 1 1 4.91462 3.00051 4.55586 -78 0 0 -175.482 -13.0412 18.2684 197.465 -655.379 -678.893 0 0 0 0.5 
862 2 2 1.81859 4.99739 4.47874 -33 0 0 58.0234 -13.7691 0.728939 897.936 -377.661 -106.564 0 0 0 0.5 
433 1 1 4.96508 2.95089 5.59434 113 1 -1 -116.371 -11.6642 -33.121 1247.75 -3612.22 -472.688 0 0 0 0.5 
838 2 2 4.91129 4.94514 5.4486 8 0 1 -2.84637 7.05655 20.6498 0 0 0 0 0 0 0.5 
632 2 2 4.09921 3.56571 6.20188 22 0 -1 -105.423 6.27733 18.4796 -444.772 504.408 978.112 0 0 0 0.5 
702 2 2 1.84662 0.860827 7.92665 128 1 0 -406.402 -0.972443 -19.9388 -2283.84 1704.69 -636.98 0 0 0 0.5 
205 1 1 0.810596 2.77888 6.45093 -113 0 -1 -191.839 -18.9526 -8.78382 741.796 2013.9 247.134 0 0 0 0.5 
208 1 1 0.418298 1.85259 6.11462 -2 0 0 -295.063 -0.866394 13.764 -702.148 1637.48 1914.09 0 0 0 0.5 
709 2 2 2.55648 0.327734 7.99023 84 1 0 -461.684 -5.48403 5.98525 1541.68 -1794.17 274.612 0 0 0 0.5 
229 1 1 2.14799 0.0452122 7.10311 -81 0 0 -464.06 -9.98866 1.45281 0 0 0 0 0 0 0.5 
56 1 1 2.49072 2.3883 6.65774 -34 0 0 -223.736 -10.3344 -18.9619 1456.6 -640.861 1049.32 0 0 0 0.5 
182 1 1 4.74303 4.63907 7.21278 55 0 -1 32.2654 -31.0808 -8.80767 -372.581 -1881.49 673.255 0 0 0 0.5 
399 1 1 4.32832 1.04495 7.39428 -91 0 -1 -360.848 -11.9069 14.2362 -1370.46 1817.66 2363.18 0 0 0 0.5 
375 1 1 1.41167 0.677634 6.33203 103 1 -1 -438.038 20.8794 37.0922 1055.53 -3698.26 -1250.7 0 0 0 0.5 
940 2 2 2.23954 3.79292 6.16456 21 0 -1 -85.9199 -4.32056 -13.1051 -105.831 -29.5439 1107.12 0 0 0 0.5 
800 2 2 3.14865 3.9699 7.56039 188 1 -1 -59.8573 9.95615 1.62866 147.691 1135.81 1423.97 0 0 0 0.5 
568 2 2 2.66672 1.27625 6.47147 -43 0 0 -318.306 -19.6754 12.0437 -1609.93 129.336 1774.29 0 0 0 0.5 
671 2 2 1.66246 2.81265 6.74273 -6 0 0 -187.919 6.62036 32.1097 -649.109 525.621 -876.83 0 0 0 0.5 
167 1 1 0.288492 0.562646 7.46377 118 1 -1 -451.931 4.72155 -21.7045 864.956 -2571.25 -22.7327 0 0 0 0.5 
863 2 2 1.95586 1.95925 7.70613 -32 0 0 -278.33 -3.3103 3.33369 110.749 -41.078 -33.52 0 0 0 0.5 
290 1 1 1.11908 1.58637 6.60949 117 1 0 -280.451 -7.16883 29.5246 -1280.2 3679.19 1033.79 0 0 0 0.5 
438 1 1 1.71782 3.27121 7.69218 23 0 -1 -188.259 21.3911 -9.90215 -577.027 515.108 -600.53 0 0 0 0.5 
148 1 1 2.43306 4.78587 6.36094 -17 0 0 3.38443 2.16265 -7.95701 2471.97 -987.055 1104.9 0 0 0 0.5 
620 2 2 2.3514 2.86099 7.43423 0 0 0 -160.736 -9.77523 20.9353 -550.753 -856.246 -856.136 0 0 0 0.5 
592 2 2 3.48214 3.86932 6.7195 -21 0 -1 -111.395 16.7651 -9.70275 -1209.18 1091.48 -408.376 0 0 0 0.5 
485 1 1 1.07736 2.2851 7.97202 -81 0 1 -284.987 0.152334 -13.4976 120.41 -998.641 -966.809 0 0 0 0.5 
74 1 1 0.153442 2.88438 7.99434 25 0 0 -196.899 11.4032 -19.36 163.792 -2122.79 185.255 0 0 0 0.5 
105 1 1 4.87882 0.572656 6.83574 86 1 0 -456.256 13.2837 8.21108 1374.46 -2943.69 -4453.45 0 0 0 0.5 
740 2 2 3.63932 2.73044 7.92116 -49 0 0 -184.811 -26.2465 7.55494 -2164.93 2119.11 1398.53 0 0 0 0.5 
806 2 2 2.31623 4.02563 7.13368 -70 0 0 -51.045 -11.7833 -4.85301 -890.766 -53.1824 -897.665 0 0 0 0.5 
794 2 2 3.3268 1.39859 7.00313 39 0 0 -308.491 26.2615 6.38692 -222.626 1809.42 1321.73 0 0 0 0.5 
845 2 2 3.23699 3.17575 7.47498 -23 0 0 -163.839 -14.2255 -14.6142 -1783.3 358.183 -247.874 0 0 0 0.5 
810 2 2 1.15292 4.79756 6.82573 47 0 0 -3.47026 -1.80118 11.5885 360.302 -265.431 -611.755 0 0 0 0.5 
501 2 2 4.25856 1.75507 6.67122 95 1 0 -284.581 -7.5792 0.196153 -2577.05 1346.91 -413.252 0 0 0 0.5 
901 2 2 3.26892 0.0541 6.96193 -79 0 -1 -463.954 -8.88435 -15.7371 -2479.03 3488.51 1733.17 0 0 0 0.5 
613 2 2 1.06231 4.16887 7.67027 -34 0 0 -60.9114 16.3603 4.70463 193.448 597.293 -340.553 0 0 0 0.5 
242 1 1 3.9464 3.15445 7.02247 -198 -1 0 -151.616 -2.37719 18.2622 -3197.13 2226.05 405.141 0 0 0 0.5 
551 2 2 3.26486 4.88053 7.33816 0 0 0 44.0991 -0.172384 -13.2549 25.8583 202.638 -49.4512 0 0 0 0.5 
251 1 1 3.45463 0.789444 7.31832 -34 0 0 -361.267 -12.6127 19.4797 -870.409 299.763 -1651.42 0 0 0 0.5 
287 1 1 4.56285 2.81137 6.88951 125 1 0 -222.1 19.8511 -32.5584 2907.31 -107.396 -3049.45 0 0 0 0.5 
352 1 1 4.08547 1.90966 7.6009 -61 0 0 -291.716 5.68887 14.1168 1756.63 -2766.34 -1636.55 0 0 0 0.5 
415 1 1 0.9497 3.53766 6.96949 1 0 -1 -98.0481 4.28981 13.8554 -280.432 -1533.53 -1108.93 0 0 0 0.5 
434 1 1 4.05264 0.443101 6.46695 -69 0 0 -458.426 11.6569 8.77222 -2438.97 -178.604 -492.443 0 0 0 0.5 
165 1 1 4.26057 3.93347 7.58253 55 0 -1 -58.2877 -22.3888 -21.86 208.4 1176 -1158.9 0 0 0 0.5 
246 1 1 3.5331 0.211254 7.94535 143 1 0 -476.089 9.66355 15.8547 930.546 -443.484 2337.9 0 0 0 0.5 
267 1 1 3.65479 1.06801 6.25069 -118 0 0 -384.526 21.3993 -15.8814 438.597 1308.34 -1827.26 0 0 0 0.5 
675 2 2 3.6518 2.19135 6.4975 -36 0 0 -272.623 10.7224 10.5654 -1305.68 1409.43 -74.9612 0 0 0 0.5 
646 2 2 4.95025 2.34356 7.21037 -43 0 0 -288.828 7.83852 -9.47134 596.523 -1147.29 1008.7 0 0 0 0.5 
314 1 1 0.143333 1.94205 9.77172 -62 0 0 -320.92 -8.13265 -7.01027 -1235.71 763.751 -502.365 0 0 0 0.5 
400 1 1 0.339836 1.51231 8.40281 -92 0 -1 -350.851 -19.9159 -24.5784 1740.01 -646.003 3117.36 0 0 0 0.5 
644 2 2 4.29036 2.79911 8.48049 211 1 0 -201.206 6.18441 10.2278 -42.7358 1512.26 -93.5042 0 0 0 0.5 
530 2 2 3.71704 1.24333 9.60456 -44 0 1 -385.575 9.35791 26.8452 2.53285 -255.654 20.3071 0 0 0 0.5 
307 1 1 1.41607 0.347559 9.49098 141 1 -1 -491.238 17.6191 -8.4446 108.491 388.628 -433.3 0 0 0 0.5 
118 1 1 0.321794 0.478192 9.22972 124 1 0 -416.802 -28.0164 -19.7325 1638.11 -824.969 462.055 0 0 0 0.5 
431 1 1 3.79177 0.537565 8.82281 -69 0 -1 -423.422 0.208348 -4.41667 133.446 -186.173 -95.4529 0 0 0 0.5 
348 1 1 2.03539 3.54653 9.17323 -12 0 0 -116.398 -11.1331 11.9571 -1761.03 -1305.55 -531.984 0 0 0 0.5 
383 1 1 0.290357 2.26391 8.8936 -48 0 0 -296.512 11.1056 -14.0843 1885.77 -150.598 -1111.02 0 0 0 0.5 
450 1 1 0.385319 2.83109 9.59904 76 1 -1 -235.29 1.97569 7.45291 -1470.07 814.437 -2404.06 0 0 0 0.5 
522 2 2 2.44611 4.45619 9.44456 -13 0 0 -43.0238 20.5918 -2.39604 -1017.91 2098.15 -367.189 0 0 0 0.5 
492 1 1 0.710665 1.56426 9.28042 -118 0 0 -359.261 -7.89665 -8.82694 2208.24 -2738.57 -2141.4 0 0 0 0.5 
974 2 2 0.935635 2.92256 8.58533 250 1 0 -207.24 -16.3667 10.1941 -1470.43 -1061.35 1569.2 0 0 0 0.5 
141 1 1 2.44386 1.02016 9.20123 -24 0 0 -366.533 -13.0944 5.23692 0 0 0 0 0 0 0.5 
17 1 1 1.84921 3.04052 8.49847 -76 0 0 -196.021 1.80528 -0.287292 -43.5323 -620.96 580.003 0 0 0 0.5 
468 1 1 4.66204 4.59711 8.33071 12 0 0 27.6781 -10.6192 -18.3343 -1168.79 -55.0772 -1889.06 0 0 0 0.5 
651 2 2 4.65208 3.64838 8.26614 30 0 -1 -75.6968 -26.4804 4.70789 199.798 -450.457 834.806 0 0 0 0.5 
621 2 2 3.71236 4.77263 8.23288 6 0 0 19.4058 0.0415339 15.5893 58.3755 -10.7888 6.01308 0 0 0 0.5 
656 2 2 1.74719 2.22046 8.91916 -67 0 0 -297.15 -9.35705 -7.08485 -123.613 225.4 -202.53 0 0 0 0.5 
418 1 1 3.72644 0.29506 9.67988 -84 0 0 -479.824 -8.19976 -3.25965 -903.628 -141.269 57.6922 0 0 0 0.5 
23 1 1 1.46311 1.16391 8.51747 -85 0 0 -366.586 3.36968 48.233 -265.265 209.64 408.662 0 0 0 0.5 
999 2 2 2.48584 2.04997 9.44203 -28 0 -1 -295.839 -11.6253 10.9288 196.142 245.007 1267.36 0 0 0 0.5 
311 1 1 3.40147 4.42491 9.46002 -14 0 0 -35.2668 -7.53429 -1.59484 -586.438 -2850.27 963.246 0 0 0 0.5 
225 1 1 4.77785 0.224225 9.26043 -57 0 0 -491.611 8.9197 -7.70755 -2898.49 1497.31 -1027.3 0 0 0 0.5 
132 1 1 1.75412 4.50529 8.28398 64 0 0 -36.6804 1.66407 -5.27547 355.931 750.361 334.972 0 0 0 0.5 
40 1 1 0.632252 3.58029 9.7405 -14 0 0 -138.483 16.5426 -23.2831 1566.1 -964.458 -1592.56 0 0 0 0.5 
591 2 2 4.33248 4.6508 9.5664 -172 -1 0 -29.1195 -12.0338 -16.4201 -1017.62 -1199.79 -1312.71 0 0 0 0.5 
983 2 2 1.54181 4.16829 9.4044 15 0 -1 -49.0401 2.67675 9.07204 -1539.32 2486.99 1085.72 0 0 0 0.5 
442 1 1 0.855054 4.31857 8.7802 9 0 -1 -43.2269 23.1487 5.26946 1522.15 -2927.79 -711.631 0 0 0 0.5 
998 2 2 3.22565 3.90571 8.49208 -129 0 0 -115.057 5.78262 8.78037 39.0411 -32.5453 472.426 0 0 0 0.5 
750 2 2 4.18124 1.30216 8.39865 -87 0 0 -331.904 -17.4904 23.4039 -3986.03 1719.1 -1704.37 0 0 0 0.5 
608 2 2 3.60444 3.09961 9.01319 -34 0 0 -173.322 5.66442 1.22836 -1295.41 709.087 1271.72 0 0 0 0.5 
577 2 2 2.98015 1.63351 8.03867 112 1 -1 -335.473 -5.89167 -39.4759 58.6174 -209.1 -326.508 0 0 0 0.5 
61 1 1 4.77307 2.85138 9.28361 -102 0 0 -191.946 15.2155 2.75706 25.4511 1825.27 -360.552 0 0 0 0.5 
697 2 2 0.621561 4.54259 9.84289 -26 0 -1 -46.2645 9.95696 0.197627 -6.59438 593.577 63.1577 0 0 0 0.5 
291 1 1 4.12571 1.96577 9.04263 -81 0 0 -282.158 0.462842 2.19998 -59.5935 712.242 691.17 0 0 0 0.5 
420 1 1 0.97507 3.65459 8.41278 4 0 0 -114.522 0.908245 -7.35086 234.885 -662.249 -421.06 0 0 0 0.5 
566 2 2 3.29367 3.31343 9.94331 183 1 0 -149.534 -1.26449 13.4057 -256.443 -2408.67 1214.33 0 0 0 0.5 
956 2 2 4.14752 3.38763 9.72838 -67 0 0 -167.921 13.1131 5.25642 1765.37 -1205.34 -2151.94 0 0 0 0.5 
968 2 2 2.86003 2.06199 8.70775 159 1 0 -300.297 15.4877 -10.9623 682.529 -2326.73 -681.168 0 0 0 0.5 
2 1 1 2.72121 3.03467 8.80962 -18 0 0 -178.051 -14.2915 -13.0307 1213.72 1660.95 -229.126 0 0 0 0.5 
138 1 1 2.82372 3.68726 9.50354 -39 0 0 -130.621 -3.0201 0.0180388 2584.27 988.988 -1315.29 0 0 0 0.5 
960 2 2 4.99168 0.773379 8.61894 138 1 0 -423.79 -0.521556 -2.61429 -127.011 -1076.43 2204.94 0 0 0 0.5 
670 2 2 1.89986 9.43784 0.60951 -30 -1 1 471.747 -2.85057 -7.54421 -151.211 1289.96 1118.35 0 0 0 0.5 
906 2 2 0.375309 7.89989 0.602864 66 0 0 332.228 4.51003 -6.99818 43.4309 1793.38 712.597 0 0 0 0.5 
477 1 1 1.06377 8.77006 1.31441 86 0 0 386.756 18.7899 24.1393 -112.649 -183.889 1273.6 0 0 0 0.5 
259 1 1 0.365704 9.91828 1.74633 -91 -1 -1 539.258 -15.9996 8.33276 -189.672 -935.643 943.111 0 0 0 0.5 
979 2 2 2.85914 7.8668 0.671704 71 0 1 277.481 11.9945 -6.66142 746.445 2215.93 -2190.33 0 0 0 0.5 
678 2 2 0.0374109 7.78381 1.52218 3 0 0 297.059 -16.9979 -16.8685 3298.82 -1488.05 -443.109 0 0 0 0.5 
680 2 2 3.87894 9.58417 1.35953 -96 -1 0 425.959 14.5612 -6.96407 399.873 -353.095 -721.377 0 0 0 0.5 
977 2 2 0.52417 9.95804 0.848128 75 0 0 494.274 -8.56169 4.7708 -470.847 -157.085 116.159 0 0 0 0.5 
822 2 2 2.65873 8.27797 1.73009 -53 -1 1 363.596 -23.2162 16.9395 -1754.66 4253.07 -293.275 0 0 0 0.5 
497 1 1 3.17985 9.06792 0.828887 146 0 1 416.346 2.31773 -14.6123 -1376.78 192.25 -1041.43 0 0 0 0.5 
279 1 1 3.80899 6.59409 0.57653 275 1 0 152.591 -8.72999 6.13273 -544.108 -1839.3 903.837 0 0 0 0.5 
234 1 1 4.27646 5.48151 1.09448 -65 0 0 30.89 11.1509 11.6668 -377.617 1404.93 100.764 0 0 0 0.5 
841 2 2 2.6633 6.5228 0.0189472 44 0 0 195.516 4.20363 9.05514 768.849 308.565 -406.346 0 0 0 0.5 
576 2 2 3.62344 7.62091 1.26527 64 0 0 185.625 23.1226 -4.17297 5064.45 -1069.73 189.317 0 0 0 0.5 
419 1 1 0.163548 8.83318 1.46078 72 0 0 384.441 11.5652 24.171 884.07 -243.147 1449.95 0 0 0 0.5 
815 2 2 2.73255 9.75229 1.22874 92 0 0 465.099 17.6451 0.640304 -291.149 452.704 -1257.78 0 0 0 0.5 
296 1 1 2.56254 5.93121 0.996965 38 0 -1 58.9505 10.3345 -0.966888 352.088 -2864.85 466.411 0 0 0 0.5 
574 2 2 2.76771 7.37683 1.45442 -7 0 1 206.571 15.2569 -3.16743 2218.48 -5025.67 857.219 0 0 0 0.5 
727 2 2 4.46223 6.31727 1.3275 -43 0 1 105.784 26.0793 0.266298 900.895 -596.811 -722.469 0 0 0 0.5 
563 2 2 4.73686 7.42962 1.00832 13 0 1 128.514 27.3166 8.18847 157.538 1964.25 -1121.28 0 0 0 0.5 
108 1 1 3.49706 8.62142 1.50924 -109 -1 1 377.263 0.181881 -2.47507 785.291 -2867.66 664.508 0 0 0 0.5 
686 2 2 2.41614 7.34944 0.0440691 32 0 0 212.146 18.8962 18.2562 2422.61 -3985.46 -3564.31 0 0 0 0.5 
570 2 2 2.07385 7.3387 1.77937 -163 -1 1 199.86 10.6754 -11.9841 18.1359 443.052 -1634.39 0 0 0 0.5 
820 2 2 1.70638 9.70061 1.38571 -80 -1 0 493.219 9.31092 -11.7797 139.741 697.836 484.052 0 0 0 0.5 
578 2 2 1.47595 8.51628 0.617089 68 0 0 362.479 3.65882 17.9484 -1770.71 818.588 -1462.87 0 0 0 0.5 
252 1 1 2.35488 8.17517 1.04064 106 0 1 298.339 12.2951 21.7822 -2872.74 3687.98 531.909 0 0 0 0.5 
447 1 1 1.64012 5.81118 0.566294 57 0 1 123.162 -30.6689 -13.5814 2223.53 -248.733 -1565.33 0 0 0 0.5 
849 2 2 1.80858 7.2701 0.766819 15 0 1 233.723 -0.765304 9.9293 -785.268 567.298 881.789 0 0 0 0.5 
537 2 2 2.36452 8.89838 0.0848232 93 0 1 404.63 -8.33513 6.16955 3297.94 -270.202 -2700.5 0 0 0 0.5 
14 1 1 0.52571 5.5899 0.438507 10 0 1 79.6141 -14.9456 -19.8699 0 0 0 0 0 0 0.5 
365 1 1 3.87848 8.90265 0.519212 -122 -1 0 421.526 -2.04386 -29.2181 1124.68 -190.257 -1010.6 0 0 0 0.5 
133 1 1 4.41504 8.6422 1.18359 104 0 1 385.512 -7.30491 12.3476 -1.41986 -229.691 301.527 0 0 0 0.5 
209 1 1 0.60059 6.8361 1.60743 -157 -1 0 200.123 -16.5343 -12.4076 -2614.59 117.234 -1288.05 0 0 0 0.5 
993 2 2 1.1446 6.30321 0.969256 28 0 1 191.804 -23.057 -7.42507 -4330.08 2082.78 206.764 0 0 0 0.5 
507 2 2 2.73332 9.06777 1.93446 -87 -1 0 428.781 14.0184 3.47224 -2326.19 -1672.54 -1422.57 0 0 0 0.5 
776 2 2 2.5601 9.84994 0.135751 -85 -1 1 473.765 33.3101 -9.20346 -584.871 -2548.61 -83.8112 0 0 0 0.5 
990 2 2 3.3897 5.47232 1.68285 7 0 0 0.297889 21.4048 -5.41002 -2042.73 1518.86 -1193.77 0 0 0 0.5 
455 1 1 3.82176 6.53776 1.75993 13 0 0 98.6684 18.2857 20.5473 439.848 401.133 -2959.19 0 0 0 0.5 
170 1 1 0.960319 7.83261 1.39784 98 0 0 318.672 2.61708 8.50362 726.282 -339.936 -2368.09 0 0 0 0.5 
919 2 2 1.93178 8.99347 1.82759 -63 -1 0 424.543 -24.6449 3.28724 -1333.01 -497.114 33.5726 0 0 0 0.5 
413 1 1 -0.018981 5.59374 1.47356 -40 0 0 37.7969 14.4486 -12.5184 1942.88 216.871 -855.359 0 0 0 0.5 
81 1 1 1.37628 6.95715 1.66809 30 0 1 194.532 4.55694 3.67485 527.88 -473.843 817.118 0 0 0 0.5 
458 1 1 1.67243 6.24819 1.48951 40 0 0 155.707 -25.9098 -2.36 1402.86 -2317.92 684.924 0 0 0 0.5 
518 2 2 4.85066 9.62851 1.40062 -130 -1 0 434.694 8.25794 9.93733 -999.564 5.79647 2301.25 0 0 0 0.5 
63 1 1 1.92667 8.07567 0.478384 63 0 0 337.592 -19.0198 -27.0223 -5150.55 3693.45 -402.969 0 0 0 0.5 
430 1 1 1.55132 5.36091 1.43256 -20 0 1 65.1857 -32.7148 -1.81895 57.102 281.915 -591.549 0 0 0 0.5 
571 2 2 0.992412 7.20456 0.800281 34 0 1 250.336 -21.7319 2.64397 -2140.69 -519.247 -880.076 0 0 0 0.5 
178 1 1 1.73127 6.5272 0.171492 23 0 0 201.639 9.50785 -21.1206 -298.668 -236.306 984.157 0 0 0 0.5 
305 1 1 2.45113 6.8378 0.849367 61 0 0 214.796 -10.156 13.6886 1633.67 1283.61 -357.528 0 0 0 0.5 
512 2 2 2.72687 5.14435 0.29591 37 0 0 69.5511 -20.1054 15.1084 -4835.53 -420.645 427.877 0 0 0 0.5 
832 2 2 3.25879 7.2413 0.441198 -27 0 0 208.461 7.07863 -10.9141 1133.65 -1597.4 -772.448 0 0 0 0.5 
448 1 1 4.6482 6.57689 0.376989 -2 0 1 132.059 11.2759 -14.4377 2307.12 -32.8416 -714.958 0 0 0 0.5 