ITEM: TIMESTEP
2000
ITEM: NUMBER OF ATOMS
1000
ITEM: BOX BOUNDS xy xz yz pp pp pp
0 10 0
0 10 0
-0 10 0
ITEM: ATOMS id type type x y z ix iy iz vx vy vz fx fy fz omegax omegay omegaz radius 
768 2 2 2.64107 1.40799 0.15718 0 0 0 -83.1184 -3.68062 3.95038 -3520.32 4098.11 546.582 0 0 0 0.5 
359 1 1 4.71092 2.81081 0.281404 0 0 0 -23.2932 2.00938 1.56603 150.985 -570.089 622.181 0 0 0 0.5 
771 2 2 3.2814 2.29243 0.765662 0 0 0 -36.3906 -10.934 -6.65407 -532.055 1002.28 -28.5468 0 0 0 0.5 
257 1 1 2.64837 2.87727 1.92296 0 0 0 -14.5576 -1.68552 -0.62509 -27.9495 -277.718 130.754 0 0 0 0.5 
732 2 2 0.303127 0.312543 1.75286 -8 0 1 -457.766 -6.55615 15.2701 9267.86 7695.14 -1646.94 0 0 0 0.5 
492 1 1 0.052221 0.216923 0.803747 -2 0 1 -394.926 -8.063 -6.14007 -3289.46 1282.65 -231.168 0 0 0 0.5 
25 1 1 4.38241 0.910469 1.60488 -4 0 0 -263.203 -4.59732 15.7706 1178.77 -372.087 -2348.18 0 0 0 0.5 
525 2 2 3.7592 1.42508 0.823747 -1 0 0 -78.5632 -11.7235 -17.9049 555.84 -1009.01 67.5718 0 0 0 0.5 
616 2 2 2.73475 4.25344 1.6426 0 0 0 -4.34681 3.41557 0.603043 20.0822 -147.372 98.2246 0 0 0 0.5 
431 1 1 4.64361 2.51983 1.95429 0 0 0 -34.0683 3.67601 -9.75993 -654.957 -673.837 646.09 0 0 0 0.5 
747 2 2 0.698955 1.05738 1.56184 -5 0 1 -241.522 -6.37814 -25.1059 142.312 -8355.05 -1044.74 0 0 0 0.5 
654 2 2 0.456296 1.5497 1.75798 -2 0 1 -125.154 23.1617 -14.462 722.688 2456.29 802.277 0 0 0 0.5 
272 1 1 0.572965 0.6213 0.704384 -9 0 0 -458.599 59.3783 -38.5028 505.021 2507 -492.197 0 0 0 0.5 
279 1 1 3.47644 0.460976 0.43632 14 1 0 -254.038 -17.6066 8.00539 -3404.7 2322.32 3332.25 0 0 0 0.5 
376 1 1 3.00582 3.21609 1.04211 0 0 0 -18.9711 -5.08304 2.134 2.28969 10.4394 94.4991 0 0 0 0.5 
99 1 1 2.55718 4.86892 0.928549 0 0 0 2.83026 0.553764 -1.55256 350.237 -141.826 -283.392 0 0 0 0.5 
103 1 1 2.77446 4.01253 0.514761 0 0 0 -8.88598 -0.841929 -3.15832 -122.156 -200.64 251.147 0 0 0 0.5 
387 1 1 3.18726 0.772144 0.0723749 -1 0 0 -211.766 -11.4224 -42.9671 2732.2 -966.498 -3600.94 0 0 0 0.5 
755 2 2 1.64202 2.08251 1.06855 0 0 0 -35.196 -14.0058 -1.20653 127.893 -52.9633 106.203 0 0 0 0.5 
378 1 1 2.20135 2.92539 0.324252 0 0 1 -20.0643 -5.58361 -3.64123 202.573 -2.99438 -87.9365 0 0 0 0.5 
629 2 2 2.0344 3.11449 1.2542 0 0 0 -22.0611 -12.4999 -0.0440873 20.5712 -46.6297 21.1326 0 0 0 0.5 
91 1 1 1.88811 4.84068 1.78549 0 0 0 -2.95597 1.54196 -0.924956 2.04505 -301.133 -170.699 0 0 0 0.5 
770 2 2 0.923352 2.38013 0.471768 0 0 0 -35.7926 -9.70368 0.951846 -98.0556 -107.526 14.4443 0 0 0 0.5 
636 2 2 4.60226 1.8466 0.243302 -1 0 1 -69.2483 -3.718 -27.2477 -1405.39 438.099 621.292 0 0 0 0.5 
117 1 1 4.79514 1.35478 0.959935 -1 0 0 -105.084 -10.3042 -0.703788 -4113.2 -1030.54 4675 0 0 0 0.5 
5 1 1 1.87526 4.06656 1.18505 0 0 0 -5.19543 -5.97915 2.63808 77.7565 -163.453 137.956 0 0 0 0.5 
620 2 2 1.59729 4.8709 0.780245 0 0 0 6.71624 4.78508 6.01437 -5.79347 -933.582 359.697 0 0 0 0.5 
626 2 2 0.63063 4.13318 0.713377 0 0 0 -3.08073 -6.62355 -4.51404 -146.425 -191.425 63.6567 0 0 0 0.5 
41 1 1 2.89373 1.66173 1.92638 -1 0 0 -68.5884 -10.3742 -19.9537 -51.2154 -4.43912 -20.4319 0 0 0 0.5 
100 1 1 3.4493 4.85001 0.572758 0 0 0 -0.1622 4.04813 -1.94498 195.651 -13.0426 -204.4 0 0 0 0.5 
21 1 1 2.65245 0.1676 1.83621 -6 0 0 -544.491 23.2625 2.58733 441.3 887.174 -1770.23 0 0 0 0.5 
903 2 2 0.116769 4.92436 1.01423 1 0 0 4.75611 -3.7943 -1.64993 175.483 -143.022 29.4081 0 0 0 0.5 
514 2 2 0.889924 2.52587 1.58908 0 0 0 -31.9313 -6.10508 3.86925 7.04619 121.795 -23.6805 0 0 0 0.5 
371 1 1 4.5767 4.28626 1.53903 0 0 0 -7.68423 5.23665 1.99662 -117.629 303.854 194.103 0 0 0 0.5 
916 2 2 3.78901 2.14891 1.59851 0 0 0 -41.3544 -9.73041 0.839098 389.769 291.437 -524.05 0 0 0 0.5 
364 1 1 4.3946 4.8437 0.759774 0 0 0 -0.136561 1.73354 0.39578 70.7144 -115.52 -92.1391 0 0 0 0.5 
622 2 2 0.840722 4.92886 0.153665 0 0 0 0.0540251 1.75954 10.068 175.045 -313.816 -23.0128 0 0 0 0.5 
734 2 2 3.69465 3.82166 0.281257 0 0 0 -12.7316 -4.23152 -9.30358 158.413 -228.813 -135.375 0 0 0 0.5 
264 1 1 3.60174 4.11356 1.20105 0 0 0 -6.78537 -2.79832 -5.80673 39.5198 -72.2573 -121.363 0 0 0 0.5 
488 1 1 3.59666 0.291359 1.55886 -7 0 1 -537.829 29.3292 -17.6731 -4446.13 1794.74 140.397 0 0 0 0.5 
157 1 1 0.976531 4.58613 1.48419 0 0 0 2.29432 -7.7723 -4.97426 -20.6192 24.5732 69.1074 0 0 0 0.5 
759 2 2 -0.00998914 2.24947 0.935122 0 0 0 -37.3101 -9.14419 10.7186 -9.52942 44.2117 -63.687 0 0 0 0.5 
854 2 2 3.91306 3.21675 1.44629 0 0 0 -11.1464 -3.61683 -3.3928 -99.2245 -176.249 -57.7089 0 0 0 0.5 
135 1 1 0.153353 3.93663 1.61674 0 0 0 -10.5064 -3.76588 -1.4353 15.3294 -200.601 63.42 0 0 0 0.5 
94 1 1 0.946494 3.50371 1.39896 0 0 0 -8.78497 -5.29499 0.445724 -120.756 -352.374 -71.5253 0 0 0 0.5 
1000 2 2 1.41557 3.4026 0.577733 0 0 0 -14.0664 1.7439 -3.31466 -33.3585 163.441 40.3131 0 0 0 0.5 
373 1 1 4.49812 3.61191 0.752561 0 0 0 -10.1469 12.0919 2.61611 -127.664 -424.5 475.131 0 0 0 0.5 
389 1 1 4.87692 3.38441 1.62533 0 0 0 -14.2694 9.35764 5.29587 -631.863 482.996 467.45 0 0 0 0.5 
543 2 2 3.64148 1.92859 2.51327 -1 0 0 -80.1982 -2.11031 -6.76566 -583.559 -302.937 336.866 0 0 0 0.5 
392 1 1 4.0775 2.94784 2.3917 0 0 0 -26.1019 7.52323 3.18443 19.0507 84.4669 -285.523 0 0 0 0.5 
517 2 2 1.75551 2.59014 2.53078 0 0 0 -41.6809 2.19366 -7.19261 -183.341 -374.387 39.2154 0 0 0 0.5 
383 1 1 3.81114 3.94261 2.12196 0 0 0 -10.1941 -5.5063 -0.609514 -13.8169 -159.412 -29.2517 0 0 0 0.5 
147 1 1 1.14532 1.10755 3.11166 -1 0 0 -243.985 18.7399 19.2595 2256.21 -2448.75 3666.03 0 0 0 0.5 
528 2 2 3.22545 4.65593 2.45932 0 0 0 -2.59505 0.187317 3.01253 157.59 -72.2147 60.3265 0 0 0 0.5 
251 1 1 3.5972 3.39628 3.72026 0 0 0 -14.7004 -1.20507 -2.89336 -65.8102 212.572 126.981 0 0 0 0.5 
515 2 2 3.12384 1.09086 2.97101 -3 0 0 -216.191 -2.94968 -6.87683 0 0 0 0 0 0 0.5 
814 2 2 2.39793 1.80645 3.45299 -1 0 0 -93.4106 3.50189 19.0727 -167.788 336.977 -703.296 0 0 0 0.5 
509 2 2 3.64932 1.48605 3.75462 -1 0 0 -95.0942 3.5873 -1.59385 86.4057 3.0718 -48.4961 0 0 0 0.5 
95 1 1 2.61287 3.72689 2.44359 0 0 0 -22.6665 2.90887 -3.46471 -348.198 12.0427 -107.628 0 0 0 0.5 
369 1 1 2.46293 2.86308 3.32542 0 0 0 -28.9998 3.35819 5.07972 187.234 -505.937 -43.0386 0 0 0 0.5 
313 1 1 0.528784 1.75488 2.73392 0 0 0 -88.0825 11.6818 -12.2255 -2988.66 -272.009 -1966.27 0 0 0 0.5 
773 2 2 1.37149 2.75119 3.4123 0 0 0 -25.5385 -5.95948 2.45027 441.354 1932.12 883.945 0 0 0 0.5 
32 1 1 1.48841 0.790675 2.45761 8 1 0 -354.464 -5.01346 -20.4599 967.512 -893.591 -1844.4 0 0 0 0.5 
783 2 2 3.06066 2.419 3.93875 0 0 0 -28.8903 -11.1556 -1.68062 187.397 -416.05 531.191 0 0 0 0.5 
402 1 1 0.256135 0.901715 2.5559 -1 0 0 -233.003 -1.94335 -5.39343 -1808.08 4725.23 -924.646 0 0 0 0.5 
510 2 2 2.05677 3.68379 3.29887 0 0 0 -23.5489 7.68193 2.85441 -170.678 -26.6646 97.8374 0 0 0 0.5 
813 2 2 0.795868 0.41904 3.09997 11 1 0 -338.947 -22.747 -11.554 3248.99 -547.903 2581.57 0 0 0 0.5 
366 1 1 3.2833 3.18332 2.58913 0 0 0 -28.8306 1.31929 4.8184 -203.669 243.31 405.8 0 0 0 0.5 
411 1 1 2.55623 2.21824 2.62838 0 0 0 -36.6323 -5.72821 3.32002 548.161 -452.427 235.6 0 0 0 0.5 
434 1 1 1.50023 1.86158 3.05235 0 0 0 -89.8858 22.0731 5.98853 -665.553 -4178.94 -433.425 0 0 0 0.5 
519 2 2 3.89609 4.07938 3.08545 0 0 0 -6.22675 -0.251665 1.07988 11.5703 53.1798 -52.1887 0 0 0 0.5 
14 1 1 1.58791 3.37621 2.08804 0 0 0 -12.3187 7.44526 2.28379 497.523 205.568 -105.486 0 0 0 0.5 
675 2 2 2.15793 4.62855 3.37829 0 0 0 -1.66895 4.0242 -3.43987 121.191 -65.3699 -141.507 0 0 0 0.5 
682 2 2 1.85469 4.23053 2.52529 0 0 0 -17.2886 8.14879 0.563887 -399.459 80.2362 266.231 0 0 0 0.5 
187 1 1 0.395278 1.75134 3.65943 -1 0 0 -78.2461 -7.98617 11.4663 124.763 12.5679 -509.536 0 0 0 0.5 
136 1 1 4.56913 1.92445 2.72433 -1 0 0 -82.1269 -3.93512 -3.35141 156.416 550.036 281.739 0 0 0 0.5 
965 2 2 0.267519 4.09418 3.28696 0 0 0 -10.6606 5.89581 -4.46288 -256.966 432.221 -15.3837 0 0 0 0.5 
290 1 1 3.65735 0.170806 2.34502 6 1 0 -590.288 17.0791 31.4953 1160.44 -355.49 -1942.2 0 0 0 0.5 
900 2 2 4.45333 2.34567 3.53069 0 0 0 -38.1756 6.80787 23.4815 -1282.31 1531.4 -716.914 0 0 0 0.5 
806 2 2 4.17811 0.440389 3.89284 -9 0 0 -429.521 40.6622 2.5754 -594.234 3618.77 730.096 0 0 0 0.5 
512 2 2 0.161721 3.13039 3.45262 0 0 0 -18.2108 12.3063 4.54439 11.1509 246.107 -242.098 0 0 0 0.5 
130 1 1 -0.016378 3.49629 2.52146 0 0 0 -11.4096 2.81643 -5.22516 312.748 387.554 -455.034 0 0 0 0.5 
144 1 1 0.953016 4.07751 2.31504 0 0 0 -16.1255 -5.52928 -5.84616 -531.517 213.355 208.092 0 0 0 0.5 
896 2 2 0.138234 4.56273 2.4187 0 0 0 -8.24305 6.29053 -2.00447 304.666 -209.428 -21.7352 0 0 0 0.5 
405 1 1 3.61952 2.55809 3.21314 0 0 0 -34.6687 0.868192 0.266581 256.54 -420.367 -422.797 0 0 0 0.5 
263 1 1 4.41475 3.27081 3.21319 0 0 0 -14.2457 -6.2184 -2.51012 235.953 478.582 166.539 0 0 0 0.5 
458 1 1 1.13015 4.61673 3.39181 0 0 0 -6.66164 3.93502 5.94162 67.7437 -35.2007 311.707 0 0 0 0.5 
151 1 1 1.11063 3.68445 3.58337 0 0 0 -21.7896 -1.84639 4.85588 -75.4801 -202.388 -317.052 0 0 0 0.5 
641 2 2 2.96873 4.1666 3.25121 0 0 0 -8.94865 -7.68532 -1.92145 89.7818 -352.075 -1.59598 0 0 0 0.5 
8 1 1 0.0849169 2.58044 2.70288 0 0 0 -38.0691 8.85736 -0.374335 -740.167 143.782 -465.507 0 0 0 0.5 
6 1 1 0.86878 3.20493 2.74757 0 0 0 -19.3521 -2.18623 1.4316 461.398 -34.9989 -248.267 0 0 0 0.5 
11 1 1 4.29461 4.73193 2.4864 0 0 0 -5.29105 -6.14263 -5.74061 -178.292 43.1005 -114.721 0 0 0 0.5 
36 1 1 4.57687 0.122889 2.97142 -6 0 0 -429.043 -16.7706 -15.0106 1149.47 2256.4 1912.3 0 0 0 0.5 
865 2 2 4.71123 3.85577 2.47014 0 0 0 -7.74044 -1.37073 5.4206 -70.5204 -129.332 446.653 0 0 0 0.5 
521 2 2 4.74108 4.48372 3.30851 0 0 0 -5.63482 3.01626 1.03091 201.673 -140.006 -314.275 0 0 0 0.5 
114 1 1 4.97435 0.803466 3.12808 -2 0 0 -310.863 23.6423 8.63068 -7698.49 -530.147 -4061.74 0 0 0 0.5 
657 2 2 4.58844 4.76179 5.87941 0 0 0 -2.72654 -2.26133 2.40453 -171.397 -58.1348 -95.1113 0 0 0 0.5 
549 2 2 3.51851 0.77554 5.82522 -3 0 0 -180.648 -0.920889 -15.1185 -4352.41 -3023.92 -7491.28 0 0 0 0.5 
137 1 1 2.15377 0.18117 5.06569 -6 0 0 -467.257 5.19698 -26.923 628.821 745.515 -511.301 0 0 0 0.5 
123 1 1 2.8498 1.45762 4.20336 -2 0 0 -98.892 -8.9765 19.3805 -281.865 -1917.78 363.051 0 0 0 0.5 
540 2 2 2.62301 0.510144 4.1741 -5 0 0 -213.218 -21.0861 7.34243 417.306 1743.45 53.8379 0 0 0 0.5 
23 1 1 4.55834 1.62405 4.16582 -1 0 0 -98.3912 13.557 5.6565 206.191 -821.945 847.621 0 0 0 0.5 
335 1 1 3.85864 1.8608 4.96296 0 0 0 -48.091 7.78561 -11.7238 -1859.21 4253.95 -2043.83 0 0 0 0.5 
39 1 1 1.52843 0.58858 4.37958 -3 0 0 -251.462 19.3987 -0.398076 -453.861 -1702.2 522.685 0 0 0 0.5 
548 2 2 2.47204 2.66677 5.86108 0 0 0 -21.66 -6.29507 12.2469 -694.409 -296.379 -677.301 0 0 0 0.5 
283 1 1 2.69703 1.085 5.17837 -2 0 0 -255.22 24.9024 31.9147 -3024.47 5234.6 470.406 0 0 0 0.5 
28 1 1 2.2594 3.26216 5.14811 0 0 0 0.9783 -7.40108 -2.24051 238.203 -105.757 -114.558 0 0 0 0.5 
920 2 2 2.28974 2.64645 4.35845 0 0 0 -32.2726 -16.4587 4.63585 -176.98 -411.356 437.007 0 0 0 0.5 
937 2 2 1.77324 3.37162 4.21873 0 0 0 -14.9644 0.5226 -3.18184 10.2508 -139.552 32.2626 0 0 0 0.5 
154 1 1 2.48538 4.18642 4.83871 0 0 0 -10.2304 -2.88859 -0.53215 157.286 -18.6391 -8.79534 0 0 0 0.5 
554 2 2 1.27518 2.66573 5.98395 0 0 0 -39.552 -2.3228 0.69723 499.596 -109.436 -885.77 0 0 0 0.5 
716 2 2 0.956032 1.83718 4.48939 -1 0 0 -68.0087 -15.3077 8.41318 415.482 -382.788 -740.605 0 0 0 0.5 
908 2 2 3.11473 2.53625 5.0317 0 0 0 -25.5642 1.08953 1.22672 0 0 0 0 0 0 0.5 
646 2 2 2.72773 3.67226 4.05433 0 0 0 -13.9075 -5.6878 -0.391579 -282.716 -151.651 40.3433 0 0 0 0.5 
995 2 2 0.654926 1.88395 5.41909 -1 0 0 -100.674 -14.2399 -17.1831 742.439 -2318.5 1143.1 0 0 0 0.5 
340 1 1 4.73859 2.40559 5.55104 0 0 0 -28.932 -6.2726 5.90375 -326.269 312.298 117.178 0 0 0 0.5 
811 2 2 2.10512 4.37337 5.67308 0 0 0 -8.87859 -1.34155 0.622744 207.674 8.05591 281.579 0 0 0 0.5 
518 2 2 1.26325 2.87939 5.07621 0 0 0 -19.1495 12.0864 13.3024 327.554 -531.496 -382.74 0 0 0 0.5 
546 2 2 1.61527 3.5907 5.98984 0 0 0 -10.4253 -2.96412 6.39782 -337.457 -335.337 -108.784 0 0 0 0.5 
928 2 2 0.979657 4.39139 4.62086 0 0 0 -6.60274 -0.805406 -7.26561 -106.752 -168.784 -76.2675 0 0 0 0.5 
428 1 1 4.66291 3.35016 5.26519 0 0 0 -23.8964 -6.22239 7.44782 45.1357 -42.5698 86.9985 0 0 0 0.5 
524 2 2 0.346924 2.5008 5.87827 0 0 0 -42.23 5.75421 14.5628 442.507 264.034 -168.95 0 0 0 0.5 
647 2 2 0.684994 2.61476 4.07318 0 0 0 -24.4491 0.961736 -5.31914 538.565 -274.162 188.57 0 0 0 0.5 
678 2 2 2.91015 4.76669 4.01853 0 0 0 -6.54732 -0.669024 -4.60394 133.61 -56.4341 93.2226 0 0 0 0.5 
731 2 2 3.10534 0.378306 5.11487 7 1 0 -449.195 13.5331 -52.2873 2968.66 -1038.14 5064.82 0 0 0 0.5 
200 1 1 3.92163 0.0541143 4.89471 -5 0 0 -470.348 10.1707 25.4746 -8293.7 4790.76 -949.68 0 0 0 0.5 
148 1 1 3.04057 4.04848 5.79433 0 0 0 -9.16815 -6.73271 0.176801 237.757 -105.651 -460.447 0 0 0 0.5 
914 2 2 4.38605 4.22288 5.00091 0 0 0 -5.08681 1.18979 -1.25617 1.74978 -131.951 116.76 0 0 0 0.5 
250 1 1 3.99324 3.19545 4.5828 0 0 0 -14.54 -12.0282 -4.15344 45.1487 -152.689 54.1895 0 0 0 0.5 
149 1 1 3.7963 4.89241 5.26062 0 0 0 4.16324 10.3398 7.98984 291.475 188.102 82.1462 0 0 0 0.5 
180 1 1 1.80717 4.31609 4.19391 0 0 0 -7.4286 0.0185337 -5.0581 175.155 345.254 -252.033 0 0 0 0.5 
925 2 2 0.11563 4.00652 4.41691 0 0 0 -7.99384 -3.40672 -3.18563 -167.217 265.353 -174.937 0 0 0 0.5 
573 2 2 1.54807 3.84416 5.05704 0 0 0 -8.33083 -5.89369 3.23587 137.888 -69.4172 130.513 0 0 0 0.5 
867 2 2 4.48194 0.900688 4.54193 -2 0 0 -249.954 -5.50842 -2.90291 556.821 -1168.06 -1753.16 0 0 0 0.5 
827 2 2 0.847205 3.44395 4.49983 0 0 0 -14.4108 -0.412467 6.17933 -98.0795 -195.447 -456.201 0 0 0 0.5 
418 1 1 0.238153 4.35774 5.34779 0 0 0 -3.35636 5.68573 -4.87137 -48.5534 -230.864 144.173 0 0 0 0.5 
795 2 2 3.86364 2.35561 5.89032 0 0 0 -33.9679 -21.5727 1.39514 -18.7297 -60.6383 -285.843 0 0 0 0.5 
127 1 1 0.585092 3.51055 5.58779 0 0 0 -12.1532 -1.33663 1.11672 117.13 -272.952 108 0 0 0 0.5 
824 2 2 1.13902 4.41539 5.75461 0 0 0 -5.71599 2.2129 0.0455856 -410.62 -648.99 317.739 0 0 0 0.5 
766 2 2 3.60655 3.27097 5.61127 0 0 0 -11.9169 -9.3891 0.935607 153.709 -317.97 -8.24301 0 0 0 0.5 
513 2 2 0.330106 2.68406 4.95805 0 0 0 -23.9175 -12.5249 -2.99501 443.606 546.546 -349.626 0 0 0 0.5 
717 2 2 4.15486 1.18304 5.2886 -2 0 0 -213.624 9.76137 -4.33051 2504.04 -2752.31 2542.35 0 0 0 0.5 
155 1 1 3.35872 3.86963 4.8659 0 0 0 -2.5417 2.07035 2.84666 325.822 -154.05 11.0509 0 0 0 0.5 
527 2 2 3.86819 4.40209 4.20579 0 0 0 -8.89137 3.05193 -2.05645 -141.981 -43.4959 -25.2336 0 0 0 0.5 
396 1 1 4.76694 3.99274 4.14077 0 0 0 -12.6657 -7.22314 -2.10833 -452.751 -102.898 -178.294 0 0 0 0.5 
228 1 1 0.488649 0.333557 7.85053 -6 0 0 -428.963 35.1913 4.01591 257.249 -6168.64 6788.57 0 0 0 0.5 
633 2 2 0.984899 1.65606 7.42169 0 0 0 -96.0367 -18.4984 -1.03781 345.01 1170.89 806.728 0 0 0 0.5 
348 1 1 3.22135 2.72166 6.47861 0 0 0 -26.7705 -6.4205 -1.51429 758.418 -90.7058 553.433 0 0 0 0.5 
66 1 1 2.59389 3.43587 6.41733 0 0 0 -14.7538 1.58816 3.33691 -275.911 602.238 196.45 0 0 0 0.5 
377 1 1 0.936067 0.510462 6.4508 -3 0 0 -308.065 -18.1643 -27.2691 2129.13 -3255.33 1147.22 0 0 0 0.5 
61 1 1 3.05835 0.156843 6.56227 -3 0 0 -381.181 12.5017 41.5457 -14083.9 4462.5 3438.86 0 0 0 0.5 
38 1 1 3.25338 1.52641 6.17065 -1 0 0 -106.477 9.72593 6.284 -2177.3 2680.15 -1347.22 0 0 0 0.5 
596 2 2 1.92135 1.76739 7.2359 -3 0 0 -82.3551 -10.8661 11.4827 138.912 -929.11 879.248 0 0 0 0.5 
544 2 2 2.45029 3.7573 7.37739 0 0 0 -3.11982 -2.51131 4.68169 -167.039 -104.797 151.409 0 0 0 0.5 
80 1 1 2.5662 4.50126 6.50917 0 0 0 2.49364 -2.57938 -3.80485 -276.063 169.039 605.094 0 0 0 0.5 
845 2 2 3.13752 2.57297 7.4289 0 0 0 -34.4923 -6.08898 -4.56779 -1188.05 1242.02 -343.145 0 0 0 0.5 
643 2 2 4.83392 2.22907 6.7984 0 0 0 -41.4832 6.86999 -17.682 -180.398 -740.388 330.906 0 0 0 0.5 
35 1 1 4.82922 2.90279 7.55284 0 0 0 -11.6254 -6.25517 9.77374 0 0 0 0 0 0 0.5 
584 2 2 1.74518 3.29725 6.89137 0 0 0 -11.7137 1.96542 7.99793 -490.966 -41.7446 -378.203 0 0 0 0.5 
69 1 1 2.26934 1.76201 6.06878 0 0 0 -48.7127 -15.525 -24.5061 -33.2577 -148.447 34.0777 0 0 0 0.5 
572 2 2 2.16945 2.77548 7.61717 0 0 0 -31.501 -5.92 0.708451 264.694 -325.529 452.823 0 0 0 0.5 
252 1 1 0.5788 1.0567 6.2583 11 1 0 -210.244 17.2055 -52.7771 284.975 3299.39 -2142.95 0 0 0 0.5 
694 2 2 2.42253 0.369699 7.74058 -6 0 0 -351.164 -8.76387 4.87806 -116.807 1501.19 -1088.58 0 0 0 0.5 
42 1 1 1.68516 2.35203 6.6952 0 0 0 -44.0528 0.0267764 -5.70812 402.773 340.988 499.013 0 0 0 0.5 
73 1 1 1.68128 4.91493 6.71179 0 0 0 2.33405 -4.01286 -0.176041 -220.449 -228.133 -122.999 0 0 0 0.5 
86 1 1 1.02612 2.63365 7.54919 0 0 0 -47.0107 3.02874 -1.22869 -115.941 -665.597 -50.989 0 0 0 0.5 
332 1 1 0.615577 1.86772 6.5717 0 0 0 -56.0691 0.292094 14.4743 -262.634 102.57 -1483.43 0 0 0 0.5 
703 2 2 0.158499 2.64805 6.83628 0 0 0 -34.8009 8.90739 15.251 -533.661 412.688 -108.513 0 0 0 0.5 
611 2 2 0.971062 4.3156 7.04537 0 0 0 -2.9342 2.18284 -9.47124 -186.487 -196.949 -46.3584 0 0 0 0.5 
152 1 1 3.82989 4.02192 6.37521 0 0 0 -5.99066 -3.58183 2.44 136.005 -89.0338 -318.067 0 0 0 0.5 
2 1 1 0.0759309 4.5888 7.3208 0 0 0 -4.05561 -3.83355 -0.686904 120.298 58.3759 220.486 0 0 0 0.5 
662 2 2 4.04058 4.49914 7.30257 0 0 0 1.57586 -2.13569 1.86314 63.5441 -71.5193 32.7665 0 0 0 0.5 
242 1 1 4.47497 0.784135 7.04194 -2 0 0 -199.082 5.01838 14.6597 -1711.01 7218.38 1355.39 0 0 0 0.5 
198 1 1 0.166886 3.99905 6.55328 0 0 0 -10.6681 -1.01969 -0.139354 158.677 -77.6637 -445.495 0 0 0 0.5 
741 2 2 4.86991 0.0835725 6.98283 -9 0 0 -480.673 -15.0156 24.4322 4692.13 -7826.88 381.172 0 0 0 0.5 
542 2 2 3.60042 0.351185 6.36028 -4 0 0 -351.507 22.9018 20.645 802.163 -1746.35 2690.01 0 0 0 0.5 
551 2 2 3.073 4.53472 7.35512 0 0 0 -0.906601 -3.73384 0.626721 230.579 -243.747 21.8038 0 0 0 0.5 
236 1 1 0.084669 2.72715 7.82762 0 0 0 -50.0327 19.2361 3.88808 -492.922 448.716 198.556 0 0 0 0.5 
838 2 2 0.177767 4.90704 6.35899 0 0 0 7.2193 0.886831 -3.42678 149.969 -234.062 56.3954 0 0 0 0.5 
606 2 2 1.2338 3.58657 7.65215 0 0 0 -14.6823 7.42449 4.71444 -114.25 -336.484 60.5865 0 0 0 0.5 
116 1 1 3.46471 4.90949 6.51713 0 0 0 2.14587 -1.06229 2.29277 35.2256 -87.6053 -22.9236 0 0 0 0.5 
618 2 2 1.78794 4.42225 7.58663 0 0 0 -7.49428 -5.13505 2.65991 -106.83 101.567 -331.877 0 0 0 0.5 
862 2 2 0.0248779 1.95464 7.52888 0 0 0 -75.426 8.1316 22.5901 34.591 -261.286 -572.997 0 0 0 0.5 
822 2 2 4.5128 2.9887 6.48627 0 0 0 -40.8824 13.7243 -3.36309 -550.776 471.246 -153.422 0 0 0 0.5 
234 1 1 0.260715 3.49788 7.34421 0 0 0 -8.65983 13.2243 5.61909 268.985 -33.779 -246.457 0 0 0 0.5 
217 1 1 0.827172 3.29418 6.52882 0 0 0 -16.1514 -7.84329 2.29502 -155.553 659.865 700.8 0 0 0 0.5 
125 1 1 4.19922 1.55021 7.97345 0 0 0 -86.1336 -15.3536 8.79037 43.6992 -157.664 77.5431 0 0 0 0.5 
357 1 1 3.87152 2.07866 6.9816 0 0 0 -42.9497 -3.47972 8.9412 1021.85 581.151 -229.191 0 0 0 0.5 
27 1 1 3.77087 1.13147 6.78138 -3 0 0 -184.883 20.6699 29.2629 -465.106 -1966.51 718.143 0 0 0 0.5 
583 2 2 3.35814 3.63357 7.10968 0 0 0 -6.72755 -7.62806 0.12965 156.251 -335.747 -22.8546 0 0 0 0.5 
498 1 1 3.55493 0.319012 7.3875 8 1 0 -403.09 4.09004 23.7709 865.367 282.603 1438.1 0 0 0 0.5 
56 1 1 4.04947 3.51557 7.80111 0 0 0 -11.5752 -8.61847 2.1252 504.447 -214.958 -577.24 0 0 0 0.5 
172 1 1 4.43209 0.495249 6.25156 -5 0 0 -353.961 9.99246 -19.5591 857.817 948.417 -796.961 0 0 0 0.5 
43 1 1 4.72012 3.82804 6.07707 0 0 0 0.954055 4.4159 6.07781 84.2234 39.89 -230.118 0 0 0 0.5 
40 1 1 4.71718 3.82227 7.05699 0 0 0 -0.604571 -10.6025 8.69036 -308.143 -66.3222 92.7488 0 0 0 0.5 
722 2 2 4.85223 1.55287 7.35791 -1 0 0 -75.6703 -2.43837 -0.577244 -1935.39 148.165 1863.65 0 0 0 0.5 
828 2 2 2.34253 3.06093 8.91581 0 0 0 -19.3496 0.560456 0.558878 92.6282 121.531 -142.407 0 0 0 0.5 
877 2 2 1.99565 0.56756 8.80274 9 1 0 -359.48 -6.75393 42.9251 -4.99309 520.711 -886 0 0 0 0.5 
247 1 1 1.99185 0.96463 8.12712 -5 0 0 -250.593 17.4674 -13.6663 5535.91 -2624.86 2218.33 0 0 0 0.5 
245 1 1 1.49271 1.28782 8.15849 -1 0 0 -144.328 6.31386 21.8225 -6908.46 4423.92 1395.85 0 0 0 0.5 
835 2 2 4.79708 4.02757 9.09567 0 0 0 -13.9697 1.35207 -3.67741 187.62 -141.547 23.4402 0 0 0 0.5 
911 2 2 4.30156 0.215144 9.01376 -5 0 -1 -433.688 -5.68885 -11.819 -241.153 -140.117 -1367.54 0 0 0 0.5 
869 2 2 1.62037 2.14206 9.50977 0 0 0 -39.3668 -8.0643 5.36652 8.75368 -42.2459 14.0955 0 0 0 0.5 
79 1 1 2.25694 4.52884 9.07825 0 0 0 -2.14597 -3.83879 -0.567943 296.17 -170.871 -182.065 0 0 0 0.5 
754 2 2 2.13493 3.85229 9.80099 0 0 0 -7.52699 -2.48584 -4.02294 119.625 -242.366 -130.017 0 0 0 0.5 
195 1 1 0.95256 2.2286 8.47138 0 0 0 -48.3651 -9.98069 -5.7331 -90.3816 -158.483 -106.866 0 0 0 0.5 
587 2 2 3.04712 3.29196 9.78172 0 0 0 -22.8568 -8.72565 1.72708 -47.9122 -39.1935 -36.9625 0 0 0 0.5 
276 1 1 2.7371 1.88261 8.50401 -1 0 0 -58.6677 -13.7587 13.5726 -1224.95 -871.64 1201.07 0 0 0 0.5 
597 2 2 3.12535 4.01842 9.00468 0 0 0 -7.38706 2.30406 4.44079 -347.698 93.8116 128.224 0 0 0 0.5 
388 1 1 3.47016 2.02115 8.13577 0 0 0 -88.1841 13.8629 6.93098 2082.52 78.5793 -887.776 0 0 0 0.5 
863 2 2 3.22555 2.65087 9.0136 0 0 0 -22.7386 -4.5154 -5.78799 286.254 -114.877 3.86676 0 0 0 0.5 
235 1 1 3.1136 3.48489 8.081 0 0 0 -8.07047 -7.94668 1.29836 -340.627 90.6404 132.867 0 0 0 0.5 
758 2 2 2.7177 2.34405 9.79398 0 0 -1 -29.3035 -11.7707 -8.9919 256.05 -317.511 -254.342 0 0 0 0.5 
607 2 2 2.64551 4.36012 8.2108 0 0 0 -6.58031 -9.56229 -0.976797 -47.002 -308.67 -290.38 0 0 0 0.5 
776 2 2 1.86678 2.21326 8.48816 0 0 0 -40.5551 5.66617 2.60281 -676.421 419.962 -12.2626 0 0 0 0.5 
90 1 1 2.79343 4.74403 9.8598 0 0 -1 0.218783 1.14713 -3.80518 -84.9859 6.69871 102.605 0 0 0 0.5 
232 1 1 1.42811 3.06991 9.20019 0 0 0 -21.7932 -7.8928 -4.13937 -27.1855 -218.199 -63.5076 0 0 0 0.5 
585 2 2 3.69375 4.54993 9.62723 0 0 0 -0.808973 1.80261 -3.0697 61.1181 -444.077 -222.052 0 0 0 0.5 
619 2 2 1.75386 3.92098 8.4228 0 0 0 -16.2465 10.4641 5.82796 16.7194 -240.283 489.11 0 0 0 0.5 
96 1 1 1.2068 4.07949 9.92997 0 0 0 -8.34448 -1.2619 -9.26677 -36.4892 56.7476 41.7339 0 0 0 0.5 
139 1 1 0.931109 3.88207 9.03523 0 0 0 -9.84029 -0.141195 -7.29406 411.466 -140.118 -158.971 0 0 0 0.5 
504 2 2 0.797469 4.68213 8.00499 0 0 0 -1.26151 -0.894919 -4.18535 132.325 -80.6106 -67.4668 0 0 0 0.5 
608 2 2 1.3957 4.88228 8.84141 0 0 0 0.31507 -2.24887 0.452875 23.0953 -359.052 -98.5159 0 0 0 0.5 
598 2 2 4.52608 4.25816 9.99683 0 0 0 -8.48914 -1.69861 2.04709 155.569 64.8213 -464.697 0 0 0 0.5 
536 2 2 4.13712 0.33097 9.83629 -2 0 -1 -334.976 3.91348 1.88237 344.699 2584.07 -2659.01 0 0 0 0.5 
227 1 1 3.94208 1.70235 8.87533 -1 0 0 -112.578 4.84994 6.5934 667.879 -282.47 299.979 0 0 0 0.5 
237 1 1 0.536797 3.44053 8.29998 0 0 0 -17.9013 -3.74988 2.26038 -61.1551 -110.161 173.829 0 0 0 0.5 
380 1 1 0.149027 2.60079 8.69251 0 0 0 -49.7219 2.93774 4.23774 112.951 -271.682 265.308 0 0 0 0.5 
784 2 2 3.78687 1.38409 9.69158 -1 0 0 -108.064 -11.5942 11.4376 -882.933 74.0375 1127.78 0 0 0 0.5 
609 2 2 1.84124 4.83868 9.89599 0 0 -1 -1.26856 -9.22561 1.68389 -124.766 -248.725 -47.1151 0 0 0 0.5 
284 1 1 3.29614 0.0142694 9.15804 -6 0 -1 -438.677 -0.690361 -9.79865 0 0 0 0 0 0 0.5 
54 1 1 4.23823 4.77256 8.84578 0 0 0 -4.67579 6.16777 -2.42994 555.793 4.35051 204.767 0 0 0 0.5 
342 1 1 4.82595 4.04556 8.10456 0 0 0 -17.2713 1.26522 -5.47066 7.47524 198.928 104.759 0 0 0 0.5 
258 1 1 4.00087 2.3457 9.60844 0 0 0 -49.0169 4.97413 2.81378 -842.575 -1030.23 362.405 0 0 0 0.5 
530 2 2 0.240678 3.88026 9.84908 0 0 0 -10.2103 5.55363 -2.86231 67.5534 29.405 -131.224 0 0 0 0.5 
670 2 2 3.62767 4.3362 8.18131 0 0 0 -6.49236 -5.85708 -0.429284 115.764 -175.03 -57.898 0 0 0 0.5 
104 1 1 0.41141 4.61448 9.2303 0 0 0 -3.84818 4.14363 -1.8988 516.902 -184.686 -330.348 0 0 0 0.5 
574 2 2 3.30055 4.99757 8.83877 0 0 0 -3.36893 -1.90425 -4.3686 -177.843 -341.459 -238.718 0 0 0 0.5 
270 1 1 4.37324 2.75414 8.44327 0 0 0 -23.1949 -14.2225 7.31236 52.6745 -102.504 -43.4766 0 0 0 0.5 
382 1 1 4.24847 3.28784 9.62417 0 0 -1 -12.0773 6.93523 -6.47829 -99.265 -278.977 292.513 0 0 0 0.5 
274 1 1 0.615965 2.32184 9.41175 0 0 -1 -37.942 -1.70754 4.6149 273.482 -292.263 388.656 0 0 0 0.5 
495 1 1 0.781836 3.14131 9.89955 0 0 0 -17.8276 -0.730563 3.03118 -105.509 -478.665 -78.5353 0 0 0 0.5 
713 2 2 4.85966 1.17703 9.11485 -1 0 0 -127.937 -0.810144 -3.05167 -138.95 1073.04 -1510.18 0 0 0 0.5 
842 2 2 3.94856 3.58056 8.79378 0 0 0 -13.0852 -3.37855 -8.85731 4.57336 184.645 -165.459 0 0 0 0.5 
992 2 2 4.01397 0.614653 8.34562 -6 0 0 -408.806 20.1225 -31.3817 -233.926 324.957 -543.46 0 0 0 0.5 
762 2 2 4.92418 0.678784 9.81607 -4 0 -1 -302.385 -1.87454 1.46157 2739.39 1502.15 4709.38 0 0 0 0.5 
255 1 1 4.95858 2.42213 9.44151 0 0 0 -59.0742 6.50783 -11.7435 -204.769 444.752 -732.259 0 0 0 0.5 
288 1 1 1.50711 7.58894 1.81912 1 0 0 36.3472 3.25452 5.18358 1602.99 -308.456 -548.066 0 0 0 0.5 
729 2 2 0.521623 9.20566 0.227035 5 0 1 320.158 9.67404 -23.3087 6125.9 -1280.99 -2167.75 0 0 0 0.5 
105 1 1 3.37672 6.31577 0.261663 0 0 0 19.9917 -6.40031 -3.36908 -33.3649 -177.131 188.045 0 0 0 0.5 
765 2 2 2.73988 8.84929 1.33302 1 0 0 121.581 10.5706 -18.5095 1996.46 -1441.25 -1362.07 0 0 0 0.5 
64 1 1 2.1958 9.221 1.98195 2 0 0 191.212 30.7682 -1.69609 -693.412 4493.69 2894.95 0 0 0 0.5 
949 2 2 0.680002 9.54707 1.60015 3 0 1 293.95 37.1654 51.8585 8674.3 -7293.12 -2350.65 0 0 0 0.5 
627 2 2 4.45292 6.1816 1.62751 0 0 0 23.8222 2.43965 0.626465 406.556 -605.232 -361.506 0 0 0 0.5 
20 1 1 0.302987 9.14809 1.89552 -6 -1 0 317.426 -26.5111 78.9439 -2002.75 -601.947 1953.48 0 0 0 0.5 
673 2 2 3.77817 6.54226 1.10189 0 0 0 12.3248 -6.2028 -2.92907 -145.766 493.114 -151.968 0 0 0 0.5 
141 1 1 1.90785 6.68847 0.0459982 1 0 1 29.1696 -4.46786 7.37703 -647.266 -240.361 -543.7 0 0 0 0.5 
575 2 2 0.485008 9.71668 0.967773 9 0 0 437.638 5.4511 6.05343 2206.11 746.88 -2604.44 0 0 0 0.5 
800 2 2 0.993906 9.99417 0.918476 5 0 0 433.816 40.9427 4.60859 4147.09 -2922.97 3338.3 0 0 0 0.5 
244 1 1 -0.0685228 9.21439 0.822675 -5 -1 0 457.918 -39.1964 27.0253 -8981.41 4167.93 4057.27 0 0 0 0.5 
807 2 2 0.500386 5.36438 1.81283 0 0 0 7.22902 -4.25813 -3.78946 -573.75 -502.777 508.879 0 0 0 0.5 
321 1 1 1.71128 6.40093 1.21088 1 0 0 7.20066 -12.0725 12.9603 -391.886 1047.31 -124.408 0 0 0 0.5 
994 2 2 0.972363 7.49693 0.192347 1 0 0 38.1983 3.29954 -9.90019 109.355 1056.03 -171.036 0 0 0 0.5 
98 1 1 3.38261 5.00048 1.55684 0 0 0 4.18571 -3.80577 0.702924 192.515 -218.563 -82.3181 0 0 0 0.5 
821 2 2 1.83752 8.27543 1.13865 2 0 0 90.7337 -4.85686 -2.15059 0 0 0 0 0 0 0.5 
651 2 2 3.48721 6.15888 1.95935 0 0 0 25.5515 -2.56036 0.416116 -295.975 438.442 -275.695 0 0 0 0.5 
823 2 2 0.172105 9.66933 0.0072649 7 0 0 398.335 31.1671 -34.6061 4716.99 -98.8649 -2438.64 0 0 0 0.5 
621 2 2 2.64859 5.62856 0.255447 0 0 0 12.5269 0.0955669 3.80066 131.726 136.026 108.955 0 0 0 0.5 
281 1 1 0.079502 6.89834 1.20278 1 0 0 28.7834 3.44158 -3.9723 -148.724 781.73 -26.1495 0 0 0 0.5 
126 1 1 2.54869 6.50234 0.765826 0 0 0 14.1077 0.50538 2.12565 286.234 -44.4485 428.963 0 0 0 0.5 
624 2 2 4.3344 5.22837 1.65475 0 0 0 0.446447 7.29611 1.09018 101.924 -73.8156 -59.6969 0 0 0 0.5 
289 1 1 3.72479 9.89261 0.699129 -9 -1 0 606.419 -41.1508 43.9373 -1840.92 -4089.06 -3494.96 0 0 0 0.5 
592 2 2 4.60407 6.49917 0.575447 0 0 0 7.74807 6.45715 -2.84086 268.343 192.63 -337.965 0 0 0 0.5 
793 2 2 3.63044 7.98743 0.398198 1 0 0 65.0758 10.5419 -5.21292 153.082 -281.893 331.289 0 0 0 0.5 
296 1 1 2.83013 7.02861 0.0599124 1 0 0 29.038 5.96738 3.94792 -350.767 936.982 41.5196 0 0 0 0.5 
826 2 2 2.82657 7.91621 1.01386 1 0 0 53.6831 -4.09044 1.03701 -448.986 805.453 -556.996 0 0 0 0.5 
102 1 1 3.03965 5.79671 1.14815 0 0 0 11.9363 1.48775 5.15987 112.959 -10.8877 189.696 0 0 0 0.5 
113 1 1 1.71075 5.77654 0.375668 0 0 0 9.55929 -12.6281 1.06477 258.757 936.937 -32.2178 0 0 0 0.5 
825 2 2 0.834618 8.86984 1.26599 1 0 0 192.059 -22.4884 -22.2572 2273.38 -3254.74 647.02 0 0 0 0.5 
153 1 1 4.11697 6.99144 1.91313 0 0 0 29.8605 -11.7829 -14.037 -675.465 783.839 215.827 0 0 0 0.5 
541 2 2 0.833097 6.09038 0.202857 1 0 0 12.7771 -6.40312 -6.52273 -193.42 -198.473 -70.6203 0 0 0 0.5 
599 2 2 3.94678 5.66751 0.822002 0 0 0 8.69493 -3.14122 1.73884 -119.479 126.317 8.60537 0 0 0 0.5 
24 1 1 4.4571 9.80509 0.137103 6 0 0 573.633 -16.6099 26.6242 -5368.17 -7281.12 383.905 0 0 0 0.5 
175 1 1 1.3925 5.67952 1.91677 0 0 0 -1.73353 6.6455 -4.06808 443.651 -81.6755 -130.636 0 0 0 0.5 
810 2 2 3.72817 8.46114 1.26958 1 0 0 59.7416 12.5779 -4.09383 -4.10108 -19.8777 -36.5648 0 0 0 0.5 
150 1 1 4.02988 7.4285 1.01563 0 0 0 54.5793 -0.886491 26.9358 -221.856 314.78 -321.056 0 0 0 0.5 
278 1 1 4.12812 9.97096 1.60742 5 0 0 415.894 -0.163076 -18.9799 5885.29 964.878 8187.75 0 0 0 0.5 
904 2 2 0.654726 7.93399 1.76292 1 0 0 68.0639 7.08101 -0.767556 738.214 -305.885 -813.204 0 0 0 0.5 
183 1 1 0.938313 5.47643 0.956896 0 0 0 5.56656 0.768712 4.11536 204.682 -54.8889 -475.129 0 0 0 0.5 
367 1 1 0.14363 8.00185 0.937437 1 0 0 77.9578 2.01575 -14.0363 1435.26 -581.239 -676.329 0 0 0 0.5 
442 1 1 0.759545 6.94963 1.86439 1 0 0 28.3505 -2.69561 0.208789 1056.09 71.1756 -1162.54 0 0 0 0.5 
660 2 2 0.294187 6.83025 0.321737 1 0 1 27.6586 11.0444 -7.33519 115.373 232.924 147.597 0 0 0 0.5 
887 2 2 -0.0268826 8.15379 1.92701 1 0 0 79.4889 12.0092 10.437 -2076.93 -389.113 1189.46 0 0 0 0.5 
610 2 2 2.08778 5.60039 1.25663 0 0 0 13.5755 -1.70904 8.48676 236.336 -86.6093 -206.914 0 0 0 0.5 
453 1 1 2.57289 6.50201 1.74188 0 0 0 25.6054 2.80246 1.37935 -46.218 -47.4911 227.049 0 0 0 0.5 
676 2 2 0.5536 8.7619 0.290261 2 0 0 226.034 -51.9606 -16.2925 4974.21 -6088.75 -3724.63 0 0 0 0.5 
578 2 2 0.508842 6.1814 1.31229 0 0 0 17.7194 0.274931 7.6576 130.284 -291.857 203.79 0 0 0 0.5 
782 2 2 1.49559 7.25176 0.917696 1 0 0 40.4899 2.42622 6.55831 -101.368 173.692 -533.152 0 0 0 0.5 