# vtk DataFile Version 4.2
Generated by LIGGGHTS
ASCII
DATASET POLYDATA
POINTS 1000 float
4.19097 0.903223 1.56559 2.23193 0.915253 1.38583 1.71102 2.12048 0.78814 
3.33302 0.825131 1.35178 0.161631 1.636 0.234715 0.902599 1.28221 0.76377 
4.47362 0.764134 0.697612 1.2189 0.703732 1.35232 2.50661 2.38922 1.42356 
4.65788 4.00337 0.890025 4.11191 1.49506 0.790267 1.87869 3.16509 0.494722 
2.31245 1.63346 0.796896 1.82642 3.05185 1.81504 0.628769 0.924148 1.92554 
0.105977 1.02889 1.23618 0.655216 2.52036 1.65983 3.25357 0.585683 0.420392 
0.304071 4.07737 0.159959 3.3416 2.64722 1.19699 3.91651 1.76698 1.69486 
3.2436 1.65953 0.963198 3.97595 3.89214 0.457428 3.86051 3.54168 1.52521 
0.96907 3.65632 0.87318 4.1777 3.03388 0.514926 0.047363 3.35691 0.853204 
3.3373 4.18596 1.93973 3.69885 0.0532583 1.1516 3.16012 4.22662 0.584873 
0.207374 4.98797 1.43658 3.96043 2.17126 0.301999 4.86234 1.67819 1.6112 
-0.0330665 3.95239 1.54543 4.29284 4.6143 1.52344 2.08995 0.0270393 1.27841 
0.831395 4.44551 1.27438 2.9637 1.80382 1.77103 2.76322 2.97364 0.63578 
2.9847 3.58634 1.24312 4.81612 2.39308 1.11221 4.81647 3.34602 1.43496 
4.89052 1.92523 0.273055 0.463214 0.722295 3.75191 0.965333 0.179648 2.08988 
0.402119 1.62935 2.05113 1.8328 0.252087 2.14307 2.14494 0.165741 3.76759 
0.23849 2.52717 3.62358 2.37342 1.2901 3.53341 1.97001 2.26728 2.2595 
0.823215 0.293883 3.06602 1.42859 1.07456 3.52135 2.1154 1.67005 2.88415 
2.34128 3.41056 3.48173 1.72981 3.12966 2.71546 2.86103 4.08921 2.68177 
0.580778 1.66868 3.80661 2.11875 4.19375 2.58598 0.541862 2.6682 2.63852 
1.60686 2.12025 3.36439 4.51959 4.5226 3.15224 4.57426 3.04725 3.11985 
1.76983 0.730557 2.8901 1.54376 3.70822 3.36224 3.39734 1.48894 2.97125 
0.49469 1.50219 3.01422 2.31124 2.60459 3.89558 1.20747 0.178291 3.81708 
0.721059 0.843513 2.73989 1.14814 2.16895 2.47192 1.82269 1.20434 2.08852 
3.65511 4.45031 2.88306 0.596892 3.48374 3.17943 0.0126137 4.02618 2.54235 
3.06394 0.243152 2.24478 1.17171 4.63739 2.64076 2.64975 0.586111 2.9691 
3.72359 2.36991 3.37235 2.24841 4.22918 3.97211 3.05443 4.25577 3.65001 
0.985872 4.17695 3.8441 1.75653 4.58666 3.31472 0.470313 4.55933 3.27351 
4.37723 2.35499 3.96759 3.49058 2.61349 2.15973 3.31991 3.55459 3.10797 
4.77716 2.46771 2.06185 4.35388 4.11316 2.30626 2.59063 2.81519 2.82617 
1.4088 3.78499 2.17711 2.72436 3.22893 2.03048 2.87377 1.07912 2.13665 
2.8527 2.13389 3.30462 3.84401 4.42122 3.79943 3.99277 0.287736 2.29313 
4.25265 3.5981 3.83977 4.34247 1.63314 3.39079 4.37627 1.41749 2.4735 
4.30978 3.13233 2.20939 4.43073 0.433523 3.18542 4.86218 0.0663638 3.92136 
1.77716 0.260705 4.90746 2.20726 0.972995 4.40262 1.27938 0.383539 4.70376 
0.88637 1.76415 5.03175 4.62303 4.59791 4.18149 1.97592 4.06777 5.4254 
3.47356 3.98028 5.68426 2.42383 3.20901 5.38066 1.55426 3.17942 5.22555 
2.61928 2.30215 5.93356 3.86436 4.92195 5.68868 2.76725 4.08491 4.76005 
4.21675 4.22396 4.9735 0.521512 0.19542 4.30528 1.63014 2.38114 4.4265 
1.98731 1.07006 5.39283 1.48117 1.61279 4.17664 4.33678 4.2418 5.9059 
1.12527 2.27111 5.93304 0.212721 1.03901 4.55662 1.03593 0.998532 4.74893 
1.86263 2.39134 5.55963 1.02876 2.7095 4.30177 2.62095 4.07532 5.81081 
0.951409 0.637312 5.59457 1.89403 1.82949 4.95292 4.11184 0.579066 5.84742 
2.01409 3.3233 4.40353 0.276162 2.56511 5.75358 2.47157 1.87569 4.25102 
2.85438 1.46008 5.13165 2.17026 4.92621 5.96348 3.03253 0.973621 4.42647 
2.08699 4.57456 4.70158 4.11431 2.91336 4.55271 4.50117 1.54807 5.97487 
3.99015 2.69282 5.4317 1.19581 4.50448 5.5445 3.50054 4.65446 4.60978 
0.914211 3.48176 5.56676 1.08311 3.56172 4.51848 3.04049 0.0436813 4.26397 
2.7861 2.27666 5.04271 3.09123 3.53233 4.12476 0.172751 4.44599 4.50328 
3.85692 1.37303 4.30719 3.35078 2.67552 4.10392 0.31945 3.46661 4.51136 
2.98319 3.15455 4.98773 4.60603 0.440607 4.6951 4.61358 3.53206 5.16908 
1.95778 0.485809 6.14576 3.85292 4.32468 7.49413 4.05351 1.56443 7.23929 
1.97819 2.59047 6.51116 4.61722 3.33584 7.82193 3.86723 0.206011 7.15312 
1.8396 3.6261 6.34681 4.87652 4.71613 6.54288 1.57376 2.85735 7.15753 
2.36415 4.38232 6.98551 0.0940296 1.47188 6.95899 2.30085 0.471278 7.71348 
1.366 1.34749 6.25995 4.08593 2.42994 7.12638 2.49267 1.92468 6.79243 
0.708345 2.91537 6.90124 0.597002 0.234585 6.68038 3.45619 3.59878 6.4836 
3.10281 2.81344 6.56036 2.27775 1.27714 6.24114 2.56844 2.39457 7.5949 
1.39937 3.70767 7.3544 0.569481 1.05529 7.5691 2.66994 1.43826 7.62082 
3.16406 1.59939 6.02913 3.76704 2.45274 6.25955 0.415629 3.04856 7.92996 
4.48728 3.7188 7.00536 4.52159 3.59793 6.06894 2.81867 3.32116 7.69293 
-0.0239496 3.11515 6.35547 2.76048 3.73157 6.74144 3.6968 4.9701 7.00278 
3.64697 3.35874 7.32498 0.000594461 0.0147716 7.72745 0.755948 4.09283 6.77862 
3.48327 2.62225 7.38213 3.30023 1.30788 7.92859 -0.00201564 4.08951 6.42168 
0.105366 4.20464 7.42527 3.2908 1.85292 7.04786 4.12284 4.17469 6.86708 
4.85361 1.75425 6.82559 4.00536 0.878644 6.63661 3.19588 0.483457 6.08274 
3.31988 0.934851 6.97487 4.50531 4.10357 7.88611 4.38333 3.07259 6.68119 
4.7637 1.9759 7.79387 2.51722 0.143473 8.70361 2.4421 0.80043 9.39541 
4.01422 0.454626 9.15295 1.26146 3.54189 8.31158 0.164606 2.2568 8.43595 
2.58591 1.58253 9.57856 2.53417 1.42811 8.57863 1.31584 2.08542 9.81876 
4.43674 4.30794 9.21112 4.5173 0.982567 8.62733 1.74292 1.93613 8.26351 
0.833493 1.19102 9.82765 0.197073 0.906347 9.21252 0.213099 1.86195 9.2774 
3.85078 0.856993 8.19656 1.31118 2.51298 8.7529 3.45574 1.60319 9.03285 
1.46783 0.866001 9.02404 4.25681 2.73446 8.94999 0.566558 0.584254 8.4099 
1.18123 2.96712 9.68892 3.29331 3.02082 8.88204 0.489934 2.92779 9.08066 
2.23693 2.37334 9.97709 2.87414 2.24664 8.9057 4.12191 2.30575 8.12428 
2.96708 4.23844 9.75698 4.04766 0.88406 9.91629 3.5505 3.80509 8.40781 
4.38817 4.86487 8.1843 4.53078 0.256891 8.16794 1.28388 4.98148 9.73093 
4.41439 3.70752 8.72885 3.31652 3.30342 9.85631 0.106158 4.80712 8.11402 
0.111004 3.43889 9.56554 4.71261 4.84875 9.95725 3.16383 0.216591 9.49932 
0.67265 3.87323 8.70026 0.734613 4.57367 8.11061 2.08111 4.41252 9.64373 
0.164196 4.28097 9.12845 3.45108 2.24474 8.23051 3.68197 4.33055 9.32107 
3.92392 3.1166 8.18856 4.06242 3.32433 9.61118 4.35908 1.65835 9.52791 
4.77638 4.14432 9.95881 4.81242 2.6574 9.68781 4.8632 3.51118 9.60287 
4.98431 0.706934 9.29092 4.46719 8.89881 0.11789 0.906376 9.76556 0.0702492 
0.877319 7.31302 0.00715958 0.0123631 8.24098 1.20548 3.3452 5.0774 1.5262 
3.74645 5.04972 0.774186 2.44873 8.46404 1.49469 2.53148 6.23059 0.355365 
1.1414 9.87936 1.17267 2.79499 7.12295 0.983346 3.09774 9.35337 0.454656 
1.9348 9.9609 0.136385 2.77768 7.684 0.156043 0.47584 5.3573 0.203012 
3.84005 7.83414 0.39036 0.00994233 9.05214 1.50014 2.80556 7.67351 1.79811 
3.31721 8.82463 1.91838 4.08699 5.54461 0.0256464 4.12481 7.87022 1.32852 
2.76937 6.0821 1.37574 3.07295 5.63307 0.743132 2.66689 9.75694 1.01494 
0.283697 9.74668 0.833224 2.90368 8.18784 0.923875 1.30808 9.28244 1.9549 
0.671714 8.99052 0.767379 3.49605 6.87366 1.70524 0.248739 6.6442 0.539844 
1.66287 5.89656 0.308755 2.31656 5.04066 1.14084 3.62959 6.88399 0.713142 
0.91796 6.24184 0.3435 1.56631 6.24618 1.23944 1.60535 8.93871 0.447377 
1.49505 8.66697 1.35605 1.96615 7.41384 0.907046 4.75872 7.12455 1.89138 
0.576894 6.41042 1.24984 0.98294 8.09774 0.143077 4.6592 5.60489 1.55522 
4.48884 7.31954 0.778648 2.14455 6.87814 0.181164 4.57337 5.16033 0.752126 
3.74047 8.9681 1.03769 0.567441 7.0191 1.94081 0.799046 6.3085 3.97372 
0.196571 8.74177 3.18287 4.61524 6.9168 3.88707 2.60351 7.99849 2.84929 
4.04696 9.4567 2.28578 4.75812 9.53604 3.11457 0.378082 8.42621 2.11727 
1.02693 9.79536 2.95648 2.59075 5.22164 2.04431 3.2781 5.06424 2.46739 
2.57564 8.76798 2.30271 3.24753 5.562 3.37769 0.117968 8.03182 3.48801 
2.81306 6.14292 2.42581 4.33234 5.32274 3.5435 0.458467 6.82099 2.9297 
3.87906 5.29283 2.91413 3.96784 8.32378 2.06642 0.00488132 9.8764 2.26595 
3.05995 8.87288 3.14525 1.44212 9.24186 3.12048 -0.0907414 9.51096 3.6685 
3.2709 7.52131 2.73799 3.43135 7.78939 3.68258 2.81165 6.91715 3.75137 
0.640317 9.29863 2.28883 0.0438628 5.7649 2.25957 1.54584 5.72747 3.13486 
1.32557 8.3878 2.23774 2.29464 6.79588 2.91771 3.31781 6.52681 3.16521 
1.75909 7.75471 3.20474 1.88487 5.91552 2.10978 0.697774 5.27619 2.19042 
3.32846 9.70715 2.91884 2.38145 5.32851 2.97889 2.48279 8.5305 3.89284 
4.33394 8.72259 2.82563 0.588187 7.08661 3.84637 1.61078 7.01646 3.74361 
1.51279 5.17815 3.79169 1.34453 8.84016 3.91106 2.44765 6.0796 3.44817 
3.75936 8.77894 3.7478 1.38528 6.59458 2.87756 1.68803 7.42917 2.32361 
4.74591 7.75451 3.66767 2.67119 6.84958 2.08699 2.1109 8.67359 3.06342 
0.661796 5.42481 3.87918 2.08658 9.52049 2.10435 2.35095 9.61439 3.09369 
0.855718 7.755 3.061 4.16867 7.79935 2.80902 4.31428 6.16107 2.16629 
4.53113 5.11001 2.39882 4.48533 6.2691 3.22649 0.0243857 8.75003 4.05624 
3.78159 5.40079 4.17543 2.88457 7.28735 5.97267 0.116207 9.35562 5.27091 
1.14656 9.40535 5.05157 3.82864 9.42916 4.49875 3.2325 8.44543 5.48952 
1.15111 8.5972 5.54869 2.99868 5.04866 5.3923 1.68837 5.20646 4.796 
2.86696 5.19151 4.3703 4.77435 5.03713 5.42004 0.785819 9.38774 4.09884 
2.77689 6.45971 5.21077 3.92185 9.84328 5.44731 3.35935 9.10485 5.95803 
3.2278 7.73596 5.07467 4.13701 9.19987 5.44954 4.54322 8.49424 5.69269 
2.66761 7.76698 4.29572 2.92677 5.82562 5.63761 2.12192 6.43701 5.78685 
1.11182 9.94937 5.83915 0.855015 6.78547 5.66378 2.7603 8.66531 4.76103 
1.18854 6.27329 5.18854 2.08943 9.31195 4.35616 2.46059 9.10037 5.82552 
1.16156 7.58046 5.13023 4.79185 9.25961 4.30251 1.58201 5.55514 5.67994 
3.34972 6.70109 4.50395 4.65784 7.76533 5.55066 0.672244 7.91402 4.28543 
0.399269 5.74895 5.20964 1.61663 7.7716 4.32445 2.16753 7.65402 5.1482 
4.34213 6.05248 4.65807 0.501653 6.58066 4.74355 4.28483 7.6459 4.64487 
2.2973 8.11049 5.87402 1.92045 8.54298 5.06649 0.273885 7.28985 5.84751 
1.95592 6.9465 4.8033 3.6144 7.11324 5.46427 4.85069 9.30564 5.26749 
[...]
POINT_DATA 1000
FIELD FieldData 7
id 1 1000 int
538 352 461 307 335 27 771 304 316 
864 9 674 497 770 901 4 742 487 
374 138 875 766 409 999 524 910 787 
716 906 582 940 767 308 764 208 32 
828 318 584 342 921 312 204 507 680 
748 980 433 7 509 62 907 12 647 
217 650 549 792 961 380 364 596 807 
469 288 513 868 437 203 15 531 228 
503 933 370 262 319 450 737 299 175 
112 682 391 514 618 625 359 609 600 
574 759 842 72 333 77 396 773 346 
106 919 105 425 958 918 33 358 896 
220 369 635 827 102 666 752 278 19 
485 530 366 189 147 689 951 389 271 
878 658 583 895 653 626 25 794 259 
660 198 543 865 988 472 547 56 821 
234 298 86 137 784 869 568 47 679 
412 66 418 741 830 207 348 511 2 
171 781 856 640 67 778 89 222 746 
250 722 861 613 636 339 539 98 241 
439 321 263 465 257 74 343 83 863 
65 454 482 671 277 80 476 687 35 
134 592 708 260 599 775 594 478 226 
492 283 265 14 960 141 414 519 43 
750 314 282 400 662 877 924 281 586 
233 516 495 190 776 40 816 57 937 
242 883 866 533 707 565 206 42 612 
819 21 672 49 581 237 881 898 430 
79 447 702 63 976 136 130 386 37 
1000 706 490 126 614 857 176 210 520 
518 91 160 109 279 246 486 322 162 
723 981 164 500 405 885 570 639 13 
55 979 252 927 525 218 854 310 135 
172 563 235 174 54 991 376 163 273 
255 149 100 471 256 197 849 517 48 
331 512 505 443 289 247 812 150 681 
84 457 884 945 473 838 481 986 930 
879 684 1 423 561 698 408 122 810 
209 622 28 334 788 143 941 297 633 
90 946 341 354 268 713 893 296 751 
483 818 491 290 936 254 151 950 925 
914 375 801 215 959 344 504 993 132 
615 847 545 922 844 129 181 394 564 
720 949 238 188 808 367 634 638 855 
540 183 701 5 306 111 286 728 851 
610 140 253 888 395 158 82 382 977 
97 705 502 953 837 24 239 557 214 
113 560 989 718 302 387 315 442 580 
148 64 388 363 704 642 982 420 285 
703 515 546 94 223 732 381 891 630 
972 120 360 107 46 577 267 859 199 
836 535 34 440 790 573 655 629 92 
116 328 301 912 955 904 964 36 696 
649 384 628 862 58 305 166 576 926 
73 813 426 438 294 202 229 3 317 
337 892 212 758 571 70 685 760 216 
416 789 275 406 280 899 536 428 974 
16 886 266 201 822 804 526 903 643 
908 598 756 929 510 232 858 11 772 
403 264 224 928 779 551 839 670 727 
104 826 110 153 133 909 555 139 293 
677 765 467 860 566 142 243 78 456 
853 659 656 749 692 939 755 743 943 
995 730 882 249 762 738 258 20 966 
905 619 731 890 327 795 392 623 603 
411 780 627 832 460 159 121 597 529 
691 193 407 605 673 421 665 975 932 
624 169 311 231 39 18 806 445 729 
803 245 506 187 948 602 434 902 585 
371 284 404 17 967 522 667 449 785 
326 427 186 678 75 641 725 734 340 
313 347 101 499 361 646 644 935 944 
240 493 761 501 157 611 123 637 521 
379 205 383 652 805 768 835 227 786 
968 236 769 569 345 498 675 719 23 
824 303 987 192 996 843 654 251 488 
608 53 823 717 973 916 350 200 829 
410 954 451 724 50 225 399 484 572 
840 548 351 61 956 96 431 329 559 
372 156 69 777 616 800 270 365 127 
754 261 446 590 648 272 291 413 923 
740 846 783 697 168 721 587 661 287 
424 38 992 745 468 876 51 95 845 
87 970 523 688 213 607 791 155 867 
463 462 195 167 668 494 833 480 793 
368 562 873 578 579 477 385 81 179 
983 621 470 747 455 799 194 453 60 
117 934 52 323 811 6 452 917 589 
118 984 59 103 144 871 119 398 419 
664 971 108 802 931 349 841 458 357 
798 68 496 969 900 962 700 10 631 
763 726 699 874 604 889 22 336 834 
429 244 556 645 911 814 915 711 593 
820 373 620 710 401 601 815 938 774 
309 744 221 44 952 248 913 178 693 
550 553 417 325 324 825 170 715 527 
422 295 432 712 184 29 30 362 464 
466 965 757 300 558 997 714 332 338 
897 489 942 683 541 185 76 542 436 
831 617 782 154 537 402 274 45 998 
8 459 377 165 145 797 173 180 444 
115 356 93 26 591 182 694 177 124 
191 355 848 567 114 676 736 985 397 
544 695 211 735 870 479 474 880 739 
651 393 657 532 663 534 152 320 588 
733 669 219 378 809 196 686 920 990 
125 99 88 276 415 230 31 850 957 
71 269 690 817 887 852 528 41 146 
441 978 128 475 390 709 894 131 575 
508 85 994 353 330 448 606 963 554 
161 872 796 435 292 552 632 947 595 
753 
type 1 1000 int
2 1 1 1 1 1 2 1 1 
2 1 2 1 2 2 1 2 1 
1 1 2 2 1 2 2 2 2 
2 2 2 2 2 1 2 1 1 
2 1 2 1 2 1 1 2 2 
2 2 1 1 2 1 2 1 2 
1 2 2 2 2 1 1 2 2 
1 1 2 2 1 1 1 2 1 
2 2 1 1 1 1 2 1 1 
1 2 1 2 2 2 1 2 2 
2 2 2 1 1 1 1 2 1 
1 2 1 1 2 2 1 1 2 
1 1 2 2 1 2 2 1 1 
1 2 1 1 1 2 2 1 1 
2 2 2 2 2 2 1 2 1 
2 1 2 2 2 1 2 1 2 
1 1 1 1 2 2 2 1 2 
1 1 1 2 2 1 1 2 1 
1 2 2 2 1 2 1 1 2 
1 2 2 2 2 1 2 1 1 
1 1 1 1 1 1 1 1 2 
1 1 1 2 1 1 1 2 1 
1 2 2 1 2 2 2 1 1 
1 1 1 1 2 1 1 2 1 
2 1 1 1 2 2 2 1 2 
1 2 1 1 2 1 2 1 2 
1 2 2 2 2 2 1 1 2 
2 1 2 1 2 1 2 2 1 
1 1 2 1 2 1 1 1 1 
2 2 1 1 2 2 1 1 2 
2 1 1 1 1 1 1 1 1 
2 2 1 1 1 2 2 2 1 
1 2 1 2 2 1 2 1 1 
1 2 1 1 1 2 1 1 1 
1 1 1 1 1 1 2 2 1 
1 2 2 1 1 1 2 1 2 
1 1 2 2 1 2 1 2 2 
2 2 1 1 2 2 1 1 2 
1 2 1 1 2 1 2 1 2 
1 2 1 1 1 2 2 1 2 
1 2 1 1 2 1 1 2 2 
2 1 2 1 2 1 2 2 1 
2 2 2 2 2 1 1 1 2 
2 2 1 1 2 1 2 2 2 
2 1 2 1 1 1 1 2 2 
2 1 1 2 1 1 1 1 2 
1 2 2 2 2 1 1 2 1 
1 2 2 2 1 1 1 1 2 
1 1 1 1 2 2 2 1 1 
2 2 2 1 1 2 1 2 2 
2 1 1 1 1 2 1 2 1 
2 2 1 1 2 2 2 2 1 
1 1 1 2 2 2 2 1 2 
2 1 2 2 1 1 1 2 2 
1 2 1 1 1 1 1 1 1 
1 2 1 2 2 1 2 2 1 
1 2 1 1 1 2 2 1 2 
1 2 1 1 2 2 2 2 2 
2 2 2 2 2 1 2 1 2 
1 1 1 2 2 2 2 2 2 
1 2 1 1 1 2 2 1 1 
2 2 1 2 2 1 1 1 1 
2 2 2 2 2 2 2 2 2 
2 2 2 1 2 2 1 1 2 
2 2 2 2 1 2 1 2 2 
1 2 2 2 1 1 1 2 2 
2 1 1 2 2 1 2 2 2 
2 1 1 1 1 1 2 1 2 
2 1 2 1 2 2 1 2 2 
1 1 1 1 2 2 2 1 2 
1 1 1 2 1 2 2 2 1 
1 1 1 1 1 2 2 2 2 
1 1 2 2 1 2 1 2 2 
1 1 1 2 2 2 2 1 2 
2 1 2 2 1 1 2 2 1 
2 1 2 1 2 2 2 1 1 
2 1 2 2 2 2 1 1 2 
1 2 1 2 1 1 1 1 2 
2 2 1 1 2 1 1 1 2 
1 1 1 2 2 2 1 1 1 
2 1 1 2 2 1 1 1 2 
2 2 2 2 1 2 2 2 1 
1 1 2 2 1 2 1 1 2 
1 2 2 2 1 2 2 1 2 
1 1 1 1 2 1 2 1 2 
1 2 2 2 2 1 1 1 1 
2 2 1 2 1 2 1 1 1 
1 2 1 1 2 1 1 2 2 
1 2 1 1 1 2 1 1 1 
2 2 1 2 2 1 2 1 1 
2 1 1 2 2 2 2 1 2 
2 2 2 2 2 2 1 1 2 
1 1 2 2 2 2 2 2 2 
2 1 2 2 1 2 2 2 2 
1 2 1 1 2 1 2 1 2 
2 2 1 1 1 2 1 2 2 
1 1 1 2 1 1 1 1 1 
1 2 2 1 2 2 2 1 1 
2 1 2 2 2 1 1 2 1 
2 2 2 1 2 1 1 1 2 
1 1 1 1 1 2 1 1 1 
1 1 1 1 2 1 2 1 1 
1 1 2 2 1 2 2 2 1 
2 2 1 2 2 1 1 2 2 
2 1 2 2 2 2 1 1 2 
2 2 1 1 2 1 2 2 2 
1 1 1 1 1 1 1 2 2 
1 1 2 2 2 2 2 1 1 
1 2 1 1 1 2 2 1 2 
2 1 2 1 1 1 2 2 2 
1 2 2 1 1 2 2 2 2 
2 
i 3 1000 int
127 1 0 -33 0 1 114 1 0 
101 1 0 -45 0 1 -48 0 1 
-57 0 0 -48 0 0 -56 0 0 
-23 0 1 115 1 0 -11 0 0 
106 1 1 -37 0 0 -49 0 0 
-84 0 0 17 0 -1 -60 0 0 
-11 0 1 -25 0 1 9 0 1 
-37 0 1 156 1 1 -10 0 0 
-17 0 1 -18 0 1 -34 0 1 
-42 0 0 31 1 0 12 0 0 
22 0 0 -41 0 1 -22 0 1 
-43 0 1 8 0 0 117 1 0 
-26 0 1 -33 0 1 -37 0 1 
-17 0 1 -45 0 1 -7 0 1 
-86 0 1 -50 0 0 -61 0 0 
79 1 -1 73 1 1 67 1 -1 
-25 0 0 -43 0 0 -29 0 0 
-33 0 0 -57 0 0 -41 0 0 
-16 0 0 -14 0 0 -85 0 0 
59 1 0 1 0 0 -26 0 1 
-19 0 0 -40 0 1 -24 0 0 
70 1 0 1 0 -1 -43 0 0 
-50 0 1 -64 0 0 -73 0 0 
-50 0 1 -32 0 0 -65 0 1 
-22 0 0 -13 0 0 -3 0 0 
-79 0 0 -7 0 0 34 1 0 
-17 0 0 -14 0 0 14 0 0 
-7 0 0 -9 0 0 -11 0 0 
-38 0 0 -18 0 1 1 0 0 
-19 0 0 -16 0 0 -17 0 1 
-8 0 1 -27 0 0 -53 0 1 
81 1 0 4 0 0 82 1 1 
-22 0 0 -28 0 0 94 1 0 
-26 0 0 -27 0 0 47 1 0 
-65 0 0 88 1 1 -41 0 0 
116 1 0 -15 0 0 -2 0 -1 
127 1 0 -27 0 0 -116 -1 0 
-31 0 0 0 0 -1 27 0 0 
5 0 -1 102 1 -1 -41 0 0 
-56 0 1 -21 0 1 -12 0 0 
73 1 0 -66 0 0 -36 0 0 
-22 0 0 -26 0 0 -50 0 0 
74 1 0 -18 0 0 -39 0 1 
-60 0 0 120 1 0 -4 0 -1 
-69 0 0 50 0 0 -62 0 -1 
31 0 0 -19 0 0 -64 0 0 
-37 0 -1 36 0 0 20 0 0 
69 0 0 -22 0 0 85 1 0 
-50 0 0 -59 0 0 -17 0 1 
-102 0 0 -57 0 1 -26 0 0 
-33 0 0 -41 0 0 -16 0 0 
-115 0 0 -12 0 0 -53 0 0 
-83 0 0 88 1 -1 84 1 1 
-5 0 0 -17 0 -1 -3 0 0 
0 0 -1 65 1 0 -81 0 0 
-74 0 0 112 1 0 -96 0 1 
-38 0 0 121 1 0 0 0 0 
-24 0 0 -69 0 0 -3 0 0 
-22 0 0 -58 0 0 -27 0 0 
-70 0 0 -2 0 0 138 1 0 
-16 0 0 10 0 -1 -19 0 0 
1 0 0 -18 0 0 30 0 0 
-12 0 0 74 1 0 -23 0 0 
-7 0 0 89 1 0 24 0 0 
1 0 0 -91 0 1 -13 0 0 
-14 0 0 61 1 0 -77 0 1 
-34 0 0 -12 0 -1 -71 0 0 
-73 0 0 18 1 -1 -71 0 -1 
-48 0 0 12 0 0 -51 0 0 
-91 0 0 -79 0 0 -35 0 0 
11 0 0 86 1 0 -3 0 0 
61 1 -1 -33 0 -1 -51 0 0 
-58 0 0 -42 0 0 98 1 -1 
-60 0 -1 -26 0 0 109 1 0 
-32 0 0 22 0 -1 97 1 0 
-38 0 0 -75 0 0 -43 0 0 
-20 0 0 -53 0 0 -9 0 0 
-4 0 0 80 1 0 -14 0 -1 
-120 -1 0 8 0 -1 8 0 -1 
134 1 -1 -171 -1 -1 -29 0 0 
-43 0 0 -49 0 0 5 0 0 
-30 0 0 -75 0 0 -18 0 -1 
4 0 0 -2 0 0 -34 0 0 
-6 0 -1 -31 0 -1 -21 0 0 
-42 0 0 40 0 1 85 0 1 
43 0 0 42 0 0 -15 0 0 
-12 0 0 32 0 0 -148 -1 0 
-58 -1 0 42 0 1 -70 -1 0 
80 0 0 41 0 1 0 0 0 
26 0 1 73 0 0 45 0 0 
-82 -1 0 -5 0 0 46 0 0 
9 0 0 187 1 0 107 0 1 
74 0 1 18 0 0 49 0 0 
48 0 0 35 0 0 29 0 0 
6 0 1 3 0 0 13 0 0 
-95 -1 1 32 0 1 -10 0 0 
44 0 0 52 0 1 85 0 1 
10 0 1 -92 -1 0 21 0 0 
-10 0 0 -9 0 1 -13 0 0 
-92 -1 0 2 0 1 -24 0 0 
41 0 -1 16 0 1 52 0 0 
-67 -1 0 80 0 0 -83 -1 1 
-32 -1 1 -5 0 0 -9 0 0 
39 0 0 -15 0 0 39 0 0 
0 0 1 -24 0 0 41 0 0 
5 0 0 25 0 0 -62 -1 0 
36 0 0 -101 -1 -1 -88 -1 0 
39 0 1 48 0 -1 13 0 0 
77 0 1 6 0 0 30 0 0 
37 0 0 4 0 0 4 0 1 
54 0 -1 40 0 1 -12 0 0 
90 0 1 43 0 0 -109 -1 -1 
-88 -1 0 42 0 0 25 0 0 
-6 0 0 44 0 0 39 0 0 
-108 -1 0 14 0 0 22 0 0 
23 0 0 33 0 0 34 0 0 
-6 0 0 80 0 0 -74 -1 1 
17 0 0 24 0 0 22 0 0 
-14 0 1 25 0 0 -100 -1 1 
7 0 0 29 0 -1 91 0 0 
55 0 0 82 0 0 38 0 -1 
79 0 0 5 0 0 3 0 0 
-33 0 0 15 0 -1 18 0 0 
0 0 0 58 0 -1 -116 -1 -1 
31 0 0 73 0 0 24 0 0 
23 0 0 17 0 0 61 0 0 
81 0 0 12 0 0 75 0 -1 
21 0 0 54 0 0 -70 -1 0 
35 0 0 50 0 -1 0 0 0 
10 0 0 64 0 1 -103 -1 0 
11 0 0 61 0 0 44 0 -1 
54 0 -1 15 0 -1 -116 -1 0 
-102 -1 0 38 0 -1 28 0 0 
20 0 -1 71 0 -1 38 0 0 
54 0 0 21 0 0 -81 -1 0 
26 0 -1 70 0 0 -96 -1 0 
153 1 0 31 0 0 6 0 0 
23 0 -1 -66 -1 -1 51 0 0 
3 0 0 -33 -1 0 -73 -1 0 
46 0 0 -94 -1 0 89 0 -1 
-116 -1 0 71 0 0 9 0 0 
26 0 -1 32 0 0 51 0 0 
-84 -1 0 69 0 0 -84 -1 -1 
11 0 0 5 0 -1 92 0 0 
-13 0 0 45 0 -1 -75 -1 0 
10 0 -1 71 0 -1 -104 -1 0 
0 0 -1 5 0 0 73 0 -1 
-81 -1 0 -101 -1 -1 3 0 0 
-16 0 0 -10 0 -1 -115 -1 1 
19 0 0 20 0 -1 42 0 0 
27 0 -1 -75 -1 -1 -81 -1 0 
-91 -1 0 85 0 0 77 0 -1 
-83 -1 0 -89 -1 0 -127 -1 -1 
86 0 -1 72 0 0 99 0 0 
17 0 0 -67 -1 0 -49 -1 0 
-116 -1 0 -77 -1 -1 7 0 0 
1 0 0 12 0 -1 59 0 -1 
19 0 -1 9 0 0 32 0 -1 
31 0 -1 -83 -1 -1 10 0 -1 
5 0 0 -33 0 0 19 0 0 
-34 0 0 33 0 -1 47 0 -1 
11 0 -1 47 0 -1 26 0 0 
43 0 0 107 0 0 42 0 -1 
24 0 -1 48 0 0 56 0 -1 
-42 -1 0 44 0 0 -14 0 0 
81 0 -1 34 0 -1 107 0 -1 
-20 0 -1 10 0 0 42 0 0 
22 0 0 -39 0 1 -56 0 1 
-48 0 0 -60 0 0 -37 0 0 
-41 0 1 -51 0 0 -63 0 0 
-91 0 0 -36 0 1 180 1 1 
-69 0 0 129 1 0 -77 0 0 
-52 0 1 -17 0 1 -86 0 0 
-54 0 1 -20 0 0 -27 0 1 
-45 0 1 -23 0 1 -24 0 1 
-15 0 1 -31 0 0 -37 0 1 
-8 0 0 -21 0 0 -43 0 1 
-1 0 0 -9 0 0 -69 0 1 
-8 0 0 -14 0 0 -3 0 1 
-31 0 1 -10 0 1 -44 0 1 
-2 0 1 115 1 0 -22 0 1 
25 0 0 67 1 1 -13 0 1 
-17 0 0 -24 0 1 -71 0 0 
-15 0 1 95 1 0 136 1 1 
-11 0 1 116 1 1 -58 0 0 
-27 0 0 14 0 1 -6 0 0 
55 1 0 -29 0 0 -44 0 1 
-105 0 1 76 1 0 -15 0 0 
-45 0 0 -30 0 0 -33 0 0 
-60 0 1 -76 0 0 -19 0 0 
-51 0 1 -65 0 0 120 1 1 
-42 0 1 -115 0 0 -18 0 1 
-19 0 0 -23 0 1 170 1 0 
-17 0 0 -14 0 0 -49 0 0 
-18 0 0 -32 0 1 79 1 0 
-32 0 0 -106 0 0 -13 0 0 
-30 0 0 -6 0 0 103 1 0 
99 1 0 -40 0 1 -5 0 0 
53 1 0 83 1 0 22 0 0 
13 0 0 63 1 -1 77 1 0 
27 1 1 87 1 1 -20 0 0 
24 0 -1 84 1 0 -6 0 0 
-33 0 1 -61 0 0 -16 0 0 
-59 0 0 -11 0 0 90 1 1 
79 1 0 -31 0 0 -48 0 0 
-50 0 0 106 1 0 72 1 0 
-46 0 0 91 1 0 -50 0 1 
-31 0 0 -75 0 0 11 0 0 
-60 0 0 76 1 -1 -12 0 0 
-51 0 0 -8 0 0 140 1 0 
-6 0 0 -2 0 0 45 1 0 
-6 0 0 61 1 1 -6 0 0 
-21 0 0 -32 0 0 -9 0 0 
-68 0 0 -6 0 0 -25 0 0 
15 0 0 -16 0 0 -33 0 0 
153 1 0 -22 0 0 -55 0 0 
-70 0 0 105 1 0 -72 0 0 
37 1 0 -24 0 0 -14 0 0 
-40 0 0 -37 0 1 -6 0 0 
-53 0 0 -91 0 -1 -27 0 0 
10 0 0 -63 0 -1 -78 0 -2 
-13 0 0 -51 0 0 -69 0 1 
106 1 0 -60 0 0 20 0 0 
125 1 -1 71 1 0 129 1 0 
-15 0 0 85 1 0 -56 0 0 
11 0 0 67 1 0 59 1 0 
23 0 0 0 0 -1 7 0 0 
-57 0 1 -19 0 0 -71 0 1 
-19 0 0 3 0 0 111 1 -1 
-36 0 0 -30 0 0 -38 0 -1 
42 1 0 -91 0 0 -9 0 0 
-17 0 0 82 1 0 0 0 0 
-108 0 0 10 0 0 -30 0 0 
-66 0 -1 26 0 0 -38 0 0 
-13 0 0 -57 0 0 -17 0 0 
-81 0 0 -46 0 0 -38 0 0 
-44 0 -1 -49 0 0 -77 0 0 
-55 0 0 26 0 0 -38 0 0 
-73 0 -1 -15 0 0 120 1 -1 
-51 0 0 -86 0 -1 -47 0 0 
-48 0 0 -8 0 0 -23 0 0 
5 0 -1 97 1 0 -78 0 -1 
-50 0 0 -39 0 -1 45 1 -1 
-44 0 0 -24 0 0 -20 0 0 
-27 0 -1 3 0 0 88 1 0 
-20 0 0 -27 0 -1 74 1 0 
7 0 0 -45 0 0 -89 0 0 
0 0 0 10 0 0 -22 0 0 
4 0 0 -9 0 -1 -18 0 0 
4 0 0 106 1 -1 -49 0 1 
7 0 0 88 1 0 35 0 1 
28 0 0 16 0 1 -9 0 0 
87 0 1 85 0 0 -73 -1 1 
84 0 0 -16 0 1 7 0 0 
20 0 0 -43 -1 1 81 0 0 
-20 0 0 83 0 1 -49 -1 0 
43 0 0 -22 0 0 50 0 0 
-107 -1 0 21 0 1 61 0 0 
13 0 0 6 0 0 41 0 0 
-97 -1 1 5 0 0 90 0 0 
-126 -1 0 30 0 0 12 0 1 
-62 -1 0 16 0 0 123 0 1 
-75 -1 0 4 0 1 -5 0 0 
15 0 0 14 0 0 26 0 1 
86 0 1 70 0 1 37 0 0 
5 0 0 -3 0 0 -11 0 0 
-11 0 0 31 0 0 38 0 0 
27 0 0 44 0 0 -65 -1 1 
-6 0 1 16 0 0 23 0 0 
33 0 0 25 0 0 -117 -1 1 
-87 -1 0 53 0 0 89 0 1 
51 0 0 -39 -1 0 -34 -1 0 
41 0 0 -66 -1 1 10 0 0 
9 0 1 73 0 0 23 0 -1 
44 0 0 38 0 1 3 0 0 
52 0 0 56 0 0 25 0 0 
-21 0 0 -159 -1 0 54 0 0 
41 0 0 -101 -1 -1 -76 -1 1 
27 0 0 38 0 0 19 0 1 
-50 -1 0 -47 -1 0 3 0 0 
60 0 0 45 0 0 29 0 0 
57 0 0 9 0 0 -55 -1 1 
25 0 0 61 0 0 45 0 0 
20 0 -1 34 0 0 -122 -1 0 
8 0 0 10 0 0 31 0 0 
34 0 0 -130 -1 1 40 0 0 
47 0 -1 47 0 0 60 0 -1 
68 0 0 85 0 0 17 0 0 
-142 -1 -1 45 0 0 17 0 0 
48 0 0 36 0 0 45 0 0 
4 0 0 5 0 0 15 0 0 
39 0 0 5 0 -1 55 0 0 
54 0 -1 20 0 0 17 0 0 
164 1 0 -75 -1 0 29 0 0 
19 0 0 56 0 -1 12 0 0 
7 0 0 51 0 0 12 0 0 
52 0 0 -119 -1 1 31 0 0 
38 0 0 36 0 1 59 0 -1 
2 0 0 63 0 0 -91 -1 0 
-84 -1 -1 54 0 0 -102 -1 0 
17 0 0 10 0 0 -110 -1 1 
48 0 -1 74 0 0 101 0 -1 
65 0 0 22 0 0 19 0 0 
32 0 -1 22 0 0 44 0 -1 
80 0 -1 -104 -1 0 51 0 -1 
-120 -1 0 44 0 0 75 0 0 
67 0 0 54 0 0 -100 -1 1 
6 0 0 -128 -1 -1 69 0 -1 
-124 -1 1 36 0 0 39 0 -1 
4 0 0 34 0 0 53 0 0 
27 0 0 8 0 0 42 0 0 
32 0 0 26 0 0 3 0 0 
29 0 -1 7 0 -1 29 0 0 
27 0 -1 37 0 0 31 0 0 
2 0 0 18 0 0 26 0 0 
90 0 -1 -133 -1 0 14 0 -1 
-72 -1 0 85 0 -1 110 0 -1 
23 0 -1 -82 -1 0 0 0 -1 
-98 -1 0 -47 -1 -1 37 0 0 
-73 -1 0 -1 0 -1 67 0 0 
66 0 0 52 0 0 38 0 -1 
22 0 0 -77 -1 0 34 0 -1 
11 0 -1 56 0 -1 -76 -1 0 
26 0 -1 -87 -1 -1 -9 0 0 
26 0 0 19 0 -1 13 0 0 
13 0 0 34 0 -1 49 0 0 
7 0 0 38 0 -1 67 0 -1 
-123 -1 0 55 0 0 34 0 -1 
55 0 0 28 0 -1 -7 0 0 
-64 -1 -1 46 0 0 -49 -1 -1 
-5 0 0 -6 0 -1 9 0 -1 
17 0 -1 -147 -1 -1 46 0 -1 
20 0 -1 22 0 0 57 0 0 
54 0 0 
v 3 1000 double
-366.89672728 -8.0052203747 16.974761872 -361.36933775 1.8688821766 -19.847052334 -251.53551523 12.850572241 2.2453773913 
-388.14427414 -5.7168656247 -21.036775374 -335.30677434 19.919660607 -5.8311428165 -357.91340409 14.285930598 -16.294583039 
-357.25231832 -38.241770469 9.9003632731 -367.5807743 8.0208528957 -19.071856249 -208.60487954 3.2439795639 -11.997827756 
-75.372967152 18.025492334 9.8447187114 -311.33265945 -5.2508183515 9.7577934601 -200.88516552 8.4275485587 -3.9195550604 
-286.2551226 -16.909225259 4.9496240643 -178.78557206 0.10330899813 -34.654648827 -358.74940781 -10.703661199 -4.3093010478 
-350.36480548 -20.910950834 -0.82656984312 -194.81494506 -2.2272059196 -16.738275184 -397.99922552 -9.5070114509 -37.066298695 
-72.004149702 -15.078886552 -6.5625039084 -183.10037878 4.9914763482 18.464948177 -295.86433522 11.547765891 2.362554068 
-296.39489563 6.4415094491 -13.661699379 -81.729829584 -1.6186091666 -8.5370438157 -114.17183025 -1.8559903584 -7.1235087024 
-130.29982996 -5.1682348915 -3.2040522305 -185.61233836 -7.4241405687 17.460704509 -137.62701781 -28.861681814 -7.1511616377 
-74.139171447 14.969131097 -4.3215363799 -503.56369516 -2.0907711386 -0.80837571476 -65.666438518 5.2361386613 8.6743506968 
-23.240226777 12.000085659 23.438294135 -291.43433317 6.5783995147 -7.8976965512 -295.85540107 -21.116727752 -4.4271788852 
-81.087919832 -5.9825044752 -5.6689573484 7.1505959075 -12.146441427 3.9541450384 -519.67794734 3.1364663113 -3.165979277 
-73.765209448 3.0629134821 -3.5838556332 -253.46744085 -0.15100373066 17.492566044 -191.2912189 3.5204967237 -4.4090102477 
-119.4732883 1.3989396292 5.0359416854 -236.93684886 -0.95542210545 -1.7379867185 -145.14549141 -10.057469442 22.11514919 
-312.20827244 -9.7991827148 24.942288393 -366.1489661 0.61371967303 -4.505157205 -454.01072462 -5.1710236025 -4.4905320335 
-275.29320441 14.64561173 6.7768024501 -485.48411565 19.199073744 6.5702092369 -478.87097262 -2.4622236364 23.273343164 
-223.19410902 0.95997388458 4.3316060633 -331.08400696 -15.494482463 -5.8690851547 -225.53815562 0.63679609418 -21.902057757 
-425.40119566 -16.992999319 1.5696062053 -362.87472595 -10.01378663 -3.2047696842 -278.60935126 -16.049141701 -9.218694701 
-147.77252029 9.1184510095 -18.101070174 -163.38284272 -19.933885915 -13.596658248 -74.882762471 -1.0744822814 9.0755169679 
-294.11963914 -5.3607427731 3.7905716948 -83.161402369 -1.9556303845 -4.3591630245 -170.78659096 1.4265616546 -1.9529654674 
-250.54921314 2.3628496759 13.430018238 -56.166851082 -2.7649143035 -6.9250842454 -160.60817622 -10.167984275 21.725387397 
-395.31949468 -11.323143981 -2.8281234312 -141.36916049 -1.9501944365 -13.030887732 -302.07874868 -12.227630547 0.84454121138 
-328.78969191 23.529264586 1.6379510791 -234.5932615 17.816805762 0.25345473377 -426.55369929 -9.3932196411 6.0287237983 
-364.67008737 -0.50506861181 -7.6583434128 -221.15359528 -28.536479349 -13.552417038 -355.37809773 12.063719075 -11.720806469 
-57.34479174 -8.5364642884 2.467817233 -141.48151473 -7.9628079365 -0.27337598226 -61.419799051 -17.922478507 8.0330297871 
-451.19431094 -24.979893342 -9.5959920641 -19.97283907 -2.3892774455 -26.644724478 -416.83030196 -9.3678101292 17.048950049 
-254.73745954 13.001387441 -22.915043988 -52.239301104 -12.653890056 -13.203335512 -80.56702157 3.9911573515 -15.821838711 
-40.960870514 -1.1726478113 19.186821864 -40.332069262 9.76608855 -3.8696499976 -4.0173411486 -5.5663306813 -11.07056779 
-275.13355693 7.7052136765 3.3166758516 -193.60100045 -16.331240279 18.732776458 -123.8396607 -18.898035619 10.809118835 
-219.91815797 -6.9515493315 0.57532461067 -95.614251753 -1.661780369 -6.5279418501 -235.35500347 7.1243419543 -11.505231924 
-74.475931735 -16.951871827 -18.095564428 -178.60888163 9.0853530837 -11.436776812 -375.81017448 -2.4043814409 5.5042658774 
-269.332922 -8.7644597135 2.4703987576 -71.540656996 14.159053217 -9.5305654019 -451.78401166 11.634860274 29.884680685 
-147.04438137 3.0759890716 -10.440349282 -302.63043173 -20.369495185 18.602165708 -360.36673483 -0.067152762442 -4.6285998423 
-200.43172725 19.561798799 24.670730798 -446.49514645 -1.269575379 11.931464811 -493.61177149 -2.7743055864 19.625517302 
-436.66299498 -18.916366171 22.872507846 -416.4866606 -10.40992904 19.93273417 -448.43063469 -26.452689444 1.5285075401 
-331.80291927 15.021668923 -3.2450899931 -75.097316557 32.594773738 -1.4021639094 -72.295553595 -15.790556516 -3.967940854 
-70.683352781 4.8237175623 -25.650938556 -176.43334715 -2.915347408 18.681269889 -141.06271572 -23.680947762 1.0954894093 
-276.2306867 11.604187475 5.8374431981 5.9581067818 15.630326819 1.0288253346 -35.75308434 -13.73811605 11.96327072 
-59.885738891 9.285346741 2.3581711412 -455.01944106 -34.039991613 38.731633621 -203.09308723 4.3154529938 1.5958598319 
-357.4612452 -21.899847743 12.018789655 -297.70081272 -14.041573649 4.9392972897 -68.002070965 23.750878864 -11.722149812 
-245.48523026 -16.349162802 28.636825178 -379.48325752 0.25740688123 -3.989919355 -380.485851 6.8050124506 4.5329954812 
-269.79769722 12.77173759 -10.490598989 -201.08291664 -13.117536559 -9.0293505317 -71.219287787 3.9659338939 20.871176765 
-394.8861345 -6.6914337981 12.293300126 -301.04125498 -14.019020139 4.0766944628 -433.81503759 24.08708056 3.1379802074 
-155.70078966 7.1314872603 -7.6599247849 -233.37982698 -13.5780979 -5.8922497561 -285.19795742 -7.5340392264 -0.7406788566 
-371.00527283 -13.300297555 22.512891442 12.802845736 7.7189852557 7.7506583953 -393.50231063 -0.23153007898 10.088358494 
-5.1916425602 -4.3799045099 -9.8831435155 -237.79424304 25.516638115 7.31190086 -336.83946375 -8.9464471473 3.5218335561 