# vtk DataFile Version 4.2
Generated by LIGGGHTS
ASCII
DATASET POLYDATA
POINTS 1000 float
2.11202 3.26844 1.58556 2.60784 0.226501 1.09474 1.99957 0.83218 0.876393 
1.62581 0.398681 0.170422 0.556653 3.05941 1.76969 1.68214 2.63464 1.01431 
3.95534 2.95616 1.38306 4.61056 2.99747 1.03267 2.05144 4.03731 0.787871 
4.00149 1.06999 0.849216 2.20837 1.56075 1.35529 0.769093 2.42715 0.934016 
1.7428 4.78532 0.450018 0.376518 0.697199 0.140936 1.64484 3.20069 0.238162 
0.0484981 0.222239 0.976527 0.628607 1.33563 0.838976 1.63038 3.8368 1.88045 
1.27481 3.41473 1.09474 1.65626 2.32741 0.0949168 1.32668 0.00903373 1.08705 
0.151969 1.77865 1.47926 2.23595 2.36784 1.72718 1.48516 1.47827 0.476092 
2.55363 0.0648545 0.158653 2.41958 1.67633 0.347144 0.908006 3.5124 0.0103693 
0.151517 2.99767 0.948542 0.537337 3.91416 1.43666 4.59595 3.85557 0.676761 
3.02171 0.19443 1.96137 2.87726 4.10594 0.460041 4.35474 1.1812 1.79343 
3.03239 0.940167 0.360896 3.641 3.58004 0.77091 4.03293 2.02837 0.921325 
3.4925 4.42034 1.24159 3.49504 0.191595 0.203295 4.62908 1.72142 0.254632 
3.9258 1.98886 1.8957 4.41656 4.43954 1.44825 0.912976 4.71934 0.56948 
0.158813 3.79388 0.424946 0.106351 4.69424 0.93432 4.40803 2.49065 0.101337 
2.87445 1.20237 1.25785 1.55793 4.59244 1.3437 2.62025 4.68377 1.57223 
2.70613 3.04209 2.33272 1.94353 0.772415 3.29287 0.974253 3.30253 3.97127 
1.33013 2.48363 3.06955 4.8569 0.559559 3.31526 3.15902 1.6104 2.19642 
0.748666 2.35971 2.26748 3.68131 1.67793 3.14479 3.64717 4.98966 3.5869 
0.477691 2.6859 3.03842 2.22823 4.49981 3.31961 2.5771 2.53827 3.89196 
3.27069 3.9868 2.15368 3.62587 2.89341 3.65209 0.39761 1.27072 2.72232 
0.0363545 0.114304 2.60841 4.34088 1.25218 3.53061 1.99923 1.88512 3.27622 
2.37615 3.34492 3.58826 0.340023 0.700265 3.37719 2.47984 4.26963 2.46855 
1.3136 0.403798 3.98717 1.59072 4.50858 2.3285 2.82871 0.426153 3.92157 
4.41729 4.51834 3.80553 0.781118 3.62906 3.11535 0.487779 3.65767 2.36999 
4.69732 3.29478 2.01054 0.794048 4.1466 3.80937 1.15422 0.0114851 2.75548 
0.695796 4.48003 2.60011 3.27792 2.39571 2.70926 2.70977 0.836224 2.11278 
4.49278 1.92724 2.63831 3.81281 0.793937 2.72051 3.37654 3.66643 3.56823 
4.41108 4.70593 2.75417 3.06429 4.22076 3.14806 0.740674 4.91869 3.6747 
2.91975 0.789123 3.02152 1.19795 2.48182 4.03507 1.90887 3.29401 4.43795 
4.84612 2.30448 4.53849 1.64503 0.0500095 4.80856 0.870324 0.264029 4.72987 
2.91701 4.67892 5.2851 1.54441 0.765081 5.32548 2.52724 1.98362 4.99133 
1.28849 1.63315 5.6443 1.07767 1.08523 4.01077 2.11598 4.19941 4.71245 
0.957591 2.94764 5.55678 1.88784 2.44424 4.8448 1.84701 3.64162 5.49941 
1.16403 1.76131 4.32178 0.746453 1.08933 4.92139 0.0389601 2.31206 5.649 
2.15692 2.3714 5.95481 4.12274 4.61996 5.17698 4.44699 3.6983 5.43553 
2.22796 1.48471 5.80601 0.578426 2.19097 5.14737 0.0576338 1.31401 5.35709 
0.0383475 0.485601 4.17245 0.0467563 3.54249 5.05433 1.24959 4.07525 4.60811 
1.66807 4.43463 5.45059 0.130379 3.20705 4.27344 0.0434826 2.96992 5.70224 
2.14426 0.55818 5.98477 1.40383 4.94477 4.24386 2.78824 4.25271 4.05281 
4.51764 0.957077 4.27402 3.247 2.95152 5.46618 3.66161 0.795844 4.51376 
3.8383 2.48493 4.97801 3.87831 0.253597 4.9293 3.60089 1.14588 5.72971 
0.892295 3.69564 5.41971 3.42241 1.50763 4.1232 0.131697 4.05313 4.11651 
3.81678 3.98177 4.43254 3.12341 3.1399 4.48694 3.49154 4.18179 5.83165 
3.93082 1.61993 5.00925 4.80087 0.219285 4.94614 1.05755 3.00144 7.71879 
0.708262 1.44224 6.28575 1.09319 0.448096 6.0634 1.77304 1.84004 7.6448 
1.68134 3.22315 6.94707 2.50904 4.79799 7.34539 1.66217 2.47791 6.67365 
1.18297 0.221025 6.90734 0.231897 0.0749902 6.6868 2.06874 3.20105 7.80034 
0.312761 2.8542 6.5368 4.01858 0.118305 7.29814 0.849492 4.63389 6.5491 
3.07573 0.0782521 7.2471 0.190099 1.84974 6.12179 2.38072 0.483219 7.16563 
1.24029 2.34882 7.69823 1.93627 4.16017 6.8615 0.634251 1.34053 7.31532 
2.04566 1.06789 7.52339 2.20349 1.84222 6.93055 1.26672 3.70282 6.27091 
1.12736 0.782838 7.55099 0.928657 2.58631 6.38903 4.68442 4.74481 6.28812 
3.13471 3.30897 7.25987 0.656403 2.07812 7.04998 0.74207 4.49832 7.85827 
2.82955 1.37664 6.56827 1.00754 3.76261 7.55346 0.124395 3.7849 7.49619 
3.16909 4.7817 6.77532 0.640011 3.72745 6.8554 4.74972 2.17174 7.72968 
3.26281 4.5188 7.6128 1.49422 4.51438 7.97789 2.73623 3.33183 6.41455 
4.36678 1.12207 7.57593 0.194444 3.61611 6.11418 2.52997 3.8792 7.19457 
3.99077 4.7464 6.8647 0.116692 2.62031 7.34271 3.46146 0.474917 6.06268 
4.89401 3.36677 6.28859 0.834935 3.0998 8.82261 4.52069 0.0822823 8.21725 
4.76782 4.85196 8.44951 2.00828 4.29968 9.81328 1.7004 3.71799 9.25128 
0.908533 0.173034 9.37228 2.39293 2.4841 8.59201 3.8901 0.939485 9.42386 
0.750169 1.12254 8.39068 2.45668 3.38955 9.74966 4.82526 0.997395 9.12589 
0.616706 1.92854 8.85129 1.34788 1.01877 9.5258 0.201156 2.34845 9.40228 
3.98543 4.09789 8.933 2.41684 0.311867 8.22626 1.53728 0.559206 8.31316 
0.777132 1.58328 9.57634 0.370865 2.12147 8.04956 1.39826 2.67361 9.05282 
3.88752 3.05355 9.15444 2.37335 4.86604 8.73159 4.32326 1.8622 9.34501 
0.328154 2.88403 8.25907 3.456 4.62852 9.13702 0.0406028 4.82809 8.70821 
4.61853 2.80568 9.19913 0.508044 4.84352 9.71685 0.372479 3.67736 8.23716 
0.828195 3.73577 9.06711 4.33115 0.382533 9.83525 4.57171 4.17776 9.68466 
3.61708 4.10779 9.92193 2.86643 0.18215 9.04762 4.3456 4.94665 9.99371 
4.42917 1.52366 8.48325 0.880396 4.29281 9.68076 4.37902 2.38053 8.39836 
3.93241 0.329807 8.14078 3.58076 3.06397 9.9769 0.281408 4.16362 8.91284 
3.4149 0.0922771 9.14658 0.988591 4.66948 8.7528 0.0849161 3.26696 9.61393 
3.09511 1.10832 9.26553 3.08855 3.95166 8.21619 3.17653 1.47544 8.02662 
3.29036 2.25066 9.28159 3.35469 1.74345 9.98188 3.25425 3.27791 8.72943 
3.63533 0.886229 8.4989 4.93696 3.34128 9.99619 3.90813 6.22247 1.18287 
-0.0744797 7.66274 1.86129 0.0327526 7.82531 0.70436 3.37466 9.47549 1.73965 
4.26643 9.6307 0.353286 3.78345 8.7648 0.236029 0.422992 8.61182 1.16152 
3.21139 8.51325 1.02308 2.43738 7.67047 0.199734 1.15499 7.4942 1.15782 
2.27093 5.3778 1.02514 3.15818 7.64871 1.22379 2.04558 7.34102 1.4794 
2.73348 6.11302 1.39822 4.79874 5.8415 0.0570464 0.641534 9.429 0.519968 
3.3017 6.7262 0.673566 0.893769 8.00348 0.266191 3.5043 6.96359 1.55335 
1.65731 9.94067 1.93142 3.54147 5.05229 0.454917 2.80868 8.69363 0.216587 
2.8643 8.53875 1.85744 3.89937 8.96191 1.33159 1.68629 7.3049 0.60119 
2.44052 5.74954 0.158226 3.13271 9.74734 0.911749 1.57156 5.70248 0.66537 
1.30875 6.03447 1.46769 0.705676 5.59751 0.66124 3.38613 5.9227 0.329648 
2.42387 6.74376 1.10678 1.87347 5.27011 1.99421 1.99799 6.56738 0.251362 
2.26168 9.32868 1.73879 4.27816 7.31453 0.355516 0.496571 7.38576 1.38148 
0.839952 5.10012 1.89457 0.413104 6.27573 1.57827 2.27878 8.53286 1.02391 
4.52726 6.09273 1.75364 4.54165 8.57499 0.957739 4.77334 7.12564 1.36068 
4.75629 6.05174 0.884843 0.512321 8.77071 2.21408 4.28685 7.50333 2.40357 
2.65593 6.55215 2.76806 4.14403 6.58291 2.44316 1.68162 9.4495 3.9942 
3.76304 8.19508 2.05497 4.77894 5.53117 2.16451 4.05917 6.89921 3.39121 
3.04939 6.19056 3.38317 1.27195 5.9119 3.26552 3.03076 9.71266 3.42998 
3.89192 9.49655 3.29479 4.55452 5.90493 3.20948 0.00443443 9.75418 3.54047 
3.6957 5.78388 3.35315 3.06547 9.78431 2.55284 1.18334 6.39681 2.39666 
1.91693 6.03781 2.23628 2.97237 7.08874 3.59185 1.3644 5.1894 2.84279 
3.2511 8.93932 3.97928 3.72526 5.70902 2.10198 3.84101 7.6775 3.64997 
2.89374 5.96321 2.27316 1.70388 9.75719 3.14511 0.830447 9.46774 3.88436 
3.37393 8.60299 3.06029 2.00465 8.42074 2.45018 0.258931 6.63668 3.28861 
1.19275 6.99392 3.57219 0.515112 6.81082 2.40057 2.31843 9.27056 2.79624 
1.45481 7.80692 3.15566 0.666207 5.95621 3.96112 1.49144 7.53185 2.10904 
0.26763 5.05635 2.81997 2.30466 7.80386 3.48736 4.6816 8.37086 2.34448 
3.52073 7.44123 2.79533 0.482339 5.94519 2.97332 0.0674602 5.21725 3.68934 
2.62388 6.89347 2.03578 2.00873 6.33023 3.79913 2.55086 7.4192 2.7449 
1.01651 8.58446 2.97891 4.27682 8.39235 3.17493 0.681955 7.74323 2.43464 
1.92226 5.27176 3.4471 4.88626 9.30353 2.23465 4.93051 6.48289 3.86875 
0.156189 9.47483 4.9268 0.430182 7.92865 4.84502 4.38815 6.01018 5.74761 
3.01593 7.95143 4.88043 2.59142 9.53156 4.24086 3.89529 5.23188 4.47981 
0.995929 8.46433 4.04016 4.13532 7.81148 5.78015 3.53296 7.68019 5.37367 
3.79052 7.88453 4.48498 4.20088 8.83984 4.02324 3.63496 9.74241 5.83006 
4.08698 8.88917 4.97984 3.40179 9.46557 4.83924 1.24614 9.0906 4.98885 
0.0431227 7.34553 5.49133 3.00982 7.98219 4.02285 2.95661 8.67771 4.97495 
4.07677 5.1161 5.9123 2.19256 7.7732 4.46938 0.384313 6.67371 5.90481 
4.51092 8.20097 4.94999 0.328889 7.1502 4.03298 0.38328 5.79509 5.02262 
1.10285 7.1874 4.66459 2.33042 5.12066 5.52355 2.70262 9.90081 5.65415 
0.834206 6.53307 5.25345 1.95134 8.52093 4.48206 -0.0279237 6.71863 4.8682 
2.33678 6.49813 5.35307 2.30342 5.773 4.79449 1.36907 5.76074 4.36543 
3.42552 6.88191 5.84316 1.56285 6.40247 5.46322 2.29199 8.34572 5.51152 
0.535325 6.42432 4.39405 2.20773 9.20335 5.06646 0.701579 5.08546 4.8009 
4.23818 6.99635 5.98119 2.20173 5.6923 5.98924 4.16851 7.23413 4.95045 
1.21279 5.22374 5.76349 2.24577 7.46162 5.42578 3.90477 6.47469 4.13348 
1.9713 6.91322 4.57686 2.93212 5.5154 4.07423 3.35912 6.86201 4.72921 
3.44829 6.0809 5.85463 3.56321 8.46741 5.72266 4.01157 6.30759 5.03533 
4.84042 9.50582 5.34958 4.84024 6.42758 4.91164 4.63621 8.1303 4.00032 
4.90347 8.65554 5.65674 2.32525 9.87744 6.56371 0.583802 8.11566 7.16979 
2.37552 9.08072 6.10744 3.53089 7.73792 6.43453 3.62278 6.87468 6.89943 
0.430517 6.38366 7.4877 1.74769 9.63179 7.37558 0.0487327 8.69695 7.19156 
4.10341 9.28434 7.12081 3.26185 5.76664 6.76099 1.25972 6.83763 6.05279 
0.872692 9.60603 7.61589 2.76803 8.05634 7.99552 4.18645 8.92617 6.2576 
0.78492 9.42016 6.44603 4.33216 5.71132 6.71173 0.830577 8.75788 7.83065 
3.91861 6.16474 7.39601 1.47426 9.03633 6.0382 3.2216 5.17091 6.0221 
4.11171 9.82441 6.42482 3.32971 8.05591 7.2819 2.49443 7.04123 7.19219 
[...]
POINT_DATA 1000
FIELD FieldData 7
id 1 1000 int
139 853 538 352 316 467 62 860 374 
16 507 308 857 777 903 77 266 828 
138 406 126 868 755 233 246 43 430 
312 764 864 133 281 536 275 787 461 
999 799 766 531 974 839 551 871 555 
280 529 579 730 907 759 159 486 647 
908 513 370 939 503 659 342 748 505 
962 15 101 411 477 392 691 609 506 
331 890 858 743 429 262 456 7 258 
773 603 249 893 460 391 958 371 445 
948 967 425 86 761 493 39 780 333 
646 932 869 327 278 189 277 660 635 
944 658 878 585 396 288 451 298 340 
673 231 358 137 653 259 725 240 792 
522 12 56 596 243 624 147 918 741 
687 501 548 250 482 157 498 703 830 
2 23 420 395 968 768 283 220 750 
260 476 835 399 708 785 65 326 123 
412 42 671 896 829 996 973 654 568 
33 644 206 171 572 200 257 586 99 
612 242 592 372 134 224 495 413 272 
956 771 800 263 345 790 201 226 204 
446 688 559 69 866 343 598 11 51 
898 414 95 697 229 91 282 881 61 
992 566 587 142 468 910 565 613 339 
584 497 783 775 740 37 601 850 820 
887 462 904 195 447 470 631 85 55 
457 500 747 706 525 160 749 955 196 
398 155 176 927 385 983 796 208 639 
614 354 589 273 179 664 136 6 578 
452 723 976 279 162 458 931 81 222 
604 838 700 841 884 815 774 763 995 
802 105 341 934 54 218 68 889 90 
810 203 541 22 874 971 946 28 873 
471 309 252 100 197 496 710 153 357 
164 256 867 925 969 556 427 84 681 
540 808 736 209 542 185 417 397 474 
150 394 332 29 324 111 436 834 483 
757 825 952 338 48 914 638 499 129 
558 751 561 847 188 942 891 617 274 
782 724 993 695 148 184 102 181 693 
698 235 5 532 491 550 821 728 334 
844 145 642 93 588 567 947 573 378 
191 50 610 350 115 676 355 94 732 
152 837 192 207 124 628 444 705 862 
733 295 547 441 140 107 382 972 290 
239 253 45 484 824 715 296 704 663 
132 248 957 630 83 177 356 165 985 
963 310 753 292 161 707 629 34 435 
544 31 515 125 317 690 36 426 400 
128 809 46 63 463 305 92 575 87 
294 384 97 315 494 285 415 816 982 
577 702 73 606 438 892 64 166 894 
168 365 533 27 516 9 760 562 4 
329 487 265 1000 804 756 789 727 883 
524 765 335 359 822 909 921 79 899 
526 264 318 924 779 510 937 216 135 
745 940 574 32 677 368 190 674 307 
670 428 966 304 795 110 106 875 770 
845 941 450 731 900 480 619 509 807 
228 485 901 597 692 600 716 469 319 
517 729 933 364 530 623 380 919 762 
656 389 121 437 682 882 714 626 373 
119 112 961 434 738 980 449 650 625 
905 20 742 217 346 255 842 737 943 
618 193 549 886 72 514 169 602 543 
752 689 583 827 784 667 806 640 25 
404 80 19 369 198 472 865 347 379 
987 803 975 245 47 17 666 18 936 
151 75 299 366 895 832 35 271 679 
154 637 746 902 187 627 234 311 734 
678 375 636 717 569 205 67 722 120 
488 719 781 916 383 611 951 236 675 
21 156 98 465 954 769 805 823 608 
348 53 361 225 935 284 511 478 861 
57 843 953 641 739 521 89 410 863 
251 988 321 539 158 778 557 49 418 
754 776 454 40 314 523 661 876 970 
616 141 826 846 14 594 351 856 237 
923 721 270 819 96 929 662 409 492 
303 767 261 241 146 403 872 127 38 
581 431 287 672 772 960 648 928 439 
840 213 227 519 108 554 60 416 668 
390 167 174 512 490 593 854 649 118 
52 232 885 386 833 130 930 210 13 
109 453 685 194 994 788 149 978 172 
328 117 405 570 811 906 563 643 621 
407 267 582 322 455 680 293 726 268 
1 103 78 633 879 175 812 620 945 
362 798 143 849 518 297 791 186 221 
622 713 607 289 433 720 981 922 376 
711 915 793 122 473 349 938 897 986 
605 104 991 422 244 10 712 443 336 
481 979 645 520 684 401 527 814 423 
419 59 917 178 300 744 959 464 113 
831 408 24 615 997 911 421 545 489 
76 466 851 163 965 818 247 183 325 
238 344 699 44 182 949 989 504 855 
214 564 880 367 683 432 665 254 794 
313 320 286 913 718 8 652 926 363 
219 634 402 170 537 502 669 223 41 
535 306 377 859 381 459 580 870 801 
360 560 848 553 797 977 912 82 479 
888 30 302 442 388 546 534 215 88 
173 387 694 440 786 701 950 180 657 
330 696 836 920 571 353 269 655 448 
276 66 599 71 758 131 211 212 595 
291 984 990 964 323 528 116 998 230 
3 813 552 58 475 651 877 424 337 
632 817 852 144 202 301 576 393 686 
508 199 70 735 591 590 709 26 114 
74 
type 1 1000 int
1 2 2 1 1 1 1 2 1 
1 2 1 2 2 2 1 1 2 
1 1 1 2 2 1 1 1 1 
1 2 2 1 1 2 1 2 1 
2 2 2 2 2 2 2 2 2 
1 2 2 2 2 2 1 1 2 
2 2 1 2 2 2 1 2 2 
2 1 1 1 1 1 2 2 2 
1 2 2 2 1 1 1 1 1 
2 2 1 2 1 1 2 1 1 
2 2 1 1 2 1 1 2 1 
2 2 2 1 1 1 1 2 2 
2 2 2 2 1 1 1 1 1 
2 1 1 1 2 1 2 1 2 
2 1 1 2 1 2 1 2 2 
2 2 2 1 1 1 1 2 2 
1 1 1 1 2 2 1 1 2 
1 1 2 1 2 2 1 1 1 
1 1 2 2 2 2 2 2 2 
1 2 1 1 2 1 1 2 1 
2 1 2 1 1 1 1 1 1 
2 2 2 1 1 2 1 1 1 
1 2 2 1 2 1 2 1 1 
2 1 1 2 1 1 1 2 1 
2 2 2 1 1 2 2 2 1 
2 1 2 2 2 1 2 2 2 
2 1 2 1 1 1 2 1 1 
1 1 2 2 2 1 2 2 1 
1 1 1 2 1 2 2 1 2 
2 1 2 1 1 2 1 1 2 
1 2 2 1 1 1 2 1 1 
2 2 2 2 2 2 2 2 2 
2 1 1 2 1 1 1 2 1 
2 1 2 1 2 2 2 1 2 
1 1 1 1 1 1 2 1 1 
1 1 2 2 2 2 1 1 2 
2 2 2 1 2 1 1 1 1 
1 1 1 1 1 1 1 2 1 
2 2 2 1 1 2 2 1 1 
2 2 2 2 1 2 2 2 1 
2 2 2 2 1 1 1 1 2 
2 1 1 2 1 2 2 2 1 
2 1 2 1 2 2 2 2 1 
1 1 2 1 1 2 1 1 2 
1 2 1 1 1 2 1 2 2 
2 1 2 1 1 1 1 2 1 
1 1 1 1 2 2 1 2 2 
1 1 2 2 1 1 1 1 2 
2 1 2 1 1 2 2 1 1 
2 1 2 1 1 2 1 1 1 
1 2 1 1 1 1 1 2 1 
1 1 1 1 1 1 1 2 2 
2 2 1 2 1 2 1 1 2 
1 1 2 1 2 1 2 2 1 
1 1 1 2 2 2 2 2 2 
2 2 1 1 2 2 2 1 2 
2 1 1 2 2 2 2 1 1 
2 2 2 1 2 1 1 2 1 
2 1 2 1 2 1 1 2 2 
2 2 1 2 2 1 2 2 2 
1 1 2 2 2 2 2 1 1 
2 2 2 1 2 2 1 2 2 
2 1 1 1 2 2 2 2 1 
1 1 2 1 2 2 1 2 2 
2 1 2 1 1 1 2 2 2 
2 1 2 2 1 2 1 2 2 
2 2 2 2 2 2 2 2 1 
1 1 1 1 1 1 2 1 1 
2 2 2 1 1 1 2 1 2 
1 1 1 1 2 2 1 1 2 
1 2 2 2 1 2 1 1 2 
2 1 2 2 2 1 1 2 1 
1 2 2 2 1 2 2 1 2 
1 1 1 1 2 2 2 2 2 
1 1 1 1 2 1 2 1 2 
1 2 2 2 2 2 1 1 2 
1 2 1 2 1 2 2 1 1 
2 2 1 1 1 2 2 2 2 
2 1 2 2 1 2 1 2 1 
2 2 1 2 1 2 2 1 1 
1 2 1 1 1 1 2 1 1 
2 1 1 2 2 2 2 2 1 
2 1 1 2 1 2 1 1 2 
1 1 1 2 1 2 2 2 1 
1 1 2 1 2 1 2 1 1 
1 1 2 1 2 2 1 2 1 
1 1 1 2 2 2 2 2 2 
1 1 2 1 1 2 1 2 1 
1 1 1 2 2 1 2 2 2 
1 2 1 2 2 1 2 1 1 
2 2 2 1 1 2 2 2 1 
2 2 2 1 1 1 2 2 2 
2 1 2 1 1 1 2 1 1 
1 2 2 2 2 1 2 2 1 
1 1 2 1 1 2 2 1 1 
2 1 1 2 2 2 1 2 1 
1 1 2 1 2 2 1 1 1 
1 1 2 1 1 2 2 2 2 
1 2 2 1 2 1 2 1 2 
1 1 1 2 2 1 2 2 1 
1 2 1 1 2 2 2 1 1 
2 1 1 2 1 1 2 2 2 
1 2 2 2 2 2 2 1 1 
2 1 1 1 1 2 2 1 1 
1 1 2 1 2 2 2 1 2 
1 2 2 2 2 1 1 2 1 
1 1 2 1 2 1 1 1 2 
1 2 2 2 1 2 1 2 1 
1 2 2 1 1 2 2 1 1 
2 2 2 1 1 1 2 1 2 
2 1 1 2 2 2 2 1 1 
1 
i 3 1000 int
-22 0 1 50 1 0 121 1 0 
-29 0 1 -54 0 0 129 1 1 
-27 0 0 -9 0 1 -10 0 1 
-65 0 0 -47 0 0 -19 0 1 
0 0 0 -68 0 0 -18 0 0 
77 1 1 -73 0 0 -25 0 1 
-23 0 1 -38 0 1 75 1 0 
-47 0 1 -42 0 0 -35 0 1 
102 1 1 -48 0 1 -19 0 1 
-5 0 1 -42 0 1 -22 0 1 
62 1 1 23 0 0 -87 0 0 
-33 0 0 -33 0 1 106 1 0 
-9 0 0 85 1 0 -34 0 1 
-30 0 0 171 1 1 -30 0 1 
-1 0 1 -10 0 0 -14 0 0 
-47 0 0 -4 0 0 -21 0 0 
-74 0 0 -29 0 0 -25 0 0 
96 1 0 68 1 1 -38 0 0 
-42 0 1 -40 0 0 -3 0 0 
-12 0 0 -21 0 0 -26 0 0 
-16 0 1 71 1 -1 -58 0 0 
-28 0 0 -47 0 1 -21 0 0 
-30 0 0 45 1 0 -17 0 0 
48 1 0 -15 0 0 -43 0 0 
5 0 0 -15 0 0 -6 0 0 
-28 0 0 -20 0 0 -74 0 0 
-4 0 0 -23 0 0 -38 0 1 
-25 0 0 73 1 0 -49 0 1 
7 0 0 -5 0 0 -11 0 0 
82 1 1 -28 0 0 -9 0 0 
99 1 0 71 1 -1 -60 0 0 
-17 0 1 -68 0 0 99 1 0 
-57 0 0 -102 0 0 5 0 0 
-30 0 0 -17 0 0 -25 0 0 
-10 0 0 96 1 -1 66 1 0 
-88 0 1 31 0 0 -105 -1 0 
-51 0 0 -15 0 0 68 1 0 
-45 0 1 -20 0 0 2 0 -1 
1 0 0 -57 0 0 -6 0 0 
58 1 -1 -32 0 1 -14 0 0 
-98 0 0 112 1 0 -58 0 -1 
-18 0 0 -65 0 0 52 1 0 
-10 0 0 -54 0 0 -21 0 0 
-39 0 1 -25 0 0 25 0 -1 
-63 0 0 -37 0 0 -81 0 0 
55 1 0 32 1 0 -53 0 0 
-22 0 0 24 0 0 -21 0 0 
124 1 0 -76 0 0 80 1 -1 
-1 0 0 -51 0 0 5 0 0 
26 1 0 100 1 0 -73 0 -2 
-76 0 0 118 1 0 -54 0 0 
-69 0 0 -10 0 0 -11 0 0 
-61 0 -1 -68 0 0 130 1 0 
-5 0 0 -2 0 0 -39 0 0 
-111 0 0 -48 0 0 2 0 0 
-2 0 -1 -7 0 0 3 0 -1 
-29 0 0 -56 0 1 -31 0 0 
109 1 0 145 1 0 -42 0 0 
0 0 -1 -35 0 0 -86 0 0 
-17 0 0 89 1 0 -42 0 -1 
5 0 0 -109 -1 0 -11 0 -1 
-50 0 0 -31 0 0 -65 0 0 
-39 0 0 -37 0 -1 -74 0 -1 
-42 0 0 -53 0 -1 113 1 -1 
-18 0 0 66 1 0 -62 0 0 
-48 0 0 -48 0 0 -83 0 0 
-21 0 0 8 0 0 -74 0 0 
-35 0 0 8 0 -1 -11 0 0 
-21 0 0 -20 0 -1 6 0 0 
-29 0 -1 55 1 -1 -8 0 -1 
-26 0 -1 -37 0 0 -5 0 -1 
91 1 -1 -5 0 -1 -78 0 0 
-84 0 0 108 1 0 -18 0 0 
-53 0 -1 11 0 0 -16 0 0 
-25 0 0 -21 0 0 -24 0 0 
-35 0 0 99 1 0 -18 0 0 
-67 0 -1 -42 0 0 -139 -1 0 
27 0 0 50 0 1 -44 -1 0 
52 0 0 81 0 0 28 0 0 
-66 -1 1 37 0 1 39 0 0 
10 0 0 53 0 1 41 0 0 
5 0 0 5 0 1 -91 -1 1 
40 0 1 -85 -1 0 44 0 0 
-100 -1 1 9 0 1 107 0 0 
28 0 0 12 0 1 24 0 1 
9 0 1 -101 -1 0 13 0 0 
8 0 0 8 0 0 31 0 1 
39 0 1 -14 0 1 25 0 1 
-77 -1 1 59 0 0 26 0 0 
-15 0 0 -6 0 0 40 0 0 
14 0 0 44 0 0 39 0 0 
176 1 0 45 0 0 23 0 0 
15 0 0 20 0 1 116 0 0 
35 0 1 3 0 1 39 0 0 
32 0 0 29 0 0 53 0 0 
-49 -1 1 8 0 1 -54 -1 1 
-6 0 1 42 0 0 21 0 0 
15 0 0 14 0 1 21 0 0 
50 0 0 3 0 0 14 0 0 
38 0 0 -68 -1 0 47 0 0 
49 0 0 41 0 0 43 0 0 
22 0 0 20 0 0 -43 -1 0 
36 0 0 25 0 0 83 0 1 
-9 0 0 36 0 0 86 0 1 
58 0 0 25 0 0 -107 -1 1 
27 0 0 -16 0 0 -11 0 0 
14 0 0 47 0 0 52 0 0 
-1 0 0 72 0 1 11 0 0 
-96 -1 0 58 0 0 -115 -1 1 
-101 -1 0 -113 -1 1 12 0 0 
37 0 0 36 0 -1 30 0 0 
45 0 -1 46 0 -1 -69 -1 0 
41 0 0 42 0 0 34 0 0 
29 0 0 22 0 0 51 0 0 
55 0 0 58 0 -1 33 0 0 
26 0 0 39 0 0 -1 0 0 
13 0 -1 15 0 0 -65 -1 0 
19 0 0 87 0 0 40 0 0 
10 0 0 10 0 0 12 0 0 
18 0 -1 35 0 1 -77 -1 -1 
58 0 -1 -102 -1 0 17 0 0 
32 0 0 -14 0 0 34 0 0 
0 0 -1 32 0 0 30 0 0 
23 0 0 -25 0 0 18 0 -1 
26 0 -1 34 0 -1 33 0 0 
80 0 0 19 0 0 20 0 0 
50 0 0 70 0 0 -97 -1 0 
40 0 -1 24 0 0 4 0 0 
22 0 0 -44 -1 0 -65 -1 0 
63 0 0 10 0 0 24 0 -1 
38 0 0 29 0 -1 65 0 -1 
50 0 0 -17 0 0 -109 -1 1 
1 0 0 -88 -1 0 23 0 0 
79 0 1 72 0 0 17 0 0 
18 0 0 -27 -1 0 -34 0 0 
87 0 -1 43 0 0 69 0 0 
25 0 0 68 0 0 -85 -1 0 
-59 -1 -1 27 0 -1 75 0 0 
-107 -1 0 -90 -1 0 54 0 0 
26 0 0 11 0 0 82 0 0 
27 0 -1 69 0 -1 35 0 0 
59 0 0 -115 -1 0 37 0 -1 
39 0 0 69 0 0 43 0 0 
21 0 0 46 0 -1 34 0 0 
44 0 0 -10 0 0 53 0 0 
-138 -1 -1 -5 0 0 -161 -1 -1 
-71 -1 -1 95 0 0 15 0 -1 
3 0 0 62 0 0 -95 -1 -1 
-91 -1 0 -14 0 0 30 0 -1 
-76 -1 -1 39 0 -1 -55 -1 -1 
11 0 0 81 0 -1 81 0 0 
40 0 -1 83 0 0 45 0 -1 
6 0 0 66 0 -1 4 0 0 
44 0 0 -33 0 0 2 0 0 
9 0 0 7 0 -1 70 0 -1 
-1 0 -1 -4 0 0 -1 0 -1 
74 0 -1 80 0 0 41 0 0 
-58 -1 -1 23 0 -1 33 0 -1 
43 0 -1 10 0 -1 7 0 0 
3 0 0 -82 0 0 125 1 0 
-45 0 1 -73 0 1 108 1 0 
-36 0 1 78 1 1 -81 0 0 
-46 0 1 -57 0 0 -33 0 1 
-54 0 0 -83 0 0 -22 0 1 
-57 0 0 -43 0 1 8 0 0 
-16 0 1 90 1 0 -42 0 1 
-17 0 0 -14 0 1 -10 0 1 
-43 0 1 -38 0 1 -59 0 0 
-50 0 1 -8 0 0 -31 0 1 
-31 0 1 -13 0 0 -29 0 0 
-14 0 0 -53 0 1 -13 0 0 
0 0 1 22 0 0 -8 0 1 
111 1 0 -15 0 1 -20 0 0 
-20 0 1 -10 0 0 94 1 0 
-9 0 1 -34 0 1 -15 0 1 
-45 0 0 -48 0 0 -20 0 1 
-25 0 0 11 0 1 -36 0 0 
-18 0 1 -7 0 0 28 1 0 
162 1 0 -34 0 0 -38 0 1 
-21 0 1 -40 0 0 -23 0 0 
-62 0 1 -53 0 1 -46 0 0 
-37 0 1 69 1 0 -15 0 1 
-42 0 0 64 1 0 -7 0 0 
-24 0 0 84 1 1 -12 0 0 
-17 0 0 -19 0 1 -31 0 1 
-25 0 1 -23 0 0 -63 0 0 
-41 0 1 -25 0 0 93 1 0 
-62 0 0 -9 0 0 -18 0 0 
154 1 0 -2 0 -1 -43 0 0 
-11 0 0 -7 0 0 1 0 0 
-43 0 0 113 1 1 67 1 1 
-7 0 0 -13 0 0 2 0 0 
-17 0 0 -111 0 0 18 0 -1 
-15 0 0 87 1 0 -28 0 1 
-50 0 1 -15 0 0 -30 0 0 
-17 0 1 77 1 0 -85 0 0 
121 1 0 73 1 0 -36 0 0 
77 1 0 67 1 0 -61 0 0 
5 0 -1 -33 0 0 -35 0 1 
-28 0 0 -55 0 1 -51 0 0 
-56 0 0 -71 0 0 -65 0 0 
11 0 0 -12 0 0 -39 0 0 
-25 0 0 -17 0 0 20 0 0 
-35 0 -1 -5 0 0 -49 0 0 
53 1 0 73 1 0 81 1 1 
-28 0 0 -37 0 0 -58 0 0 
27 0 0 -15 0 0 5 0 0 
-33 0 0 53 1 1 -14 0 0 
-11 0 0 -59 0 0 -28 0 0 
-73 0 1 -50 0 0 -15 0 0 
2 0 0 -34 0 1 1 0 0 
83 1 0 -47 0 0 -12 0 0 
-47 0 0 -5 0 0 -29 0 0 
-6 0 0 52 1 -1 -54 0 0 
-36 0 0 120 1 -1 -87 0 -1 
105 1 0 -66 0 0 -70 0 -1 
-68 0 1 80 1 0 59 1 0 
-36 0 -1 -24 0 0 -12 0 0 
-20 0 0 -56 0 0 -12 0 0 
-72 0 0 27 0 0 0 0 0 
2 0 0 76 1 0 21 0 0 
-59 0 -1 105 1 -1 -16 0 0 
-5 0 0 3 0 0 -14 0 0 
-26 0 0 -20 0 0 -73 0 0 
-17 0 -1 13 0 0 -2 0 0 
74 1 0 8 0 0 40 1 0 
-6 0 0 3 0 0 -4 0 0 
-37 0 0 -14 0 0 -23 0 0 
-18 0 0 35 0 0 11 0 -1 
-67 0 0 5 0 0 -94 0 1 
65 1 0 5 0 0 -50 0 0 
-44 0 0 -50 0 0 82 1 0 
-9 0 0 -40 0 0 -45 0 1 
-24 0 -1 -21 0 0 100 1 -1 
-13 0 0 -1 0 0 106 1 -1 
-21 0 0 11 0 0 -44 0 0 
-16 0 0 -77 0 0 -31 0 0 
37 1 -1 83 1 0 -49 0 0 
-29 0 0 -34 0 0 -14 0 0 
-24 0 0 146 1 0 -88 0 0 
61 1 0 -39 0 0 -7 0 0 
129 1 0 -9 0 0 0 0 -1 
-6 0 -1 -44 0 0 -43 0 0 
-1 0 0 -42 0 -1 68 1 0 
-18 0 -1 -40 0 0 80 1 0 
90 1 0 -7 0 -1 -15 0 0 
-12 0 0 81 1 0 -47 0 0 
-30 0 -1 -60 -1 1 -43 -1 0 
9 0 1 -43 -1 0 -17 0 1 
30 0 0 79 0 0 37 0 -1 
22 0 0 -65 -1 0 18 0 1 
-12 0 0 2 0 1 82 0 1 
119 0 1 -33 -1 1 11 0 0 
28 0 0 19 0 0 -13 0 0 
-13 0 0 68 0 0 -15 0 0 
7 0 0 28 0 0 20 0 1 
-119 -1 0 30 0 0 30 0 0 
-6 0 0 17 0 0 -87 -1 0 
9 0 0 -55 -1 0 2 0 0 
-87 -1 1 2 0 1 27 0 0 
-1 0 1 -27 0 1 5 0 0 
22 0 0 -78 -1 1 12 0 0 
15 0 0 4 0 0 -57 -1 0 
-66 -1 0 69 0 0 23 0 0 
-103 -1 -1 4 0 0 13 0 1 
-69 -1 1 85 0 1 14 0 0 
36 0 1 3 0 0 33 0 0 
2 0 0 -81 -1 0 29 0 0 
-2 0 1 -76 -1 0 76 0 0 
26 0 0 41 0 0 42 0 0 
11 0 0 -94 -1 1 31 0 1 
-96 -1 -1 62 0 -1 8 0 0 
32 0 0 20 0 0 -62 -1 0 
35 0 0 25 0 0 77 0 0 
40 0 0 2 0 0 22 0 0 
9 0 0 18 0 0 38 0 1 
13 0 0 -2 0 1 49 0 0 
-136 -1 -1 -150 -1 0 -60 -1 1 
46 0 0 32 0 0 52 0 0 
51 0 -1 49 0 1 39 0 0 
42 0 0 42 0 0 44 0 0 
14 0 0 -69 -1 1 -82 -1 0 
33 0 0 35 0 0 13 0 0 
9 0 0 52 0 -1 57 0 0 
68 0 0 13 0 0 22 0 -1 
36 0 0 -7 0 0 84 0 -1 
76 0 0 16 0 0 -96 -1 -1 
72 0 0 71 0 -1 53 0 -1 
49 0 0 37 0 0 -75 -1 0 
75 0 0 2 0 -1 77 0 0 
-83 -1 0 33 0 -1 43 0 -1 
-97 -1 0 20 0 0 22 0 -1 
19 0 -1 50 0 -1 61 0 1 
48 0 0 20 0 0 -109 -1 0 
7 0 0 -1 0 0 25 0 0 
41 0 -1 5 0 0 15 0 0 
22 0 1 2 0 0 49 0 0 
-63 -1 0 15 0 0 53 0 0 
7 0 0 -79 -1 0 13 0 0 
10 0 0 23 0 0 8 0 -1 
13 0 -1 52 0 -1 -86 -1 0 
63 0 0 59 0 0 -68 -1 0 
-126 -1 0 -12 0 -1 -81 -1 -1 
69 0 0 68 0 -1 -103 -1 1 
-83 -1 0 18 0 0 9 0 0 
87 0 0 7 0 0 -111 -1 -1 
-75 -1 0 30 0 0 -94 -1 1 
-123 -1 1 97 0 -1 47 0 0 
18 0 -1 20 0 -1 40 0 0 
142 1 0 2 0 0 65 0 0 
4 0 -1 -70 -1 0 1 0 0 
29 0 0 28 0 0 34 0 0 
61 0 0 -78 -1 -1 -113 -1 0 
15 0 0 -64 -1 1 25 0 0 
14 0 -1 21 0 0 25 0 0 
25 0 -1 9 0 -1 82 0 -1 
-76 -1 0 8 0 0 52 0 0 
-72 -1 0 -110 -1 0 -8 0 0 
-68 -1 0 -13 0 0 13 0 -1 
18 0 0 -21 0 -1 35 0 -1 
49 0 0 102 0 -1 53 0 0 
-45 -1 0 66 0 0 0 0 -1 
29 0 -1 -67 -1 -1 23 0 -1 
-1 0 0 -97 -1 0 65 0 0 
43 0 0 103 0 0 44 0 -1 
31 0 -1 12 0 0 28 0 -1 
103 0 0 7 0 0 77 0 -1 
19 0 -1 9 0 -1 -70 -1 0 
-5 0 -1 52 0 -1 56 0 -1 
46 0 -1 4 0 -1 21 0 -1 
-115 -1 0 -121 -1 -1 39 0 0 
26 0 0 -96 -1 0 5 0 -1 
46 0 0 75 0 -1 -122 -1 -1 
29 0 0 
v 3 1000 double
-160.80026135 -6.7354625186 -20.670766452 -462.2005414 1.4535254072 14.432879756 -385.37973548 -0.61133073229 14.369044223 
-451.45908821 15.460846605 7.7032802824 -203.11165446 -4.1273668579 -13.019378076 -212.59214203 -13.006466007 -9.975939401 
-170.84588854 -24.10117667 25.772230328 -188.891735 13.05788586 7.4881613585 -74.012673735 -25.453633627 8.412383641 
-349.5180879 -12.907533516 5.0503292423 -307.06951235 5.7524781573 18.287653419 -219.37534903 -18.827640546 3.3439493011 
-29.336810324 21.315142718 3.4888839269 -414.91006547 9.7795224338 -5.4752819852 -147.01704785 8.663731044 -0.10866204764 
-488.96932375 10.636574029 9.8654354467 -309.87795137 -13.343394764 19.15700422 -156.47910106 -2.5284469469 -0.65838222711 
-173.61567521 7.751970478 -3.7735450962 -229.00804498 -8.9489931361 -9.7684906334 -470.08274719 -8.4779206921 -10.628082273 
-308.75900723 4.1962020145 6.725122263 -237.24700271 2.2080293883 20.55744172 -311.88223743 -2.9166188742 12.542840409 
-478.06631762 1.4841632217 13.275920112 -311.65134832 24.286724931 -7.5157404986 -153.84835197 -7.0494549072 8.0193626628 
-213.20663103 2.5306908296 7.948030212 -152.77941255 33.078846413 -3.7772211332 -79.567730462 -1.8032933994 -18.041977606 
-437.83608096 -7.2765245286 -21.502820939 -73.91862325 -6.7784913866 0.6318022628 -323.90676363 -11.740409316 -5.637259739 
-373.52011987 -7.4877598934 4.1523746451 -83.167127533 -11.275428139 6.1955622207 -265.94292764 12.468034881 -9.2700280157 
-64.03319301 3.3303990585 -8.6496627046 -460.19709735 -3.8670564606 13.816540971 -286.13260432 -9.9700578106 2.0974595228 
-294.53873278 30.616588637 -0.39136724445 -58.08248855 0.04816635729 -10.615519437 -33.016735297 -9.1211691884 18.866697093 
-147.33450219 19.521643189 14.369650558 -27.995654692 -8.0877379521 32.262852053 -246.97316941 28.870422508 -9.209669534 
-354.12483603 4.24233693 2.1210814362 -55.078918096 8.2795459596 3.6184158208 -63.223685508 5.3050577232 7.0176863139 
-192.21015621 3.4705681581 9.9320146129 -415.51642599 1.2386550418 21.449997223 -189.28209467 7.4679953969 2.7964070093 
-244.43026656 5.5994631807 10.864099856 -394.95297825 -24.814211337 -23.598311478 -303.59733213 -1.5666576218 11.736898734 
-245.26998135 -17.842451209 6.1130800826 -305.6610092 1.8737794711 16.774642523 -49.734535851 2.835323616 3.9098893299 
-242.32183726 -3.6040793319 7.9603989572 -59.367034194 -10.597888466 24.173142572 -218.16593036 -25.935651057 1.155346363 
-103.48493409 3.7250348847 -24.488501233 -204.96315228 -15.874337481 -4.5952514795 -357.92430714 11.556873371 -21.009680973 
-473.37272594 5.9350209404 22.815934337 -310.99709353 -4.3278462877 -5.3268404579 -294.88222109 4.6372293991 -17.231141988 
-168.75686139 0.0925309327 -2.5480823938 -430.62238687 11.401937006 7.2382250213 -86.125880179 0.57786692011 -22.164617188 
-433.25889823 -19.527478626 -11.473268167 -81.68541998 8.8259876865 19.698463591 -434.29730208 0.83766516177 31.32461174 
-53.43469165 5.071695337 2.0668666133 -159.02643166 0.91032795154 -3.4840331098 -160.65097546 8.5309880123 -7.4440384283 
-155.30359126 1.9801282376 23.894070658 -114.9472339 20.710069988 -4.0944725843 -529.38652945 11.396861216 -9.0514827334 
-69.165236569 1.3026213191 15.294404926 -257.16762972 19.830700384 -1.6428700108 -408.8637381 6.7721329944 5.4343926156 
-307.53197889 16.131691579 9.0373564271 -391.27727374 4.2317061619 -4.917115768 -150.86872958 7.0844004463 4.1406254787 
17.708319193 -14.490742387 20.145022294 -87.88610902 22.215549381 -2.7671617448 -13.602211593 23.655571484 -26.168599624 
-407.24321572 -2.7999720254 23.739149921 -237.6351216 -0.58935599882 13.37899468 -187.13269582 10.397955633 -11.862398484 
-276.70856236 2.3738788498 -9.1176329472 -463.33888208 -15.03933148 38.283867367 -436.42753419 -27.834533562 6.3275558414 
9.165095506 -11.102442067 -40.0689065 -417.45978043 11.797094112 1.7422793965 -249.78786784 -17.694854195 17.418076556 
-380.79934952 27.739694998 -4.7875001395 -402.30382499 6.2706326277 -11.215564282 -99.427770671 27.236427971 -12.117651082 
-225.17364954 -1.6846165591 -10.736790709 -252.83312087 2.1587558583 11.746021088 -138.96119054 -5.7906817273 4.5813040114 
-313.29622348 8.4836742068 18.033550378 -373.18218886 11.429558094 -12.066557054 -269.78380453 -18.835149279 -16.070316609 
-305.53493828 22.86284753 -5.9016045442 -32.360292338 -1.2961699667 -11.644631171 -133.51780384 3.4940009596 -17.288192191 
-390.46430477 5.7708804834 -8.0130431887 -287.33416959 -7.8841318541 -42.079406181 -375.18252862 -11.364185813 6.985285842 
-414.51561711 -2.3591310433 9.1359863542 -127.09815217 -1.2952274027 -9.7528387309 -120.37848604 1.0220322365 1.7248932748 
-64.748986762 17.258216111 6.0087650643 -192.26304498 -15.22753281 -7.9414964668 -199.11533369 -8.2684511683 -13.239693428 
-474.26590311 4.6135382952 -19.748013161 -45.873910726 8.538343758 11.960218481 -104.04482005 11.123338104 -10.55453003 
-377.00375596 -2.9321502864 19.579291804 -238.38504146 11.145109436 1.9444768343 -387.7623814 -3.3221868778 5.5434863691 
-255.17143669 11.078638611 -10.495423549 -423.69988197 -8.0838426446 31.664201668 -380.52001146 21.109694382 8.6814843652 
-148.88449017 27.764958405 -9.5410669729 -331.13034566 12.976716331 -8.1844033761 -95.017657375 7.4456859202 -14.608513665 
-105.51471993 6.7411599025 -16.780873957 -219.13777742 8.2847636401 -12.307987155 -28.254377552 -16.47975933 -4.0095702561 
-319.94542764 -5.4145758639 1.3441037112 -455.36791473 1.1255468046 -17.918412283 -226.83892359 16.292443702 -7.6587029443 
-336.26291294 -15.974387223 19.766981506 -472.09152012 3.8813551485 -19.564078076 -326.25645056 -1.0321123384 37.689754134 
-165.30634231 -1.6362417559 10.341598711 -1.4987486427 -11.675166577 -11.557151757 -280.80967038 -2.4089626086 28.128182655 