ITEM: TIMESTEP
26500
ITEM: NUMBER OF ATOMS
1000
ITEM: BOX BOUNDS xy xz yz pp pp pp
0 10 0
0 10 0
-0 10 0
ITEM: ATOMS id type type x y z ix iy iz vx vy vz fx fy fz omegax omegay omegaz radius 
745 2 2 1.62755 3.81353 1.41174 -6 0 1 -87.7007 -11.3903 21.7262 -644.18 -1075.8 419.887 0 0 0 0.5 
776 2 2 1.79209 0.09945 0.519139 -75 0 1 -501.143 2.98204 6.16684 3968.4 -1676.85 1169.31 0 0 0 0.5 
413 1 1 3.31552 4.98385 0.856257 -41 0 0 40.3771 12.0775 -14.0805 -685.366 1779.03 -862.652 0 0 0 0.5 
130 1 1 2.37276 2.0159 1.17692 -21 0 0 -268.975 -3.93174 8.87811 220.554 -530.184 439.015 0 0 0 0.5 
219 1 1 2.20542 4.20765 0.344175 16 0 0 -28.8865 -17.473 20.5644 966.671 -2197.75 -1003.54 0 0 0 0.5 
916 2 2 1.09663 1.18025 0.849614 -52 0 0 -362.467 6.21821 5.03727 -403.08 -706.933 -245.947 0 0 0 0.5 
35 1 1 2.51785 1.71336 0.195388 -96 0 2 -276.013 -11.9992 -9.94028 146.49 892.632 -1006.1 0 0 0 0.5 
984 2 2 4.242 2.41231 1.08925 107 1 1 -184.266 -32.4145 -2.727 -2179.85 2196.11 -1553.25 0 0 0 0.5 
226 1 1 1.09223 0.550889 1.89138 -69 0 1 -438.583 2.73901 -8.46794 -532.375 3235.49 -1259.57 0 0 0 0.5 
263 1 1 0.0323813 1.13784 0.77427 -26 0 1 -322.052 -7.45877 34.869 510.885 -1911.91 -1700.77 0 0 0 0.5 
598 2 2 3.73439 2.96227 0.823178 -30 0 1 -154.633 -4.43576 -21.2853 422.486 -1752.27 1234.96 0 0 0 0.5 
196 1 1 1.56289 1.29399 1.45216 143 1 0 -356.361 6.57623 14.6377 975.052 -2814.43 2038.27 0 0 0 0.5 
162 1 1 0.531425 0.285126 1.16697 75 1 0 -450.419 5.83418 1.92699 142.146 -432.516 -569.596 0 0 0 0.5 
908 2 2 2.31239 2.54256 0.501669 -57 0 1 -244.849 14.5959 5.94165 -2164.34 -1050.79 -926.316 0 0 0 0.5 
313 1 1 0.132452 0.707083 1.74908 -93 0 0 -430.298 21.5384 8.05452 645.021 -1158.07 -121.831 0 0 0 0.5 
566 2 2 4.03643 3.85614 1.62918 165 1 1 -107.509 14.5102 -8.80409 -1364.34 -2112.37 663.771 0 0 0 0.5 
487 1 1 0.726341 1.21899 0.0896029 -78 0 0 -343.666 -6.88407 -5.63589 -1636.44 275.986 -1044.01 0 0 0 0.5 
999 2 2 0.452519 1.96461 0.135122 -21 0 0 -279.667 6.29876 4.95952 456.23 -569.647 619.09 0 0 0 0.5 
521 2 2 1.05628 0.426964 0.356125 -28 0 1 -454.115 -20.8193 3.44085 -2614.94 881.88 -1819.65 0 0 0 0.5 
759 2 2 1.46514 2.12276 1.26262 -37 0 0 -284.024 2.74501 -6.73349 402.538 467.412 -717.901 0 0 0 0.5 
839 2 2 2.27934 3.295 0.765836 -33 0 1 -111.67 17.679 16.2535 -82.5091 1878.23 659.402 0 0 0 0.5 
416 1 1 0.285958 3.01345 1.71409 -67 0 0 -255.506 29.7594 -5.82037 -725.601 536.447 -345.056 0 0 0 0.5 
905 2 2 0.937837 2.43876 1.80731 -29 0 0 -270.533 9.09652 7.1445 -882.9 187.733 -623.745 0 0 0 0.5 
259 1 1 2.49717 1.05419 0.741323 -83 0 -1 -334.808 -17.0789 -1.99267 -3019.42 1790.09 -2387.46 0 0 0 0.5 
201 1 1 4.62205 3.60773 1.21843 -66 0 1 -130.449 9.54216 4.91573 2661.41 -1981.71 988.617 0 0 0 0.5 
157 1 1 1.36302 2.40279 0.481675 -36 0 1 -245.984 3.14305 -7.40198 -586.632 929.775 -156.554 0 0 0 0.5 
857 2 2 2.43518 3.73753 1.66446 -3 0 0 -106.074 4.62093 21.5403 567.185 583.15 1048.53 0 0 0 0.5 
903 2 2 0.515424 2.45994 0.925987 -29 0 0 -251.051 8.45328 1.12194 -303.101 504.757 398.585 0 0 0 0.5 
234 1 1 1.04159 4.25273 1.01836 -64 0 0 -33.1399 -5.59471 -22.0469 709.633 385.235 -1439.25 0 0 0 0.5 
358 1 1 3.83053 2.99357 1.74062 -22 0 0 -184.154 4.09975 -12.606 2696.59 861.105 696.345 0 0 0 0.5 
161 1 1 4.35455 4.50396 0.953592 -1 0 1 0.159723 -1.91659 12.198 -2706 2262.58 -746.322 0 0 0 0.5 
100 1 1 3.32712 3.96696 1.97315 -9 0 0 -106.199 -11.4463 4.31638 1081.49 -684.72 -763.405 0 0 0 0.5 
316 1 1 3.55187 0.0297604 0.481136 -76 0 0 -500.71 6.27087 18.593 -1754.93 1119.16 -1278.44 0 0 0 0.5 
341 1 1 3.72892 4.67373 1.44199 25 0 0 0.536133 -3.24522 15.4297 -2716.93 1229.8 -230.723 0 0 0 0.5 
648 2 2 3.33943 1.65706 1.15982 137 1 1 -305.422 -4.77868 7.81759 0 0 0 0 0 0 0.5 
582 2 2 3.22611 3.41572 0.428455 8 0 0 -109.794 -6.25568 -6.52964 -2466.96 937.875 -2189.71 0 0 0 0.5 
858 2 2 0.314934 4.52465 1.10022 -11 0 0 -29.6432 -22.5334 -11.0886 -1133.89 -1749.07 52.9524 0 0 0 0.5 
717 2 2 4.31658 0.724108 0.217025 -46 0 1 -385.65 -33.1543 1.36422 475.346 -1325.73 -887.811 0 0 0 0.5 
947 2 2 4.7693 3.63361 0.383944 19 0 1 -89.617 -2.1323 1.79146 -1149.4 2091.2 1431.66 0 0 0 0.5 
819 2 2 3.13742 2.35982 0.354951 -38 0 1 -262.377 28.066 17.5965 1824.07 -217.728 -136.151 0 0 0 0.5 
820 2 2 2.93671 0.691661 1.17424 -71 0 0 -395.001 6.96223 16.4107 2986.84 -2625.49 2931.83 0 0 0 0.5 
986 2 2 1.70262 4.92279 0.640586 45 0 1 50.2942 -15.8552 30.4327 -1119.76 1698.23 1287.09 0 0 0 0.5 
612 2 2 3.05519 3.11126 1.3756 2 0 1 -151.649 -9.39404 4.63174 -2404 -573.193 -1190.39 0 0 0 0.5 
156 1 1 3.11966 4.22825 0.501395 25 0 1 -26.6995 8.46757 20.2451 6.77028 572.053 764.199 0 0 0 0.5 
775 2 2 4.11919 1.53991 0.282273 -90 0 0 -293.304 -13.0415 10.9011 292.745 -64.5562 1050.56 0 0 0 0.5 
616 2 2 4.2627 2.79199 0.108314 -23 0 1 -167.139 -16.5002 -19.6321 1467.66 1318.84 -567.585 0 0 0 0.5 
531 2 2 4.21105 2.30859 1.99283 -46 0 0 -226.03 -24.3384 -1.96917 -473.538 240.059 1838.27 0 0 0 0.5 
765 2 2 4.69118 1.65953 1.51037 130 1 0 -311.766 -10.105 -21.5936 1634.26 -5069.14 1303.35 0 0 0 0.5 
716 2 2 4.68037 4.32152 0.225503 -43 0 0 -24.8546 22.0453 -23.4886 1587.48 2009.18 -664.981 0 0 0 0.5 
536 2 2 4.9009 0.813123 0.927318 -111 0 0 -401.841 -7.57077 18.4097 -275.231 1271.86 1104 0 0 0 0.5 
495 1 1 4.91088 2.91341 0.741175 -54 0 1 -196.822 -2.89203 29.5713 21.7694 -1331.28 478.127 0 0 0 0.5 
955 2 2 4.90086 4.60397 1.78661 11 0 1 -16.6196 -11.7978 27.5414 -286.295 47.4853 264.063 0 0 0 0.5 
565 2 2 4.95056 1.63244 0.481106 -51 0 1 -291.908 1.41505 14.689 1848.78 1160.8 245.539 0 0 0 0.5 
446 1 1 3.24032 3.08255 3.55351 -31 0 1 -183.331 -4.11528 -15.8218 -739.314 2734.93 -1071.08 0 0 0 0.5 
378 1 1 2.07804 1.18547 3.63892 -102 0 0 -400.238 1.01272 -0.333151 948.34 -1589.19 -790.275 0 0 0 0.5 
603 2 2 0.140809 1.10039 2.57013 117 1 0 -404.851 6.81685 -16.2809 360.069 1911.83 832.9 0 0 0 0.5 
354 1 1 1.85704 3.23808 2.29228 -19 0 1 -154.477 -11.5197 -29.2828 66.757 203.439 -1.27994 0 0 0 0.5 
865 2 2 4.7411 0.33944 2.1542 -50 0 -1 -426.149 10.9254 -21.0524 411.549 172.392 -2903.89 0 0 0 0.5 
211 1 1 0.0150843 0.0311612 3.21067 79 1 0 -482.088 6.68148 13.5243 -142.149 1642.94 -405.762 0 0 0 0.5 
193 1 1 1.47985 1.33119 3.05798 115 1 0 -380.632 -20.4136 -35.5163 -222.4 -447.498 -1021.17 0 0 0 0.5 
679 2 2 1.87589 4.11104 2.69032 -23 0 0 -74.0432 -9.12051 -12.568 1423.28 -1672.79 596.673 0 0 0 0.5 
7 1 1 2.75655 1.99132 3.9867 -41 0 0 -319.565 -1.56875 -11.43 1514.52 -1453.95 -1356.03 0 0 0 0.5 
707 2 2 3.96727 4.31011 2.76606 -228 -1 0 -80.4362 1.96684 -0.948436 -545.199 -624.651 637.575 0 0 0 0.5 
541 2 2 1.28008 2.02346 3.3039 83 1 0 -336.05 7.55584 0.169409 2214.42 236.948 3077.13 0 0 0 0.5 
332 1 1 0.824408 0.716259 2.77971 -103 0 0 -422.74 -1.02998 14.6556 718.987 -195.842 310.391 0 0 0 0.5 
222 1 1 0.861802 1.49137 2.06215 151 1 1 -372.219 11.6523 -9.27834 4649.05 -3152.32 1334.74 0 0 0 0.5 
110 1 1 0.51154 2.40291 2.80976 -36 0 1 -274.174 -4.6454 7.12317 -1443.03 -537.189 -1424.57 0 0 0 0.5 
987 2 2 0.364191 1.55005 3.4518 97 1 0 -316.341 10.9427 -9.08857 1250.25 -896.037 266.353 0 0 0 0.5 
615 2 2 1.10342 0.368099 3.64005 108 1 0 -420.762 -23.0901 18.4458 11.9735 195.1 386.582 0 0 0 0.5 
12 1 1 1.21266 2.93306 3.31547 -76 0 0 -247.085 32.6507 -9.07695 1381.2 -316.353 2042.03 0 0 0 0.5 
748 2 2 1.53322 2.64506 3.96362 120 1 -1 -260.296 12.8138 13.652 263.165 1367.49 55.1374 0 0 0 0.5 
609 2 2 1.94039 2.18586 2.03807 -30 0 0 -294.406 8.64549 -6.17763 1092.65 -157.797 -290.249 0 0 0 0.5 
265 1 1 4.57209 3.48788 3.33388 -48 0 1 -157.974 -1.62652 -7.15313 -578.562 1355.25 498.896 0 0 0 0.5 
662 2 2 0.165494 1.88614 2.01675 -39 0 1 -275.043 -1.0913 -25.0927 -4689.37 3189.43 -1118.18 0 0 0 0.5 
483 1 1 0.28259 0.729168 3.68039 83 1 0 -423.065 -1.42532 23.9218 -348.91 466.607 -1218.59 0 0 0 0.5 
9 1 1 4.79126 3.47403 2.12264 157 1 0 -180.212 18.72 28.0481 1586.88 -717.581 1210.89 0 0 0 0.5 
807 2 2 4.30522 1.5056 2.37789 -37 0 0 -279.623 -41.8495 10.9031 -289.242 1920.37 -2415.85 0 0 0 0.5 
339 1 1 1.2786 2.41408 2.5835 -43 0 1 -277.937 19.0473 -5.14872 1713.68 478.703 659.854 0 0 0 0.5 
951 2 2 2.08206 3.60636 3.4929 -33 0 0 -120.996 -6.24035 -0.0148741 171.562 106.077 740.087 0 0 0 0.5 
482 1 1 2.46152 4.88878 3.35999 17 0 0 -32.5088 9.89314 -23.6266 256.836 -147.872 161.896 0 0 0 0.5 
214 1 1 0.375745 2.76576 3.79564 5 0 0 -227.215 5.62349 -3.16035 -1174.79 -191.211 -144.401 0 0 0 0.5 
333 1 1 3.89374 2.84196 2.60795 -6 0 0 -210.167 -15.1128 0.558732 -1029.11 -976.883 771.925 0 0 0 0.5 
62 1 1 3.57363 3.95667 3.60728 -39 0 0 -94.3402 -9.59057 -10.111 -623.455 1069.7 2231.78 0 0 0 0.5 
688 2 2 0.818933 3.321 2.52351 0 0 1 -161.847 -11.4003 -7.79322 -1273.22 1474.11 -2382.87 0 0 0 0.5 
445 1 1 4.79497 4.38613 3.23658 -17 0 0 -81.644 6.36682 -34.692 -740.291 -83.1769 -458.717 0 0 0 0.5 
293 1 1 4.38072 0.211738 3.61656 -93 0 0 -446.273 4.56508 18.7297 -2574.9 833.565 313.201 0 0 0 0.5 
728 2 2 1.59716 4.72823 3.54162 23 0 0 -31.5265 -27.4797 7.67498 59.6258 -739.489 285.264 0 0 0 0.5 
930 2 2 1.392 4.66112 2.38288 -15 0 0 -53.8777 -3.79969 -15.5786 -1435.43 889.536 -738.718 0 0 0 0.5 
359 1 1 3.90436 4.82806 3.47883 -29 0 0 -23.8259 4.39959 19.7714 -1814.32 -1017.91 -258.856 0 0 0 0.5 
760 2 2 0.877147 3.92526 3.17735 -50 0 1 -100.794 0.205314 11.9263 -19.3221 -200.566 -217.021 0 0 0 0.5 
976 2 2 3.82521 4.87402 2.22648 51 0 0 -8.84909 4.65511 -3.80978 215.961 1615.71 414.589 0 0 0 0.5 
677 2 2 0.0833273 4.27996 2.30846 -18 0 1 -81.0826 -3.42896 6.90947 12.3487 51.5462 31.9418 0 0 0 0.5 
619 2 2 3.44607 2.48418 3.41631 -35 0 1 -241.53 -37.7398 -5.4903 -1378.44 -963.657 -1943.37 0 0 0 0.5 
456 1 1 2.68406 2.01077 2.5904 -17 0 0 -297.471 4.36058 -9.32981 595.047 -140.101 441.946 0 0 0 0.5 
258 1 1 4.54944 0.697084 2.75901 -65 0 1 -358.658 -14.6881 17.5696 856.161 -2036.27 3011.8 0 0 0 0.5 
954 2 2 4.12984 2.14778 3.03857 120 1 0 -237.071 -32.7492 6.87244 1478.39 -876.861 338.386 0 0 0 0.5 
460 1 1 2.95893 3.97441 2.84314 -8 0 0 -92.4287 -16.9162 8.94906 -898.62 23.8563 -247.386 0 0 0 0.5 
298 1 1 2.87587 0.0635516 2.62591 -77 0 0 -513.598 11.4533 5.48005 0 0 0 0 0 0 0.5 
380 1 1 2.89795 2.97652 2.33754 -34 0 1 -203.066 2.62618 9.8997 72.2536 61.9189 -442.038 0 0 0 0.5 
533 2 2 2.96786 4.85452 2.03803 191 1 0 -8.11535 -21.2949 2.2691 -2106 473.382 -288.359 0 0 0 0.5 
72 1 1 3.97095 1.10641 3.24403 117 1 0 -344.505 -11.0244 37.4871 -833.085 589.478 698.484 0 0 0 0.5 
206 1 1 3.89065 3.53445 2.82182 -50 0 1 -158.925 -2.47194 -4.40006 -671.232 -297.256 -1894.05 0 0 0 0.5 
626 2 2 4.6111 1.26534 3.99923 -22 0 -1 -386.84 8.9249 -1.02354 -3024.34 2307.94 339.606 0 0 0 0.5 
967 2 2 1.45835 0.877016 4.33867 106 1 -1 -402.087 -17.5457 15.6723 650.652 1280.49 -561.733 0 0 0 0.5 
583 2 2 2.38236 0.184125 5.86303 -63 0 1 -435.281 -23.3446 -4.16801 121.229 437.848 -112.466 0 0 0 0.5 
163 1 1 0.730535 0.130257 4.72662 106 1 0 -468.575 -19.7197 -5.48256 815.638 297.518 -711.35 0 0 0 0.5 
798 2 2 0.668315 0.523323 5.56719 -117 0 0 -427.886 -1.39271 6.66332 615.97 -64.8717 -458.544 0 0 0 0.5 
665 2 2 1.98258 2.15888 5.36583 64 1 1 -294.139 -9.22101 -1.20432 838.254 1468.54 507.581 0 0 0 0.5 
228 1 1 2.23989 3.00201 5.34373 -80 0 1 -212.547 13.5431 17.4437 1415.51 7.41676 -1170.07 0 0 0 0.5 
98 1 1 0.951451 1.6941 4.83467 -19 0 0 -330.107 -8.96753 -2.11375 241.187 -1271.72 1141.9 0 0 0 0.5 
509 2 2 1.51211 1.78824 4.17187 -63 0 0 -340.895 7.43252 -0.756817 131.656 -816.419 902.88 0 0 0 0.5 
506 2 2 0.416506 2.26278 5.05698 -67 0 0 -294.921 21.288 9.49921 1602.74 870.296 -53.6284 0 0 0 0.5 
789 2 2 2.25801 4.12696 4.30848 -72 0 0 -90.9354 2.18949 4.37418 -2934.55 2194.76 -755.31 0 0 0 0.5 
249 1 1 2.0585 3.23992 4.45511 -63 0 1 -150.429 19.298 -6.22136 -1023.95 -1004.67 -2148.53 0 0 0 0.5 
350 1 1 2.15056 2.56978 4.49322 82 1 0 -247.237 -9.66657 3.25484 -2070.42 1130.4 1699.96 0 0 0 0.5 
778 2 2 1.08273 2.05733 5.72644 -116 0 1 -282.118 24.0495 -7.05445 70.5609 -789.536 66.1621 0 0 0 0.5 
513 2 2 1.29922 2.92837 5.43841 -59 0 0 -212.899 1.55386 6.78447 259.456 2299.92 -997.673 0 0 0 0.5 
692 2 2 2.37575 1.22114 4.54261 111 1 0 -387.075 -0.733228 -20.9687 951.525 77.092 -636.435 0 0 0 0.5 
652 2 2 2.68093 2.21179 5.98365 2 0 0 -261.32 1.51737 -5.89986 -1651.24 376.713 1275.98 0 0 0 0.5 
290 1 1 0.391845 0.816579 4.64308 104 1 0 -430.821 3.76688 4.27735 319.376 -290.574 2072.54 0 0 0 0.5 
308 1 1 0.0595025 1.50949 4.34565 -38 0 1 -351.213 15.7036 -5.7508 -167.213 2090.86 -1063.3 0 0 0 0.5 
361 1 1 3.28751 3.16749 4.95685 -25 0 0 -200.432 -15.3118 -9.36891 -954.198 -1093.76 213.896 0 0 0 0.5 
773 2 2 2.09313 1.28063 5.38057 -47 0 0 -328.169 -32.8128 -13.9375 -308.306 -20.7829 887.117 0 0 0 0.5 
105 1 1 2.67893 0.388519 4.93354 75 1 0 -431.084 -15.8414 -13.707 -3116.68 3358.6 -1178.38 0 0 0 0.5 
579 2 2 1.60851 3.73166 5.00953 -22 0 0 -128.025 15.5085 9.20469 -1325.27 -474.485 1713.41 0 0 0 0.5 
937 2 2 1.35067 1.29402 5.82849 -22 0 0 -331.081 -15.8068 -1.72374 -674.796 324.698 -92.8075 0 0 0 0.5 
183 1 1 4.12566 0.0732971 4.75274 58 1 -1 -557.174 27.8306 5.89749 36.4778 162.27 122.015 0 0 0 0.5 
544 2 2 3.64546 4.27778 5.40177 12 0 0 -10.3751 2.89943 -12.7644 -220.498 1796.73 -2632.05 0 0 0 0.5 
187 1 1 3.34299 1.87857 5.35429 -68 0 0 -291.675 -16.7426 14.8079 2465.89 -1135.68 -242.984 0 0 0 0.5 
428 1 1 4.42918 2.58372 4.80282 -50 0 1 -206.459 -19.9488 1.36739 324.146 -1443.65 -1580.83 0 0 0 0.5 
410 1 1 4.72027 3.10922 4.04773 -27 0 0 -185.455 -0.720023 20.2791 123.975 -262.102 546.864 0 0 0 0.5 
527 2 2 2.08303 4.92937 4.63359 24 0 0 -17.5597 16.767 19.8123 -184.37 845.467 342.558 0 0 0 0.5 
894 2 2 4.62324 4.62901 4.02968 9 0 0 -45.8132 -0.905577 -2.52844 832.598 1344.66 849.69 0 0 0 0.5 
600 2 2 2.95864 3.63435 4.26328 -26 0 1 -154.464 -0.88321 -29.8313 2820.33 -722.029 1658.54 0 0 0 0.5 
753 2 2 3.08428 4.65122 5.59337 63 0 0 7.44097 -4.59327 25.5965 -2366.13 1006.45 1229.83 0 0 0 0.5 
896 2 2 0.0567161 4.13474 4.65588 -8 0 -1 -114.305 5.42434 1.01026 718.211 -2673.54 125.26 0 0 0 0.5 
433 1 1 4.04597 2.11007 4.03907 98 1 -1 -294.173 -16.6473 14.6937 2169.44 -1910.42 1774.51 0 0 0 0.5 
746 2 2 3.91802 2.93309 5.24215 -10 0 0 -200.698 -14.473 25.281 505.598 -1883.45 677.891 0 0 0 0.5 
671 2 2 4.6441 3.98184 5.32885 -3 0 0 -106.917 -12.7492 -30.0034 -1989.18 118.722 -1418.71 0 0 0 0.5 
514 2 2 2.84228 3.69326 5.21248 -51 0 0 -146.034 25.9372 11.8437 -2613.75 103.423 -620.593 0 0 0 0.5 
605 2 2 4.44568 4.53621 5.42775 15 0 0 -19.3318 25.0785 -9.0213 453.152 2051.12 42.0424 0 0 0 0.5 
208 1 1 3.92696 3.92663 4.42613 1 0 0 -139.782 11.8318 19.0108 93.0185 -1156.09 377.444 0 0 0 0.5 
111 1 1 3.49019 0.638883 5.38045 65 1 0 -429.987 8.2965 0.673797 -644.288 -1273 -322.944 0 0 0 0.5 
346 1 1 2.68225 2.13814 4.88022 130 1 0 -278.236 -6.78033 8.85299 1753.69 -1248.47 101.847 0 0 0 0.5 
781 2 2 4.27647 1.41396 4.90719 100 1 0 -365.526 -8.72751 -5.74077 -327.11 145.281 887.558 0 0 0 0.5 
641 2 2 3.78903 2.97593 4.24215 -12 0 0 -198.08 -3.65238 3.79888 807.86 2504 -534.209 0 0 0 0.5 
220 1 1 3.84241 3.6797 5.64047 180 1 0 -110.482 -0.950105 -13.3552 -655.173 -937.144 767.735 0 0 0 0.5 
650 2 2 4.82069 3.15871 5.49699 -26 0 0 -192.809 3.98904 -12.7635 1117.29 -85.5607 -242.7 0 0 0 0.5 
229 1 1 4.42393 0.400835 7.92979 -71 0 0 -452.631 4.82576 -19.2869 -14.7394 197.432 563.354 0 0 0 0.5 
958 2 2 3.57655 1.06233 7.23709 120 1 1 -379.857 11.6204 -11.1756 1826.72 -3415.79 696.21 0 0 0 0.5 
173 1 1 2.70177 1.24603 6.00483 95 1 0 -325.444 -12.0701 1.24837 30.568 -259.235 1137.29 0 0 0 0.5 
207 1 1 1.47694 0.592624 6.28101 117 1 1 -390.238 -41.1451 -9.9473 -743.308 -1356.79 -270.533 0 0 0 0.5 
952 2 2 2.68306 3.45205 6.82003 37 0 0 -109.03 -18.7464 -4.49518 -539.465 682.672 834.721 0 0 0 0.5 
568 2 2 2.49778 2.43686 6.93952 -38 0 0 -222.976 0.647365 11.1935 -2451.27 2920.61 -3284.71 0 0 0 0.5 
975 2 2 1.30389 0.675533 7.28378 120 1 1 -376.694 -15.333 10.9865 -600.24 219.22 694.672 0 0 0 0.5 
863 2 2 3.45351 2.88424 6.3521 -27 0 0 -185.217 -18.7737 16.9275 -689.908 2170.35 -625.412 0 0 0 0.5 
485 1 1 2.08425 1.58473 6.57326 -75 0 1 -348.85 10.1513 -10.2607 -139.692 1581.79 -212.519 0 0 0 0.5 
311 1 1 4.19387 3.41535 7.01643 -12 0 0 -127.501 -5.1177 3.45484 497.283 -386.802 774.098 0 0 0 0.5 
418 1 1 0.597465 0.519371 7.90155 -75 0 0 -407.718 -7.61864 -1.7163 557.629 -1200.87 -161.758 0 0 0 0.5 
205 1 1 0.294204 2.08885 6.03203 -109 0 -1 -284.521 15.2662 -5.00768 -648.579 1608.1 792.171 0 0 0 0.5 
613 2 2 2.53229 3.15607 7.77009 -32 0 0 -195.171 21.5028 -12.0715 503.928 1115.54 595.736 0 0 0 0.5 
257 1 1 1.79573 2.76605 6.70746 -29 0 0 -220.001 11.1629 -21.3571 -1424.63 480.459 -169.007 0 0 0 0.5 
590 2 2 1.77621 3.53028 7.77644 4 0 -1 -182.662 23.804 -3.18272 1878.61 -3202.02 2322.51 0 0 0 0.5 
146 1 1 2.50553 4.6409 6.44587 -7 0 0 -22.4215 -6.64223 -29.0953 2.56188 -32.1799 -11.9178 0 0 0 0.5 
795 2 2 1.12086 1.86963 7.12939 -59 0 0 -298.343 -16.5103 -16.7116 -885.376 -820.244 -808.443 0 0 0 0.5 
632 2 2 4.84925 4.33322 6.50438 23 0 -1 -33.5578 -0.539614 26.0875 -455.164 -739.968 1235.86 0 0 0 0.5 
343 1 1 1.00635 2.61523 7.2851 -20 0 0 -209.087 9.94089 7.57153 3381.38 -1098.07 -1244.8 0 0 0 0.5 
2 1 1 1.57379 2.52357 7.95166 -14 0 0 -242.517 15.191 10.3919 -1437.32 849.9 1775.42 0 0 0 0.5 
56 1 1 4.2734 3.30579 6.10067 -30 0 0 -152.344 -5.086 24.0125 580.241 -2345.53 -41.7118 0 0 0 0.5 
251 1 1 0.568882 2.844 6.46545 -28 0 0 -175.647 0.846448 1.63587 1745.72 -1685.06 -1474.82 0 0 0 0.5 
399 1 1 0.523449 1.34613 7.74577 -84 0 -1 -351.126 5.69451 -28.7481 214.592 -261.173 -597.977 0 0 0 0.5 
454 1 1 2.28897 0.776314 6.6514 123 1 0 -416.314 -6.21406 0.482298 -3281.89 1965.13 -106.018 0 0 0 0.5 
573 2 2 0.392618 1.40044 6.49237 -75 0 0 -339.829 -0.275784 1.31697 3772.83 -961.857 816.244 0 0 0 0.5 
476 1 1 1.72741 1.578 7.42238 -31 0 0 -287.733 -15.6418 26.6864 1302.38 -290.475 80.3437 0 0 0 0.5 
66 1 1 2.03193 0.49234 7.52997 -24 0 0 -378.898 -32.8969 16.7293 83.0793 1257.26 2585.32 0 0 0 0.5 
43 1 1 0.716577 0.757606 6.77755 -72 0 0 -384.905 -32.6719 4.44755 -1065.8 -1208.6 -175.755 0 0 0 0.5 
847 2 2 4.16554 4.74399 6.17141 22 0 0 22.5252 -2.9993 14.7551 -1024.17 -1092.11 485.486 0 0 0 0.5 
182 1 1 4.19055 4.56134 7.08247 55 0 -1 -6.09425 -1.12165 19.421 -804.387 -360.614 -153.733 0 0 0 0.5 
644 2 2 4.3692 2.69353 7.99918 195 1 0 -194.825 -19.2613 -0.647779 -24.6587 854.771 -1642.55 0 0 0 0.5 
501 2 2 0.889444 3.52648 7.38882 80 1 0 -129.669 29.9194 -7.53811 -1494.34 -266.635 -1249.34 0 0 0 0.5 
845 2 2 0.125504 3.06141 7.39232 -20 0 0 -115.782 -0.362739 -3.83822 -3929.74 566.916 554.371 0 0 0 0.5 
891 2 2 1.41844 4.90776 6.81656 29 0 -1 33.0459 -14.0777 -9.16624 -74.5856 124.329 -182.396 0 0 0 0.5 
640 2 2 3.06565 2.32187 7.66584 -91 0 0 -273.214 25.4851 -14.2496 3285.59 -3513.56 1671.66 0 0 0 0.5 
502 2 2 2.88385 1.63534 7.04572 -98 0 0 -322.571 0.659117 -18.8666 -968.658 62.4737 -66.6386 0 0 0 0.5 
115 1 1 3.11617 0.512445 6.58136 57 1 -1 -487.568 27.8141 -6.385 4850.74 -501.509 1391.7 0 0 0 0.5 
148 1 1 0.0186509 4.09232 7.2343 -16 0 0 -10.886 -18.7444 -12.0787 -2584.29 666.847 2754.83 0 0 0 0.5 
887 2 2 4.83273 0.0751024 6.58229 84 1 -1 -505.095 15.7071 -6.87955 -24.2548 76.9353 -94.0862 0 0 0 0.5 
530 2 2 3.79214 2.43334 6.95895 -38 0 1 -194.334 -23.9135 15.6374 754.79 -1103.54 675.565 0 0 0 0.5 
532 2 2 2.94405 4.81704 7.77598 31 0 -1 27.8393 14.1019 -5.30618 -194.57 918.377 597.483 0 0 0 0.5 
708 2 2 2.77373 1.02392 7.64961 -90 0 0 -386.557 0.635504 -7.60698 987.647 80.4791 -1481.26 0 0 0 0.5 
434 1 1 3.80873 1.28626 6.31157 -61 0 0 -362.884 -9.54494 14.3023 358.612 345.85 -1429.46 0 0 0 0.5 
940 2 2 2.96434 4.23306 7.25933 22 0 -1 -46.9479 3.93029 -19.6998 -2960.89 1130.27 -1375.25 0 0 0 0.5 
890 2 2 1.50575 4.59211 6.0571 -23 0 0 -19.9705 -16.8885 -41.1393 164.198 230.726 -598.896 0 0 0 0.5 
800 2 2 1.69053 4.35157 7.45432 169 1 -1 4.6394 -22.4554 8.4648 180.819 2686.45 -1884.74 0 0 0 0.5 
870 2 2 3.47134 3.57596 6.31025 12 0 0 -96.5755 17.5814 34.3909 -2849.26 2119.82 -1033.77 0 0 0 0.5 
165 1 1 3.95712 4.22618 7.91733 56 0 -1 -43.2597 -11.6664 6.29909 -2361.43 895.707 -2058.4 0 0 0 0.5 
660 2 2 0.659149 3.84215 6.51699 26 0 0 -119.944 14.5528 -8.76621 2254.22 -1026.21 -3825.92 0 0 0 0.5 
369 1 1 3.7707 3.17005 7.94015 -33 0 0 -196.922 1.74669 16.9192 -282.528 -428.806 381.384 0 0 0 0.5 
488 1 1 3.80129 2.28044 6.00838 -83 0 1 -218.305 -26.4477 -4.51537 1012.43 -1589.73 -274.771 0 0 0 0.5 
245 1 1 3.51203 3.62359 7.25525 -39 0 0 -113.94 0.57792 10.6589 31.4772 -100.773 1633.74 0 0 0 0.5 
992 2 2 4.88956 2.27015 6.75444 -109 0 0 -236.702 -22.6626 -15.0307 109.614 464.514 -289.659 0 0 0 0.5 
465 1 1 4.94193 3.34175 7.09174 -5 0 0 -121.267 -2.56419 28.6795 2029.04 4.49975 602.312 0 0 0 0.5 
270 1 1 0.481571 2.09551 8.15163 -62 0 0 -275.782 5.06917 -10.2917 -15.8641 -1639.38 -996.114 0 0 0 0.5 
656 2 2 1.84385 1.71859 8.98675 -61 0 0 -309.745 5.9014 -12.9281 1784.6 -1207.21 252.528 0 0 0 0.5 
805 2 2 2.52127 2.4632 9.19445 -75 0 -1 -262.662 -17.6399 12.6874 -1413.71 2411.11 1417.44 0 0 0 0.5 
702 2 2 3.54098 0.119289 8.69891 116 1 0 -470.984 11.3766 17.3472 -1577.99 1017.57 668.98 0 0 0 0.5 
348 1 1 4.43677 3.58458 9.56095 -10 0 0 -91.0211 -1.49519 -9.56811 -4652.34 686.59 1259.08 0 0 0 0.5 
307 1 1 0.571007 0.351894 8.79037 130 1 -1 -418.263 -18.9843 0.377512 -666.095 1621.53 578.509 0 0 0 0.5 
581 2 2 1.50274 3.05446 8.89329 -9 0 0 -179.288 -3.08517 15.3451 50.7441 -819.258 -201.307 0 0 0 0.5 
261 1 1 3.77438 4.17492 8.85562 -7 0 0 -55.0737 4.47532 3.43469 -1387.67 -1181.99 -345.41 0 0 0 0.5 
287 1 1 1.10904 2.02733 8.67794 110 1 0 -282.423 24.4637 9.87465 -1043.68 -962.591 -1009.36 0 0 0 0.5 
924 2 2 2.37108 3.17677 8.71849 -41 0 0 -182.644 21.3811 4.40627 -1455.86 2934.35 140.211 0 0 0 0.5 
384 1 1 0.990985 3.40757 8.28954 -36 0 0 -163.711 4.83737 9.2244 -558.52 -1304.8 25.1339 0 0 0 0.5 
496 1 1 3.09792 3.93632 8.2582 95 0 0 -60.5021 -7.99712 -31.5759 666.622 1122.05 -1967.6 0 0 0 0.5 
754 2 2 3.08754 1.68516 8.33724 -68 0 0 -345.764 3.97764 -5.25557 2583.97 -1572.45 1222.63 0 0 0 0.5 
526 2 2 0.612739 1.28179 8.9995 -74 0 0 -361.137 13.3791 -6.83275 977.998 642.725 -1380.17 0 0 0 0.5 
283 1 1 4.27904 0.483131 9.16592 -102 0 0 -442.738 6.21457 6.90035 -358.233 -1915.26 372.089 0 0 0 0.5 
118 1 1 2.30735 0.241613 8.88847 114 1 0 -456.128 6.29932 18.9768 -622.54 -282.994 1033.65 0 0 0 0.5 
826 2 2 1.31718 1.95953 9.67173 167 1 -1 -263.825 -0.0174957 8.3149 -1430.28 -215.475 344.154 0 0 0 0.5 
269 1 1 1.35482 1.28567 8.24283 -100 0 0 -350.963 -17.0745 -7.60658 -793.689 582.391 1526.81 0 0 0 0.5 
674 2 2 4.22381 2.36338 9.28784 -23 0 -1 -256.088 2.46724 -11.8831 -1210.86 1026.23 -677.508 0 0 0 0.5 
902 2 2 2.4743 3.17701 9.72661 136 1 0 -180.606 30.4087 11.2163 1032.46 -237.944 -559.908 0 0 0 0.5 
440 1 1 2.71492 4.12118 9.03104 22 0 0 -11.2702 -20.6077 -14.4767 -1654.76 461.851 420.137 0 0 0 0.5 
761 2 2 2.23344 1.22353 8.2738 -93 0 0 -343.386 -12.7913 16.2698 82.8279 -329.013 220.295 0 0 0 0.5 
549 2 2 2.03248 1.05443 9.67882 -103 0 -1 -346.052 -11.7584 -6.76051 1184.17 1283.65 666.289 0 0 0 0.5 
14 1 1 1.04714 3.49513 9.58189 10 0 0 -167.427 14.2874 15.3423 -216.468 1807.36 492.524 0 0 0 0.5 
424 1 1 0.575761 2.39045 9.30219 -1 0 0 -276.446 7.90158 14.2554 2293.61 -3866.83 -1412.61 0 0 0 0.5 
420 1 1 4.51795 3.8336 8.26442 6 0 0 -70.7742 -21.1076 22.5568 -858.442 2059.66 -1133.07 0 0 0 0.5 
225 1 1 1.17712 0.848013 9.51861 -48 0 0 -352.002 -16.3021 -24.4077 290.352 -1028.02 1021.68 0 0 0 0.5 
833 2 2 1.6345 2.92228 9.85894 16 0 -1 -176.153 4.61453 -0.280802 375.876 -1184.85 1290.13 0 0 0 0.5 
80 1 1 2.25439 2.14805 8.05989 -25 0 0 -270.063 -0.129167 18.6755 -947.193 73.0819 -818.087 0 0 0 0.5 
968 2 2 3.63922 1.94008 9.97111 145 1 0 -272.785 -2.64728 -21.5684 -703.79 80.9902 -858.237 0 0 0 0.5 
646 2 2 0.278988 3.20195 9.16349 -38 0 0 -143.904 1.44001 3.73975 -126.354 950.805 -499.78 0 0 0 0.5 
830 2 2 1.25618 4.31925 9.75759 140 1 -1 -17.0594 7.02114 3.09856 -23.0821 -91.0008 -19.4019 0 0 0 0.5 
65 1 1 4.68848 1.84654 9.35082 -23 0 0 -319.07 0.99546 -2.789 2857.16 -405.245 1389.8 0 0 0 0.5 
450 1 1 3.91742 1.19657 9.15825 62 1 -1 -403.815 34.8595 8.73813 -1028.11 1285.3 -875.221 0 0 0 0.5 
67 1 1 0.036778 2.79593 9.97044 154 1 0 -201.197 5.98061 8.53702 -3045.96 3284.13 2012.57 0 0 0 0.5 
250 1 1 4.11095 3.14712 8.86142 -38 0 0 -168.431 -6.71602 -2.83293 1515.4 2031.98 -554.565 0 0 0 0.5 
431 1 1 3.60975 1.05176 8.28827 -61 0 -1 -356.672 -23.0891 -30.5411 913.465 -595.997 802.72 0 0 0 0.5 
408 1 1 3.95527 4.24675 9.71563 -4 0 -1 -48.4464 21.3975 21.4668 488.011 1882.47 70.3338 0 0 0 0.5 
785 2 2 0.162733 2.87979 8.33112 190 1 0 -161.882 10.5037 5.71569 132.607 1837.11 -313.98 0 0 0 0.5 
737 2 2 4.75247 2.1763 8.49485 -33 0 0 -234.975 -21.9422 -3.90603 -1111.47 709.122 2631.41 0 0 0 0.5 
242 1 1 0.732021 4.1735 8.08659 -176 -1 0 -67.1576 22.9462 -8.22856 -862.71 2772.74 324.611 0 0 0 0.5 
49 1 1 3.36423 2.58566 9.42799 -7 0 0 -244.32 24.5427 8.10347 -1797.51 -16.4483 244.451 0 0 0 0.5 
492 1 1 2.78748 1.57257 9.23632 -110 0 0 -323.311 -7.35096 19.7549 1019.13 -2018.67 -291.086 0 0 0 0.5 
586 2 2 3.01084 2.51001 8.53904 140 1 0 -269.517 25.5225 -1.60483 3735.28 -1781.37 -554.422 0 0 0 0.5 
171 1 1 3.4131 0.451805 9.64097 -14 0 -1 -461.44 22.2473 14.507 -1429.73 302.46 -465.964 0 0 0 0.5 
478 1 1 3.31756 3.32475 8.79713 2 0 0 -169.031 0.36729 14.2491 -716.504 2883.71 1003.97 0 0 0 0.5 
577 2 2 2.85063 0.274978 8.10124 100 1 -1 -474.167 -1.15633 14.4591 -65.3465 -447.825 -241.029 0 0 0 0.5 
883 2 2 3.20916 4.06144 9.58313 -1 0 -1 -30.3772 -17.3287 32.8945 -1682.25 -970.189 -336.833 0 0 0 0.5 
486 1 1 4.86384 1.21447 8.6414 104 1 0 -371.513 1.23228 7.93401 483.487 -2924.36 -440.478 0 0 0 0.5 
797 2 2 4.92211 1.23581 9.62518 126 1 -1 -361.774 -19.4702 13.9891 383.848 -2376.05 1169.89 0 0 0 0.5 
51 1 1 4.90055 4.38919 8.97378 3 0 0 -37.1777 6.66617 4.11024 -1974.15 253.956 -1810.09 0 0 0 0.5 
946 2 2 1.21988 9.09493 0.537148 42 0 0 387.659 29.4138 3.03816 4253.64 -2312.8 -1549.59 0 0 0 0.5 
518 2 2 3.13476 8.01227 1.3848 -117 -1 0 216.001 39.2928 1.20753 -1096.62 924.914 241.221 0 0 0 0.5 
906 2 2 4.10745 8.53909 0.112707 59 0 0 358.381 8.29656 -16.5542 445.766 -547.557 663.488 0 0 0 0.5 
430 1 1 2.75393 5.71207 1.7414 -21 0 1 90.8927 -14.779 -8.74136 -378.595 1618.72 -1602.72 0 0 0 0.5 
849 2 2 4.65526 8.00558 0.549183 9 0 1 314.237 6.43848 -5.53777 5102.12 -2070.99 1546.21 0 0 0 0.5 
477 1 1 3.90334 8.85474 1.24505 78 0 0 459.337 -19.4293 -4.1735 0 0 0 0 0 0 0.5 
712 2 2 4.53799 7.19681 0.21471 63 0 0 224.286 9.90733 11.75 3386.29 -1807.26 1737.24 0 0 0 0.5 
368 1 1 3.01963 7.56846 0.583433 -11 0 0 230.245 14.7217 13.5413 -1649.3 -628.315 24.8878 0 0 0 0.5 
938 2 2 2.86336 6.74706 0.55989 15 0 0 177.89 -29.901 -30.5723 3336.47 297.644 348.76 0 0 0 0.5 
330 1 1 1.78228 7.80993 0.409101 44 0 0 307.217 8.14952 -3.15409 563.053 1691.22 240.858 0 0 0 0.5 
90 1 1 0.390829 8.15612 1.98509 34 0 0 307.126 2.46868 7.03301 412.634 292.111 -5.30845 0 0 0 0.5 
638 2 2 2.76041 5.83507 0.718567 22 0 -1 110.638 -13.0047 -6.05809 -46.1936 -940.534 126.773 0 0 0 0.5 
152 1 1 0.917468 7.89242 0.196963 17 0 1 309.265 -13.1089 12.3506 -611.639 -695.426 -24.9058 0 0 0 0.5 
448 1 1 0.555994 5.25939 1.76557 -3 0 1 15.1552 -7.59637 -12.0872 298.66 -51.366 403.65 0 0 0 0.5 
683 2 2 2.33884 7.57428 1.2147 19 0 0 230.447 -4.8363 -16.1648 -359.82 -1427.64 1034.78 0 0 0 0.5 
178 1 1 2.7708 6.6249 1.44112 19 0 0 160.679 -10.2246 -21.3818 -1588.62 456.007 386.365 0 0 0 0.5 
385 1 1 2.77722 9.8776 1.06251 -133 -1 0 476.014 -17.0633 -8.28066 -554.005 25.3318 507.999 0 0 0 0.5 
749 2 2 4.3679 9.86917 1.41346 -129 -1 1 501.265 -1.70076 -0.702316 -1432.61 331.153 764.619 0 0 0 0.5 
305 1 1 3.57006 7.02523 1.86167 57 0 0 167.746 -6.50211 -30.8042 31.8002 -301.693 417.967 0 0 0 0.5 
836 2 2 0.430042 9.60535 0.638497 111 0 0 474.322 -5.95992 0.190937 -2433.23 1612.1 1657.33 0 0 0 0.5 
357 1 1 0.386395 8.28147 1.07293 -163 -1 1 304.544 -11.8158 -13.3195 -708.092 -419.038 172.588 0 0 0 0.5 
252 1 1 3.04881 7.85771 0.0419946 100 0 1 298.722 0.722348 3.90312 474.395 1244.67 -2848.92 0 0 0 0.5 
484 1 1 4.0687 5.88198 0.36194 27 0 1 110.106 4.83195 -3.56114 -630.651 105.552 -1377.32 0 0 0 0.5 
37 1 1 3.55429 6.98262 0.844502 -195 -1 0 187.208 21.0865 -16.0544 3004.83 -2128.3 1251.89 0 0 0 0.5 
334 1 1 0.149323 9.10818 1.3703 40 0 0 373.511 8.61138 15.8866 2631.86 45.2873 -1058.53 0 0 0 0.5 
832 2 2 3.60476 6.24842 1.21393 -30 0 0 101.64 -8.86127 -6.73746 1133.61 31.9107 -341.453 0 0 0 0.5 
153 1 1 4.21724 5.69604 1.20584 28 0 0 70.0793 -11.9458 1.02155 -753.932 -1347.2 -1362.75 0 0 0 0.5 
462 1 1 4.26819 8.13882 0.580933 109 0 0 270.21 6.46718 16.0582 -2606.49 -393.153 2198.93 0 0 0 0.5 
520 2 2 2.16169 6.92541 1.884 57 0 0 168.948 -2.8132 -21.9233 -2121.83 548.136 233.604 0 0 0 0.5 
639 2 2 0.688202 6.07621 0.118322 42 0 1 130.852 8.94353 4.70165 -845.5 1088.66 29.9444 0 0 0 0.5 
850 2 2 3.95193 7.78622 1.42443 70 0 1 218.033 27.2339 3.76903 -645.571 -286.761 1405.17 0 0 0 0.5 
500 1 1 2.19136 7.08178 0.304207 16 0 1 225.116 -13.5836 -12.0791 -2229.07 -530.008 -1663.06 0 0 0 0.5 
235 1 1 1.42569 6.79276 1.25898 -18 0 0 138.536 14.8961 11.9098 -536.929 -1034.95 -480.146 0 0 0 0.5 
589 2 2 1.26619 8.35261 0.930493 38 0 1 310.397 7.83312 4.18555 -1920.12 559.176 -983.074 0 0 0 0.5 
690 2 2 4.16965 9.66041 0.544697 62 0 0 472.986 -3.41998 -0.215048 1092.5 -916.674 130.811 0 0 0 0.5 
990 2 2 0.952852 5.96329 0.965108 6 0 0 98.9673 6.2309 39.9162 876.707 -119.983 -1458.87 0 0 0 0.5 
458 1 1 4.5244 7.34085 1.1175 36 0 0 200.052 -6.43819 11.5366 1697.28 -820.187 -20.0226 0 0 0 0.5 
872 2 2 1.20973 5.49883 0.189061 -3 0 0 76.9457 -13.9298 -11.6737 1268.2 -1024.57 1440.14 0 0 0 0.5 
503 2 2 0.0451087 6.36112 1.24456 -20 0 0 99.9575 0.362501 -20.9686 660.151 -2677.11 2674.62 0 0 0 0.5 
54 1 1 1.66839 9.16469 1.38111 33 0 1 387.715 17.5593 -7.56165 118.733 1834.38 826.549 0 0 0 0.5 