ITEM: TIMESTEP
39000
ITEM: NUMBER OF ATOMS
1000
ITEM: BOX BOUNDS xy xz yz pp pp pp
0 10 0
0 10 0
-0 10 0
ITEM: ATOMS id type type x y z ix iy iz vx vy vz fx fy fz omegax omegay omegaz radius 
350 1 1 1.6793 3.62822 0.752415 182 1 0 -145.342 11.8965 -14.2526 918.302 356.169 -343.655 0 0 0 0.5 
443 1 1 3.59039 1.18894 1.23138 126 1 0 -353.629 2.62697 -7.23786 -881.72 1856.8 1210.28 0 0 0 0.5 
183 1 1 4.48377 0.483229 1.97667 111 1 -1 -446.22 8.82395 9.85443 2462.08 -1387.76 -663.726 0 0 0 0.5 
67 1 1 2.97339 3.42418 0.91563 244 1 1 -171.311 7.48503 11.4222 289.704 -1081.75 1306.49 0 0 0 0.5 
768 2 2 3.2977 2.07496 1.0449 -134 0 -1 -313.826 17.2136 -16.4426 -341.411 68.4041 -595.023 0 0 0 0.5 
368 1 1 1.59169 0.163862 1.24046 38 1 0 -447.322 -11.2865 -8.22483 -661.049 331.708 -797.887 0 0 0 0.5 
876 2 2 2.41707 0.438926 1.38729 -83 0 1 -455.819 28.0421 -1.18561 1636.33 594.643 -1909.3 0 0 0 0.5 
482 1 1 4.23408 2.34249 1.94021 64 1 0 -269.828 6.58284 -16.6794 366.007 900.555 584.749 0 0 0 0.5 
416 1 1 1.051 1.74022 1.071 -99 0 0 -343.138 15.0407 18.8738 -319.043 2256.53 131.326 0 0 0 0.5 
530 2 2 3.79006 3.10184 1.31882 -76 0 2 -175.246 -10.2214 -10.6907 977.607 623.397 1258.93 0 0 0 0.5 
853 2 2 0.486397 0.756004 1.1203 173 1 0 -411.454 -3.43674 9.77602 -1399.54 819.611 -2050.7 0 0 0 0.5 
968 2 2 2.84952 0.62029 0.414793 232 1 1 -430.836 10.8308 20.7055 2700.25 -893.362 1499.3 0 0 0 0.5 
108 1 1 1.95947 0.982344 0.176855 -165 0 1 -361.516 -15.4848 -15.0059 -2983.61 1092.4 -783.175 0 0 0 0.5 
833 2 2 0.951111 0.483854 1.80123 -13 0 0 -434.345 21.4516 4.35145 1302.96 387.694 1851.75 0 0 0 0.5 
25 1 1 1.66401 1.14042 1.14154 -128 0 0 -393.682 6.89884 -2.37886 2137.52 -3133.51 352.684 0 0 0 0.5 
265 1 1 2.33434 4.2406 1.3829 -64 0 1 -102.975 10.8014 3.5491 -81.0097 125.741 156.689 0 0 0 0.5 
1000 2 2 1.54781 2.46827 0.595488 -98 0 0 -245.388 -5.63636 17.4911 1090.63 -746.781 -455.093 0 0 0 0.5 
165 1 1 2.16343 1.98651 1.70595 33 0 0 -290.246 -12.4342 7.17414 1251.15 -1663.89 -2945.86 0 0 0 0.5 
358 1 1 0.0465358 1.60347 1.89896 -61 0 0 -330.002 -5.13172 20.9992 1949.42 -1676.68 1878.85 0 0 0 0.5 
293 1 1 2.15824 3.33109 1.28274 -141 0 1 -182.8 -4.99318 12.9681 -628.407 1204.35 159.994 0 0 0 0.5 
159 1 1 0.372038 1.50143 0.109347 230 1 0 -322.676 5.17673 -17.993 1589.12 130.098 -88.628 0 0 0 0.5 
130 1 1 1.67099 2.73697 1.99835 -52 0 0 -170.861 -20.2624 12.4732 -1690.73 2674.57 1602.35 0 0 0 0.5 
527 2 2 0.689066 2.714 0.942395 5 0 0 -237.288 14.0212 -15.8294 -719.794 226.433 384.119 0 0 0 0.5 
984 2 2 2.43678 1.76894 0.785509 187 1 1 -321.527 -20.3579 -4.68382 402.57 643.991 -170.74 0 0 0 0.5 
863 2 2 1.33613 3.00043 0.0321575 -59 0 1 -198.095 10.5447 -30.98 986.17 -2462.43 1002.04 0 0 0 0.5 
626 2 2 1.17824 3.37915 1.62681 -57 0 -1 -141.483 3.33908 1.4509 70.0657 143.918 -152.454 0 0 0 0.5 
23 1 1 0.137955 1.6945 0.88477 -127 0 1 -313.515 -4.0573 -0.809477 244.63 -1093.46 103.267 0 0 0 0.5 
978 2 2 3.9994 4.30244 1.08072 30 0 0 -94.5658 -4.97002 -19.9197 287.69 -1229.13 -963.414 0 0 0 0.5 
568 2 2 2.62102 2.55335 0.277419 -68 0 0 -245.359 -13.9308 -6.24801 -171.91 -1267.19 1260.02 0 0 0 0.5 
39 1 1 1.01877 3.76635 0.420176 -98 0 0 -146.032 4.45909 -12.385 -569.847 -231.682 1295.98 0 0 0 0.5 
149 1 1 2.58614 3.94431 0.360704 -19 0 0 -137.022 -4.80654 -7.78927 -906.355 -929.989 -2042.98 0 0 0 0.5 
439 1 1 3.69129 0.73973 1.99697 -66 0 0 -406.941 -6.54262 -7.62689 -3290.24 1044.49 968.197 0 0 0 0.5 
214 1 1 1.05694 4.57944 0.801812 -21 0 0 -66.9485 10.2922 4.44485 3683.84 -3303.17 1403.41 0 0 0 0.5 
47 1 1 3.88864 0.174732 1.29036 -121 0 0 -467.145 -21.3201 2.63575 -2555.19 -1837.36 504.208 0 0 0 0.5 
699 2 2 3.27596 4.14062 1.57332 30 0 -1 -97.3262 -2.91252 -1.07073 -351.827 -51.1737 -289.263 0 0 0 0.5 
339 1 1 2.70559 2.96635 1.77064 -69 0 1 -192.479 -1.11021 -1.64482 446.091 -248.688 6.51947 0 0 0 0.5 
18 1 1 4.67995 4.22115 1.48972 -47 0 1 -98.6827 0.851483 -17.7578 1130.86 -2622.02 1333.43 0 0 0 0.5 
762 2 2 3.85831 0.693703 0.554276 -120 0 1 -419.043 12.8465 -1.42246 358.814 -479.164 -106.287 0 0 0 0.5 
250 1 1 2.54465 4.69641 0.580581 -53 0 1 -62.6578 0.476669 -0.0365478 1392.53 -1783.33 -205.342 0 0 0 0.5 
966 2 2 3.18331 2.30394 1.92671 -68 0 1 -263.02 0.947252 1.37363 3210.95 -1457.03 -791.212 0 0 0 0.5 
446 1 1 3.38455 4.86627 0.90193 -46 0 1 -75.1448 5.61551 24.8087 230.102 358.388 47.9258 0 0 0 0.5 
91 1 1 0.489367 4.49797 0.0747294 -11 0 0 -54.0255 11.14 -13.9988 -199.698 -157.928 -2474.92 0 0 0 0.5 
760 2 2 0.529333 3.92793 1.39663 -54 0 1 -134.325 18.3167 -18.7596 2573.15 -307.39 -1744.44 0 0 0 0.5 
374 1 1 3.61177 3.60796 0.21452 -28 0 1 -180.097 13.0538 10.9243 359.65 -30.3757 -902.573 0 0 0 0.5 
41 1 1 4.77697 1.45601 0.884482 -171 0 0 -383.998 5.49728 19.5804 -571.268 511.188 -900.827 0 0 0 0.5 
765 2 2 4.10977 4.88479 0.2482 232 1 0 -67.9949 24.3018 1.35248 1730.7 373.373 1697.48 0 0 0 0.5 
812 2 2 3.647 1.74626 0.160302 26 0 1 -289.673 -11.959 -1.95863 -1692.69 2580.87 2060.73 0 0 0 0.5 
597 2 2 4.73062 0.094134 1.16436 -109 0 1 -484.831 -3.24908 -7.24946 27.1608 527.453 -1049.43 0 0 0 0.5 
828 2 2 4.70344 1.35356 1.82835 -53 0 1 -388.199 19.2064 17.777 192.701 -515.624 409.946 0 0 0 0.5 
98 1 1 4.71656 4.33608 0.518161 -50 0 0 -67.6614 0.0212938 -16.3785 508.22 -518.75 112.968 0 0 0 0.5 
857 2 2 4.93735 1.86333 0.159222 -25 0 0 -310.788 22.3099 13.1759 -666.857 -584.837 -175.385 0 0 0 0.5 
445 1 1 2.52635 2.41039 2.52325 -33 0 0 -250.226 -11.0862 -4.32385 -1633.44 -226.231 498.766 0 0 0 0.5 
413 1 1 2.51533 1.87051 3.27164 -44 0 0 -291.118 9.5412 33.2456 602.374 2129.58 1301.11 0 0 0 0.5 
78 1 1 3.41478 0.865424 3.83857 -19 0 1 -380.043 -2.35951 -12.8258 2208.45 1083.68 269.604 0 0 0 0.5 
217 1 1 2.51957 1.42789 2.34878 -63 0 0 -349.956 -5.29496 -1.30473 -918.693 -1909.72 1859.93 0 0 0 0.5 
148 1 1 0.420811 2.77355 2.47724 -28 0 1 -209.858 0.741543 11.3236 65.8496 -136.631 63.775 0 0 0 0.5 
400 1 1 1.60291 1.22027 3.60809 -131 0 0 -368.697 2.63511 -3.40421 14.3916 -12.5807 46.7606 0 0 0 0.5 
785 2 2 4.09571 1.58941 3.77114 288 1 1 -296.494 -25.5578 -5.13592 -427.579 -737.473 571.177 0 0 0 0.5 
428 1 1 0.804381 1.97769 2.84873 -82 0 1 -234.897 -23.6362 13.3495 -1139.99 205.534 -106.309 0 0 0 0.5 
751 2 2 3.41503 3.06088 3.81385 167 1 1 -146.789 -26.8092 12.6955 -3066.12 369.193 -398.214 0 0 0 0.5 
860 2 2 2.37563 3.67095 2.16557 -28 0 1 -124.128 0.610363 3.72085 151.852 1001.42 196.605 0 0 0 0.5 
513 2 2 2.11087 3.69368 3.11462 -79 0 0 -111.595 15.6393 4.22531 -228.28 316.097 233.92 0 0 0 0.5 
923 2 2 3.75596 0.0387861 2.4147 152 1 0 -462.089 -22.4744 -1.59488 672.522 -470.298 119.477 0 0 0 0.5 
782 2 2 2.49731 2.88056 3.1678 82 0 -1 -144.011 -12.0487 27.402 -105.851 -423.664 -68.4016 0 0 0 0.5 
835 2 2 4.00793 2.91654 3.38509 -48 0 1 -161.034 -6.17107 8.64765 51.4779 1354.07 -1480.98 0 0 0 0.5 
193 1 1 2.60391 0.398361 2.84747 185 1 0 -441.258 7.03581 -18.3227 1207.03 490.368 2862.76 0 0 0 0.5 
21 1 1 4.53843 2.93573 2.63657 -90 0 1 -182.112 13.4076 -19.298 -245.31 -747.895 -1082.82 0 0 0 0.5 
420 1 1 2.0667 0.513493 2.14178 -13 0 1 -425.048 -1.43121 4.62312 -4332.87 2062.57 39.6611 0 0 0 0.5 
295 1 1 2.42267 0.57913 3.81082 129 1 -1 -411.277 5.12773 -3.37356 -1993.24 3025.16 628.138 0 0 0 0.5 
606 2 2 1.75592 1.91665 2.8864 -133 0 -1 -246.8 -26.5818 8.80019 -1375.9 283.592 -1484.41 0 0 0 0.5 
426 1 1 1.08653 0.0731262 2.98134 122 1 -1 -490.981 12.519 14.6914 248.811 -660.994 -573.129 0 0 0 0.5 
367 1 1 0.507674 0.227809 3.71985 134 1 -1 -479.59 -8.38763 26.1604 -347.672 92.9061 443.565 0 0 0 0.5 
62 1 1 1.80792 4.68718 3.2306 -44 0 0 19.5528 -10.3054 -27.7955 -173.466 -10.2558 836.897 0 0 0 0.5 
312 1 1 1.5822 4.1347 2.42659 9 0 1 -92.1944 15.4425 -18.6458 -1471.51 857.391 501.549 0 0 0 0.5 
364 1 1 0.491669 3.00185 3.71821 -54 0 0 -197.521 -26.9332 -1.24397 144.541 921.617 -298.445 0 0 0 0.5 
288 1 1 4.84223 1.53729 3.23389 -34 0 -1 -300.583 -21.0743 -10.4047 -699.16 -3132.1 580.31 0 0 0 0.5 
560 2 2 0.795307 4.77664 2.78709 55 0 0 36.9178 -6.97456 2.93802 38.8723 -1588.97 -539.426 0 0 0 0.5 
999 2 2 0.531034 3.94669 2.34022 -40 0 0 -88.1181 8.01094 -22.2175 -49.5967 1311.32 1748.17 0 0 0 0.5 
742 2 2 3.54644 4.56145 3.57747 4 0 -1 -12.0692 0.362557 11.735 -1890.36 1374.14 -1889.47 0 0 0 0.5 
361 1 1 3.4932 3.17501 2.81843 -55 0 0 -145.442 -19.1732 6.53695 -1156.04 -252.86 -1032.14 0 0 0 0.5 
399 1 1 2.68989 3.4653 3.89768 -124 0 -1 -134.409 -3.07116 2.31188 -1842.42 2712.05 -1084.05 0 0 0 0.5 
284 1 1 3.22705 3.76348 2.39417 -99 0 0 -113.671 16.2699 6.02717 124.229 702.821 157.243 0 0 0 0.5 
957 2 2 3.41903 2.08748 3.61355 43 0 0 -279.395 6.57786 -8.16646 -624.347 -816.708 -426.024 0 0 0 0.5 
808 2 2 2.96729 4.77193 2.38478 88 0 0 -44.0749 15.3778 9.25491 0 0 0 0 0 0 0.5 
913 2 2 4.5383 2.43237 3.61591 -16 0 0 -225.538 -23.5196 -21.5948 2533.11 -2369.47 -127.969 0 0 0 0.5 
731 2 2 4.29402 1.90684 2.82332 297 1 0 -267.108 -3.98684 -26.5155 -1806.36 1098.44 -1055.95 0 0 0 0.5 
234 1 1 1.05874 4.59678 3.79852 -54 0 0 26.8815 -7.13464 10.9891 -3908.46 -598.83 -2055.05 0 0 0 0.5 
566 2 2 3.33908 1.45757 2.28022 254 1 1 -352.244 11.4833 4.83201 1514.43 -250.455 1126.16 0 0 0 0.5 
389 1 1 3.0288 1.25365 3.21728 -82 0 0 -341.252 -4.97697 -8.38397 501.176 -867.72 -2383.34 0 0 0 0.5 
266 1 1 0.614908 3.78764 3.46375 -218 -1 0 -75.8909 2.1461 -17.2202 929.708 1036.83 1108.71 0 0 0 0.5 
877 2 2 4.35892 0.677018 3.34089 204 1 1 -423.093 5.46919 10.2554 52.4723 2625.02 168.389 0 0 0 0.5 
195 1 1 4.34704 4.55507 3.12077 -207 -1 1 -24.8214 1.70034 -7.57802 -1966.03 1934.36 -701.684 0 0 0 0.5 
64 1 1 4.6711 3.87117 3.96613 46 0 -1 -138.64 25.9152 34.9255 2788.45 757.736 -2461.4 0 0 0 0.5 
405 1 1 4.0685 3.69959 2.00058 8 0 0 -98.2954 -3.7184 1.42533 -469.571 -736.017 -982.395 0 0 0 0.5 
269 1 1 4.89277 0.276149 2.836 -153 0 0 -442.841 -15.5362 2.54773 -3885.61 -1579.17 108.819 0 0 0 0.5 
254 1 1 4.84177 3.21249 3.59721 -5 0 0 -156.341 10.1317 -19.7726 39.7365 -1365.48 191.071 0 0 0 0.5 
464 1 1 4.9174 4.17468 3.31969 22 0 0 -31.6585 -5.1339 -2.32021 -978.025 -1014.85 3746.25 0 0 0 0.5 
902 2 2 4.92309 4.31961 2.38844 251 1 1 -33.5997 -17.0589 0.19862 -4087.74 1837.47 -662.096 0 0 0 0.5 
918 2 2 1.87581 0.981705 4.49478 -107 0 0 -388.023 8.05489 13.6538 -1450.44 102.794 -239.433 0 0 0 0.5 
995 2 2 1.13498 3.25612 4.4651 -132 0 1 -187.998 1.31866 -14.1782 0 0 0 0 0 0 0.5 
285 1 1 0.601013 2.29347 5.6502 63 0 -1 -223.702 -19.3338 3.32704 -104.58 -720.015 -1190.25 0 0 0 0.5 
495 1 1 0.2564 1.46148 5.12243 -74 0 1 -300.757 -5.53352 -8.22809 -1995.63 1474.99 -2099.29 0 0 0 0.5 
485 1 1 0.912757 1.17965 5.43897 -107 0 1 -353.46 -0.272095 -2.95488 1740.97 -195.144 1854.51 0 0 0 0.5 
658 2 2 2.62107 1.90146 4.28845 -58 0 0 -299.495 3.04635 -23.8587 -241.159 219.261 -650.008 0 0 0 0.5 
478 1 1 0.114774 2.20063 4.51385 -18 0 1 -280.44 2.05303 -11.8296 -1414.84 26.2559 246.46 0 0 0 0.5 
959 2 2 1.72223 0.893253 5.70856 146 1 0 -376.373 3.75367 4.68853 -495.479 1087.37 165.33 0 0 0 0.5 
666 2 2 1.74129 2.35239 5.3456 17 0 0 -239.251 -27.5416 6.39544 -3343.14 274.999 -1234.92 0 0 0 0.5 
338 1 1 2.21054 0.14204 5.95871 113 1 0 -472.093 -14.0794 1.12195 -669.116 2343.75 -51.9688 0 0 0 0.5 
619 2 2 1.1243 0.496403 4.9007 -70 0 1 -399.761 -20.1243 4.03524 -1970.94 1882.42 -17.0764 0 0 0 0.5 
625 2 2 4.46735 4.44317 5.88532 -36 0 0 -77.0615 3.49921 -0.786921 81.7247 35.0364 -247.029 0 0 0 0.5 
267 1 1 0.123807 0.955325 4.37501 -150 0 0 -379.448 -11.2865 -9.12518 -9.64209 -36.8071 -54.3521 0 0 0 0.5 
260 1 1 3.97853 1.58896 5.68167 -129 0 0 -340.543 -11.1467 -20.923 731.255 -1263.58 -1191.96 0 0 0 0.5 
516 2 2 3.8874 3.3054 4.40165 -105 0 1 -173.301 6.21317 -9.80648 -1104.29 409.762 1234.45 0 0 0 0.5 
907 2 2 1.72939 0.0122494 4.69916 -122 0 0 -446.182 -22.8955 3.95604 693.062 -1365.55 35.0707 0 0 0 0.5 
258 1 1 2.42062 0.672364 5.18101 -113 0 1 -385.599 -9.94803 -4.87117 759.938 99.9506 1676.46 0 0 0 0.5 
126 1 1 0.868278 2.07025 4.31355 192 1 -1 -278.103 8.84462 -24.8777 1792.44 -310.14 -476.455 0 0 0 0.5 
132 1 1 3.14902 2.98139 5.57871 49 0 0 -220.498 5.8027 -6.17616 -2019.64 2095.83 -446.821 0 0 0 0.5 
113 1 1 3.37728 4.2016 5.16358 43 0 -1 -96.1364 -8.52334 4.27972 2332.57 -1956.2 962.274 0 0 0 0.5 
307 1 1 1.75303 3.24278 5.30568 214 1 -1 -161.575 -20.7839 -9.99628 1186.93 -1284.63 94.8781 0 0 0 0.5 
909 2 2 3.45249 0.18267 4.28085 -94 0 1 -465.013 -8.29063 -4.07219 -4096.28 990.224 437.892 0 0 0 0.5 
394 1 1 1.36538 3.87333 5.26514 165 1 -1 -133.814 3.64026 -17.9185 465.989 2210.22 -1054.26 0 0 0 0.5 
61 1 1 3.63827 2.27572 5.83334 -134 0 0 -287.432 12.0893 5.61927 1658.54 -91.7885 -400.069 0 0 0 0.5 
418 1 1 4.27417 0.390253 4.21029 -135 0 1 -467.009 30.0484 19.0519 1023.86 314.952 106.209 0 0 0 0.5 
488 1 1 1.91024 4.23259 4.08418 -117 0 1 -40.5687 -10.861 0.680149 3027.93 -993.527 414.523 0 0 0 0.5 
609 2 2 1.77257 4.68684 5.17541 -44 0 0 -51.0433 26.3989 -14.662 -1612.41 -1206.22 -247.643 0 0 0 0.5 
747 2 2 2.93628 1.61487 5.13804 -190 0 0 -323.337 11.2963 -17.2885 -1023.44 2104.19 -950.609 0 0 0 0.5 
79 1 1 4.76659 2.08878 4.34662 -108 0 1 -284.819 4.46647 0.322152 429.462 -835.198 1971.41 0 0 0 0.5 
86 1 1 3.01678 4.8742 5.49861 -34 0 1 -47.7854 16.8176 11.1396 3285.34 -2551.36 1350.03 0 0 0 0.5 
353 1 1 3.03293 0.474013 5.95724 126 1 0 -464.491 9.71834 5.3238 -2112.48 1061.4 -704.96 0 0 0 0.5 
88 1 1 2.9875 4.31132 4.29301 64 0 0 -64.8738 -2.31738 -4.49231 -2015.77 -614.674 -2882.68 0 0 0 0.5 
200 1 1 0.152939 2.81203 5.24532 -131 0 0 -213.223 7.37279 -23.3031 641.827 108.88 719.511 0 0 0 0.5 
647 2 2 3.90251 1.98681 4.8263 -96 0 0 -298.839 10.2861 -15.7103 -18.832 1169.39 -417.427 0 0 0 0.5 
661 2 2 2.61964 2.11338 5.67833 -70 0 -1 -299.962 10.9093 8.39262 2487.53 252.267 981.479 0 0 0 0.5 
251 1 1 3.84488 1.17352 4.66794 -73 0 0 -399.614 7.22485 -27.9249 -413.79 358.691 -809.337 0 0 0 0.5 
933 2 2 3.78563 4.15539 4.30275 -27 0 0 -85.8674 21.5151 7.1445 1219.5 0.428538 3243.27 0 0 0 0.5 
459 1 1 0.197661 4.72274 4.50918 13 0 0 -52.4748 15.7446 -22.2809 2598.08 -279.996 1743.29 0 0 0 0.5 
10 1 1 4.50438 0.897385 4.85526 -160 0 1 -398.802 15.7168 23.025 2070.09 -295.705 1136.37 0 0 0 0.5 
620 2 2 2.99421 3.27175 4.75213 -21 0 0 -185.755 1.92646 -16.808 771.915 -228.989 1480.04 0 0 0 0.5 
184 1 1 1.2333 4.54875 5.7241 55 0 0 -42.6249 4.85938 -5.31974 -924.087 1619.79 -412.08 0 0 0 0.5 
741 2 2 0.0856081 3.42511 4.59992 -111 0 0 -148.945 1.72138 -11.3451 59.9871 -71.588 -2797.75 0 0 0 0.5 
816 2 2 3.93554 2.81728 5.1467 -11 0 0 -221.879 17.9106 13.6311 -2593.1 2067.76 -865.561 0 0 0 0.5 
431 1 1 3.42138 0.271957 5.16912 -109 0 -1 -481.598 5.0895 -24.8621 -3109.86 10.0701 2065.52 0 0 0 0.5 
641 2 2 2.52766 4.554 4.83385 -33 0 0 -58.6987 0.850628 7.03893 -403.192 2966.18 -1364.76 0 0 0 0.5 
624 2 2 0.543703 3.67434 5.48363 15 0 -1 -143.849 -1.6765 12.6973 875.748 -1455.55 -1772.68 0 0 0 0.5 
650 2 2 2.60993 3.71118 5.74498 -49 0 0 -204.462 22.1847 -7.20646 -342.905 464.213 105.761 0 0 0 0.5 
93 1 1 3.27356 1.0245 5.23356 134 1 -1 -372.946 2.46783 7.78532 -3.01762 -511.614 2075.33 0 0 0 0.5 
40 1 1 4.72529 3.21222 4.65274 -40 0 0 -215.23 15.1616 -0.615648 3171.24 -1497.68 2125.95 0 0 0 0.5 
228 1 1 4.71002 2.2736 5.29117 -115 0 1 -314.802 28.4553 2.80032 3654.51 -2654.26 7.00554 0 0 0 0.5 
139 1 1 0.969983 2.65824 7.65046 -38 0 0 -254.72 7.79933 -11.4334 314.944 857.757 -510.039 0 0 0 0.5 
880 2 2 0.628598 3.57172 7.97944 7 0 0 -139.846 -4.65067 -3.48971 1445.86 -1530.77 2070.96 0 0 0 0.5 
980 2 2 0.0932192 1.63021 6.40003 162 1 1 -300.695 -21.7895 8.83722 1269.14 -94.1427 -2632.34 0 0 0 0.5 
102 1 1 4.05395 2.0935 6.68706 -17 0 -1 -303.191 12.2854 12.5558 812.213 -68.3423 9.85362 0 0 0 0.5 
403 1 1 4.40977 4.39483 7.67604 -10 0 -1 -34.1826 -11.7054 -10.8864 382.648 189.247 1994.19 0 0 0 0.5 
926 2 2 1.06627 3.2115 6.74614 157 1 0 -176.773 7.50772 4.59876 3178.52 -2438.67 -726.588 0 0 0 0.5 
55 1 1 1.23329 0.148732 6.05999 125 1 0 -455.481 26.2538 -7.87599 525.071 2661.79 -832.614 0 0 0 0.5 
748 2 2 2.21691 3.91195 6.83706 209 1 -1 -161.975 21.1909 -1.08742 489.021 1765.16 1517.32 0 0 0 0.5 
441 1 1 2.42411 3.79036 7.83644 48 0 0 -129.47 4.33174 1.29053 1277.12 -44.2348 461.085 0 0 0 0.5 
373 1 1 0.114455 0.849431 7.00786 -150 0 -1 -439.359 11.8546 -11.7199 -25.9038 -1684.98 1628.86 0 0 0 0.5 
311 1 1 1.50156 3.90058 6.24522 -20 0 0 -141.158 -22.2284 -4.34814 -388.657 -1115.89 -689.731 0 0 0 0.5 
163 1 1 0.909427 2.44276 6.58842 178 1 0 -256.754 -13.332 -19.825 2517.48 -1590.02 2704.63 0 0 0 0.5 
988 2 2 0.540784 1.71972 7.77826 16 0 0 -371.729 18.8983 6.30784 3074.54 -5636.45 -178.232 0 0 0 0.5 
290 1 1 1.66506 1.2583 6.61481 186 1 0 -339.029 -8.58398 6.29422 2430.54 -1190.36 -397.673 0 0 0 0.5 
709 2 2 0.401375 0.274191 6.25637 139 1 0 -451.61 -5.09407 0.36058 -711.764 -287.805 262.278 0 0 0 0.5 
813 2 2 2.22531 0.42389 6.89482 209 1 0 -448.146 3.84625 6.50272 -1240.25 1374.99 -355.213 0 0 0 0.5 
861 2 2 2.23577 2.57119 7.03671 -53 0 0 -269.064 5.47037 -17.9811 -384.249 -102.13 630.002 0 0 0 0.5 
167 1 1 2.7811 0.364254 7.85172 181 1 -1 -426.188 1.07433 19.3835 -1167.73 1631.92 285.542 0 0 0 0.5 
211 1 1 0.927843 1.66921 6.8681 165 1 0 -310.691 -24.4893 0.126312 -2095.58 630.887 3162.84 0 0 0 0.5 
348 1 1 1.54308 3.82088 7.51835 -27 0 0 -127.679 13.076 37.7507 -583.226 34.0821 171.248 0 0 0 0.5 
33 1 1 1.71973 2.5018 7.88677 246 1 0 -265.042 11.6918 -3.52395 889.204 119.091 414.745 0 0 0 0.5 
468 1 1 0.784377 4.91249 6.37397 10 0 0 -1.2063 4.1208 -6.71534 -1261.77 1146.58 421.937 0 0 0 0.5 
222 1 1 0.440931 3.10548 6.25271 245 1 0 -177.611 -15.6684 -10.1913 -1864.94 2219.29 -2939.5 0 0 0 0.5 
983 2 2 0.184296 2.54006 7.58896 3 0 -1 -238.064 -35.5945 -0.247457 -1664.24 1953 -1785.9 0 0 0 0.5 
764 2 2 3.44211 3.62341 7.61339 -46 0 0 -125.394 9.81344 -6.27962 -421.526 -783.939 -675.727 0 0 0 0.5 
754 2 2 4.10005 1.14444 6.4075 -109 0 0 -361.957 1.53458 -10.9057 -468.226 -231.612 -699.057 0 0 0 0.5 
31 1 1 1.14494 1.13359 7.94733 159 1 0 -347.958 -4.01312 -14.4111 -556.759 -1404.78 637.552 0 0 0 0.5 
726 2 2 4.27394 0.0254557 6.98995 142 1 -1 -463.121 -0.298473 -32.3868 2883.94 -1565.59 799.414 0 0 0 0.5 
665 2 2 3.78529 0.304058 6.50567 133 1 1 -451.756 12.5927 -6.86225 -213.617 1644.4 -2635.38 0 0 0 0.5 
836 2 2 3.57653 4.97301 6.33982 137 0 -1 -27.4982 -0.165044 -2.29815 814.334 -342.052 279.063 0 0 0 0.5 
590 2 2 -0.0136228 3.85523 7.4279 -21 0 -1 -122.31 1.4575 -1.60909 -1780.73 615.806 307.907 0 0 0 0.5 
347 1 1 0.159555 3.16425 7.15743 -12 0 -1 -156.123 -23.6004 -25.143 -1265.48 781.271 1286.24 0 0 0 0.5 
378 1 1 4.01174 0.61787 7.627 -158 0 0 -387.743 -20.1446 8.52863 29.39 -369.417 1360.64 0 0 0 0.5 
492 1 1 3.94091 3.27679 6.03496 -147 0 0 -223.244 20.2336 -2.41341 160.755 59.9666 92.6188 0 0 0 0.5 
220 1 1 0.299942 3.99923 6.44056 279 1 0 -95.7137 11.6168 -9.44851 783.889 199.352 287.594 0 0 0 0.5 
199 1 1 2.44015 2.19943 7.95478 -226 0 -1 -258.288 4.04058 -9.5968 1442.39 -1771.18 430.396 0 0 0 0.5 
115 1 1 3.08176 2.0957 6.51301 137 1 -1 -268.748 -7.05841 2.63553 -2964.04 -1484.56 -327.245 0 0 0 0.5 
509 2 2 4.79868 2.15893 7.75467 -111 0 0 -265.355 13.9573 4.53947 450.452 492.676 -632.649 0 0 0 0.5 
733 2 2 0.814996 3.81704 7.04087 118 0 -1 -133.182 15.1353 34.5297 787.267 1538.51 -815.161 0 0 0 0.5 
105 1 1 3.11007 0.360759 6.93247 149 1 0 -446.852 1.81112 5.58879 -958.966 808.743 426.438 0 0 0 0.5 
292 1 1 1.32363 4.48838 6.78342 -314 -1 -1 -70.1677 3.71272 40.0475 2836.29 -784.901 975.978 0 0 0 0.5 
845 2 2 4.16715 4.31447 6.79273 -31 0 0 -44.4345 -21.3347 8.27218 -564.678 -10.5761 -1626.15 0 0 0 0.5 
611 2 2 2.91467 3.5618 6.68768 -44 0 0 -150.443 18.2809 -5.6968 1104.03 -1116.65 -527.295 0 0 0 0.5 
780 2 2 2.74395 1.27332 6.12017 -155 0 0 -383.057 11.3086 -3.86514 -363.567 2409.61 1587.94 0 0 0 0.5 
639 2 2 3.73187 1.20253 7.10342 89 1 0 -334.318 -6.89161 -4.63087 -248.458 66.8826 785.982 0 0 0 0.5 
331 1 1 2.61992 4.75671 7.17823 -10 0 -1 -37.8209 -9.33245 1.74092 -1174.74 -1074.32 -580.544 0 0 0 0.5 
437 1 1 3.4828 4.71201 7.35601 -93 0 -1 -28.0127 8.119 8.42704 464.69 71.9853 282.572 0 0 0 0.5 
956 2 2 3.16533 1.69601 7.24743 -94 0 0 -324.937 3.99589 28.7362 -1402.44 843.264 1231.02 0 0 0 0.5 
42 1 1 2.69633 2.80876 6.28836 -88 0 0 -250.266 14.6167 -18.2286 -614.118 1942.25 1673.14 0 0 0 0.5 
910 2 2 3.25712 2.67168 7.55028 -50 0 1 -261.752 13.4738 8.17016 161.3 829.836 55.025 0 0 0 0.5 
596 2 2 4.78972 1.70303 6.97144 -94 0 0 -309.464 -6.79289 -9.65238 735.282 725.437 1787.61 0 0 0 0.5 
328 1 1 4.92327 4.92495 7.03032 35 0 -1 -49.1451 15.8087 9.59396 414.568 -202.083 -292.618 0 0 0 0.5 
208 1 1 4.12262 2.45603 8.84576 -31 0 0 -241.984 8.20804 9.73664 -1591.07 36.7895 -1257.97 0 0 0 0.5 
237 1 1 3.35652 0.442163 8.71898 -114 0 0 -434.246 -3.58476 7.64377 208.562 95.3798 -13.1086 0 0 0 0.5 
614 2 2 0.0575418 1.35365 9.1074 137 1 0 -366.62 -9.41304 -5.45491 665.713 -81.9799 1588.73 0 0 0 0.5 
533 2 2 1.56002 2.149 8.79271 277 1 -1 -308.211 0.925822 -6.36047 80.0548 1889.01 -365.245 0 0 0 0.5 
181 1 1 4.67441 1.01682 9.98639 121 1 -1 -404.919 16.734 15.9039 344.306 2276.22 1727.06 0 0 0 0.5 
708 2 2 0.403569 0.781359 9.70674 -144 0 0 -399.945 -20.7254 19.1538 -1607.25 1532.58 1745.39 0 0 0 0.5 
656 2 2 2.25499 1.87138 9.10511 -106 0 0 -281.895 -4.27459 14.0569 179.285 -71.6188 80.5928 0 0 0 0.5 
317 1 1 2.56241 4.48122 8.72482 -7 0 0 -53.3623 15.5163 -15.5246 -219.069 684.625 -12.0786 0 0 0 0.5 
577 2 2 0.876331 3.00397 9.15763 180 1 -1 -233.537 19.874 9.03219 1645.89 3568.73 -981.824 0 0 0 0.5 
581 2 2 0.431639 2.86881 9.97521 -19 0 0 -211.662 -13.0963 7.63161 -1806.29 2250.65 3457.97 0 0 0 0.5 
721 2 2 4.60322 1.32727 8.01421 196 1 0 -308.387 -15.9982 -11.2938 -3777.78 2585.36 -1318.12 0 0 0 0.5 
502 2 2 4.0185 1.62886 8.36066 -136 0 0 -306.159 -9.04955 13.2979 -1420.62 1373.4 1239.42 0 0 0 0.5 
613 2 2 1.41796 3.77009 9.48435 -46 0 0 -107.663 -0.949922 0.174777 -1278.57 -462.41 -1919.28 0 0 0 0.5 
298 1 1 0.864757 0.353954 8.3503 -132 0 -1 -422.353 -24.3242 2.69805 549.719 1482.12 -972.026 0 0 0 0.5 
252 1 1 0.924312 2.19132 9.58042 161 1 0 -321.782 20.8162 -14.8878 3937.23 -3702.34 -1830.25 0 0 0 0.5 
652 2 2 0.203256 2.21019 9.46954 -36 0 0 -320.613 7.52197 -11.9384 1417.96 63.854 1190.78 0 0 0 0.5 
675 2 2 2.32964 1.25635 8.19408 -69 0 -1 -335.37 -12.5511 -5.271 130.196 1111.14 -281.949 0 0 0 0.5 
941 2 2 0.893604 1.35172 8.76315 -30 0 -1 -342.503 0.99338 8.40445 35.1064 24.0722 64.6287 0 0 0 0.5 
743 2 2 1.67304 3.06119 8.78322 -64 0 0 -230.333 39.7318 -5.0062 364.343 -1672.06 -253.173 0 0 0 0.5 
438 1 1 4.04745 4.47845 8.60066 13 0 -1 -31.7246 3.78467 -13.2867 814.97 -4290.1 715.31 0 0 0 0.5 
887 2 2 2.36071 0.368821 8.78142 152 1 -1 -441.549 -3.2 19.3595 -116.4 966.196 -567.063 0 0 0 0.5 
28 1 1 0.735459 0.194301 9.30061 60 1 -1 -490.487 -0.814789 -1.83251 1333.03 -2360.16 -2786.02 0 0 0 0.5 
106 1 1 3.81226 3.55813 8.49628 -58 0 -1 -133.297 -7.62219 -9.76083 469.916 1573.53 220.513 0 0 0 0.5 
410 1 1 0.0990719 3.03031 8.72683 -54 0 -1 -227.633 12.2049 -1.95981 1411.58 415.161 -547.683 0 0 0 0.5 
382 1 1 3.54223 4.14817 9.35589 -214 -1 -2 -47.5487 -14.1075 -18.8017 155.755 315.185 -464.469 0 0 0 0.5 
746 2 2 3.32203 2.47811 9.59758 -36 0 -1 -269.225 5.21476 -22.4787 431.442 -1441.59 220.844 0 0 0 0.5 
843 2 2 0.178556 4.04456 8.49059 -33 0 0 -130.317 9.87566 13.6345 2647.07 -682.752 378.542 0 0 0 0.5 
623 2 2 4.49587 4.62748 9.41792 -55 0 0 -21.8915 -8.60125 4.97404 115.113 -1976.47 1130.85 0 0 0 0.5 
521 2 2 4.30491 0.602265 8.54968 -84 0 0 -426.826 14.0627 15.5984 -217.144 1401.72 -1587.91 0 0 0 0.5 
186 1 1 2.84548 3.59657 8.74043 170 1 -1 -129.061 -8.30137 6.50768 390.166 -747.691 194.503 0 0 0 0.5 
310 1 1 4.03052 1.20848 9.50284 76 1 0 -385.541 8.4884 1.32122 325.836 -1671.51 -3236.37 0 0 0 0.5 
316 1 1 4.04628 0.251574 9.81664 -131 0 -1 -462.584 31.9764 1.34609 314.427 -443.267 307.805 0 0 0 0.5 
430 1 1 0.445535 3.69948 9.81483 -19 0 0 -134.058 -7.99047 -35.1068 -787.155 603.742 -1011.86 0 0 0 0.5 
930 2 2 1.45036 1.70675 9.97917 -43 0 -1 -351.989 11.3864 -1.82484 1323.64 -860.006 1238.22 0 0 0 0.5 
425 1 1 3.26361 0.241007 9.72608 -147 0 0 -478.7 -5.88871 -4.82715 -2646.65 1922.23 -1287.97 0 0 0 0.5 
157 1 1 4.72011 3.2794 8.45736 -58 0 0 -129.695 -8.4087 10.7867 -365.933 180.183 -1531.4 0 0 0 0.5 
48 1 1 0.446059 4.66479 9.05302 81 0 -1 -44.1478 18.7922 6.06466 -353.564 -2370.61 -1964.6 0 0 0 0.5 
795 2 2 3.57003 3.36316 9.37801 -87 0 -1 -115.316 -42.2402 -11.355 -65.5502 141.308 683.394 0 0 0 0.5 
210 1 1 3.24925 1.3327 9.1024 156 1 -1 -392.786 8.91671 5.23594 -775.597 65.473 -426.562 0 0 0 0.5 
766 2 2 1.36711 4.50498 8.95657 -68 0 0 -50.4508 17.5522 -20.2016 778.025 -381.065 99.1995 0 0 0 0.5 
162 1 1 2.33193 3.16614 9.88207 161 1 -1 -207.311 14.5651 -33.5738 -285.55 1066.25 -344.665 0 0 0 0.5 
607 2 2 3.44107 4.86918 9.73118 81 0 0 -22.3114 6.24444 -1.03748 -2251.92 1974.34 -1732.03 0 0 0 0.5 
277 1 1 4.89374 2.13116 9.30637 -141 0 0 -260.467 3.29603 -18.8715 -557.331 277.755 2293.33 0 0 0 0.5 
804 2 2 4.89082 1.28784 9.03073 -163 0 -1 -390.455 4.90903 -4.1356 -1718.84 481.889 -793.282 0 0 0 0.5 
461 1 1 2.47074 5.2061 1.51587 271 1 0 -43.1266 25.5733 4.13943 417.634 -2317.05 2002.43 0 0 0 0.5 
945 2 2 4.53584 8.21676 1.11565 89 0 0 338.788 -5.74563 -28.6681 -1354.27 1299.55 3755.8 0 0 0 0.5 
303 1 1 2.83202 8.31234 0.807658 156 0 1 336.679 -7.46863 5.83867 -75.8408 -864.734 254.074 0 0 0 0.5 
458 1 1 4.88998 5.58987 0.605929 37 0 0 58.243 -11.8095 -0.594275 -1716.6 38.0717 -593.675 0 0 0 0.5 
719 2 2 1.04815 8.66893 0.0420842 161 0 1 407.012 -31.8917 -6.8337 232.969 -571.016 882.696 0 0 0 0.5 
467 1 1 1.22871 5.34471 0.0194939 308 1 1 40.6364 15.8569 8.82148 -359.978 -82.7165 166.09 0 0 0 0.5 
738 2 2 1.14551 9.65887 0.533519 212 0 1 489.681 10.4455 -19.7153 -709.23 1755.28 96.3544 0 0 0 0.5 
775 2 2 0.014297 8.94698 0.387441 -153 -1 0 380.673 26.3862 -23.6217 -64.7719 -560.782 253.545 0 0 0 0.5 
578 2 2 1.30789 9.29699 1.77958 111 0 0 399.284 -0.750527 -10.8612 875.053 -757.821 534.904 0 0 0 0.5 
615 2 2 2.92946 7.1446 0.134655 163 0 0 166.659 20.9124 -7.85656 4005.28 -714.586 1355.54 0 0 0 0.5 
739 2 2 3.25827 5.52655 0.468845 23 0 0 18.9561 14.8733 15.7688 1605.31 444.56 1796.89 0 0 0 0.5 
248 1 1 4.04932 9.1649 1.21166 -244 -1 0 438.536 10.4585 2.85705 -172.612 -65.9881 1754.03 0 0 0 0.5 
542 2 2 -0.0719907 9.53744 1.66919 -213 -1 1 430.413 0.0904097 22.3303 587.914 -35.9975 3808.3 0 0 0 0.5 
118 1 1 0.496736 9.12726 1.24538 169 0 1 391.828 -4.17028 -15.9569 -980.167 -387.566 223.601 0 0 0 0.5 
344 1 1 3.44155 6.15637 1.16812 76 0 0 105.077 15.9556 38.136 -1015.04 -492.402 -1709.01 0 0 0 0.5 
170 1 1 -0.0749012 8.17472 0.736601 139 0 0 314.854 3.84159 7.08584 -1175.76 1572.18 969.777 0 0 0 0.5 
692 2 2 2.89941 8.16607 1.81829 168 0 0 348.591 -17.7004 11.0917 -1539.74 3158.99 -2038.7 0 0 0 0.5 
563 2 2 2.61087 6.18473 1.63033 34 0 1 103.601 -18.5849 12.2013 923.868 -1878.35 -256.473 0 0 0 0.5 
274 1 1 4.39514 5.91872 1.25996 -209 -1 -1 71.7733 6.45045 18.3573 1969.66 1312.97 483.645 0 0 0 0.5 
302 1 1 2.57997 7.39633 1.03487 113 0 0 188.288 16.1666 10.2616 1382.84 308.529 1066.54 0 0 0 0.5 
710 2 2 4.39356 5.07444 1.58385 95 0 0 7.49246 -6.1834 4.35089 331.371 1382.35 404.353 0 0 0 0.5 
300 1 1 3.25275 9.40265 1.54957 115 0 -1 407.917 8.14094 -3.41777 1083.52 2215.79 -1505.2 0 0 0 0.5 
137 1 1 2.93854 9.3326 0.404889 -179 -1 0 447.246 -13.061 8.64671 1529.29 -634.41 -1148.05 0 0 0 0.5 
561 2 2 3.74558 7.19007 0.755806 72 0 0 141.853 18.2239 -16.2142 514.968 -224.662 -842.767 0 0 0 0.5 
855 2 2 1.96441 8.47332 1.01179 -243 -1 0 347.655 -7.84038 20.0666 519.383 -1160 825.291 0 0 0 0.5 
396 1 1 1.97314 7.55157 1.91895 -21 0 1 242.662 30.6151 1.5997 479.64 700.523 1527.05 0 0 0 0.5 
341 1 1 2.18541 5.2512 0.625284 14 0 0 9.56016 25.1288 22.0213 -1339.67 20.8331 -3294.37 0 0 0 0.5 
779 2 2 0.274803 5.81031 0.833472 -1 0 0 94.6877 10.4006 5.44064 -783.075 2263.36 577.641 0 0 0 0.5 
412 1 1 0.457941 7.64683 1.76364 -233 -1 1 236.924 -10.253 3.6492 160.101 76.7221 1083.66 0 0 0 0.5 
116 1 1 4.32013 7.87488 0.0623216 52 0 1 287.65 -15.14 4.15042 1475.21 -862.769 -1287.05 0 0 0 0.5 
419 1 1 1.31994 7.59732 0.668398 119 0 0 255.942 2.14708 -4.19106 -89.3426 1004 1100.23 0 0 0 0.5 
928 2 2 2.10463 7.4972 0.348574 18 0 0 234.292 -0.301217 -16.8314 -1395.52 718.5 409.015 0 0 0 0.5 
417 1 1 2.22617 8.61018 0.0939494 109 0 1 335.633 11.8135 17.5311 -206.618 1009.76 1400.08 0 0 0 0.5 
330 1 1 0.69024 7.01792 0.102639 72 0 0 206.787 -13.0452 -3.90424 -4115.68 3019.15 -865.135 0 0 0 0.5 
685 2 2 1.79663 6.08649 0.920817 29 0 1 105.411 -12.8664 10.0937 -329.137 1636.13 2460.59 0 0 0 0.5 
683 2 2 2.33782 9.74458 0.889375 65 0 0 458.55 -5.05798 6.94905 -1038.35 397.479 614.825 0 0 0 0.5 
171 1 1 1.36947 6.46447 0.263036 -22 0 0 114.721 -3.53925 29.2656 2871.82 -1210.94 -598.644 0 0 0 0.5 
112 1 1 0.793839 6.76885 1.47324 11 0 0 151.95 17.8692 -6.11176 988.146 -518.182 -1223.18 0 0 0 0.5 
73 1 1 1.31249 8.95013 0.912087 4 -1 0 363.73 -2.0343 14.4429 1100.59 -1557.36 -2682.68 0 0 0 0.5 
696 2 2 0.444969 5.14417 0.529544 34 0 0 15.9725 -4.82984 -8.60299 -2418.74 3124.36 -266.093 0 0 0 0.5 
627 2 2 1.67705 6.94191 1.10829 -1 0 0 180.944 -2.29696 6.18607 -161.203 -777.524 1250.71 0 0 0 0.5 
735 2 2 2.72426 6.11889 0.00383844 50 0 0 96.7896 5.07095 7.74151 -2070.16 1341.91 -932.136 0 0 0 0.5 
38 1 1 0.818007 5.22774 1.34691 -79 0 1 -23.1708 16.0543 32.0246 3278.03 -2723.99 1248.35 0 0 0 0.5 
326 1 1 0.582106 7.83224 0.341352 -6 0 1 300.051 6.50334 -5.25938 -1757.96 1317.06 -892.427 0 0 0 0.5 
34 1 1 1.36392 7.81862 1.53986 160 0 1 228.813 23.4728 6.17727 -1024.41 344.111 -199.681 0 0 0 0.5 
144 1 1 1.02037 6.04528 1.52221 21 0 0 95.7823 -7.52827 -4.96247 -412.375 597.995 -951.568 0 0 0 0.5 
213 1 1 0.0820703 5.08376 1.58754 249 1 1 -22.7493 -25.9207 15.6464 276.762 -2745.8 1195.32 0 0 0 0.5 
497 1 1 2.25035 6.82246 1.82533 173 0 1 183.181 0.331996 6.24388 -689.855 1164.48 1552.09 0 0 0 0.5 