# vtk DataFile Version 4.2
Generated by LIGGGHTS
ASCII
DATASET POLYDATA
POINTS 1000 float
2.24758 0.525336 1.02103 0.316173 0.524445 1.87223 1.96043 2.7962 1.84401 
2.18814 3.92297 0.220121 0.707512 1.24408 1.15142 4.76152 2.27056 1.72712 
4.29796 2.5492 0.858495 1.35053 2.43294 0.591692 0.0907803 1.71667 0.0950894 
1.97002 3.35378 1.10097 4.23467 4.81646 1.06682 2.77694 1.91098 0.81711 
3.53511 3.36752 0.812429 2.24723 4.36112 1.31723 0.803801 1.62991 1.94528 
2.38784 2.7844 0.114168 1.11221 1.46298 0.290922 3.34413 1.62647 0.507066 
2.09174 2.31047 1.00207 2.16058 0.516711 0.089235 2.51009 3.8055 1.96428 
3.09075 4.1553 0.64435 0.488425 2.64406 1.1543 3.10863 0.263704 1.37146 
0.86635 4.38906 0.39366 -0.0368905 4.06328 1.91873 4.15332 3.24379 1.07745 
4.23633 3.90913 0.238314 1.07614 3.54897 0.950999 3.13043 4.50884 1.54748 
3.69101 1.79199 1.35634 1.60992 4.92387 1.56224 0.704443 4.7778 1.29706 
4.30881 0.614659 1.37018 3.07971 0.60866 0.0891196 4.28097 1.79414 0.612949 
3.40101 0.140867 0.817528 1.69121 4.6077 0.702343 4.03947 0.93432 0.547621 
3.20606 2.46769 1.52867 1.0028 4.04876 1.73666 0.669404 3.46832 0.0951231 
4.74726 3.01788 1.65627 3.01865 1.04448 1.13839 4.06521 0.115616 0.214306 
4.21852 1.35723 1.44742 4.57241 4.0668 1.26862 3.47394 4.58039 3.34754 
3.69364 4.35851 2.22357 1.60798 0.0322809 2.97738 4.19202 2.57458 2.79131 
4.4414 1.154 2.40807 2.45499 0.181303 2.07595 0.632841 3.57936 3.84564 
1.71782 1.78146 2.31659 2.61757 3.45731 3.92191 0.380453 2.62255 3.18292 
1.05387 1.39746 3.28264 1.46352 0.159188 2.01243 2.67252 1.46169 3.58606 
1.91345 0.924186 2.54441 2.55669 2.16712 3.20594 1.72542 0.329726 3.88667 
0.708602 2.72014 2.13274 0.255881 1.04905 3.65908 1.6226 2.59475 3.55258 
3.22839 3.71308 3.27473 0.239418 1.0026 2.72398 2.68922 3.18694 2.63918 
0.306124 2.00572 2.43632 1.58614 3.50689 3.73599 0.542636 1.82884 3.2042 
2.50558 4.07778 2.88566 4.35748 0.721814 3.63977 0.967807 0.678201 2.73015 
4.24185 0.183283 2.15896 3.45677 2.88289 3.29142 1.74016 3.21859 2.81251 
1.82173 1.18018 3.44108 0.0515412 0.218464 3.89473 0.384854 4.88186 2.32915 
2.06657 4.59111 2.22042 4.35043 2.92928 3.59035 2.62448 4.84784 3.4582 
3.55687 0.833054 2.16812 4.26922 3.78858 2.96509 0.522854 3.94963 2.59875 
1.8357 4.47827 3.11494 3.93943 2.06555 2.09023 4.62424 1.58489 3.35447 
3.51608 0.257506 2.97566 4.22499 4.40038 3.65529 3.52415 1.60547 2.80936 
0.133722 4.22206 3.29311 1.14858 3.6262 2.55228 1.28739 4.91429 2.47317 
0.0679647 3.06443 3.0049 0.147663 3.20075 2.06621 2.50093 0.232646 2.91527 
4.05765 3.44229 2.07463 2.77946 0.0567202 3.7505 3.25917 2.49707 2.51375 
3.23913 0.892612 3.34169 4.7507 3.74613 3.97329 4.95164 3.89389 2.0477 
2.32845 1.61005 5.67025 2.70891 0.721278 5.52467 0.791446 1.3597 5.80512 
1.52091 2.32951 4.83498 1.6193 3.64071 4.80471 2.31176 2.95841 5.32095 
4.09593 2.67405 4.74673 3.60938 4.51523 5.86728 0.788126 1.85001 4.06359 
4.82857 1.52887 5.90506 0.626967 1.80731 4.91926 1.6107 2.94382 4.4646 
1.88065 1.34677 4.88474 2.19477 3.78767 5.52077 3.25934 3.14632 5.44958 
0.812622 2.612 5.06882 4.8968 1.77911 4.68872 2.0893 2.08657 4.09713 
3.08919 3.88187 5.04489 0.794918 0.97574 4.32552 2.38573 1.25958 4.38796 
1.25892 1.50894 4.92734 4.53245 3.794 4.84008 3.52502 2.33506 5.95292 
2.4269 4.24884 4.3856 0.0116811 0.869214 5.12374 4.23365 4.25826 5.41398 
1.37953 3.14089 5.60447 1.41219 2.26884 5.78505 4.83959 0.0397846 5.41665 
4.43901 1.24505 4.25982 0.524206 4.55656 5.07075 1.52254 4.91744 4.59962 
4.13637 3.21696 5.84548 3.38571 1.36157 4.99785 3.89907 0.898768 5.67491 
4.72659 4.80698 4.50722 3.94122 4.94497 4.98358 3.72591 3.98956 4.36528 
4.48283 2.20905 5.37539 0.318317 2.9669 5.67468 0.491726 4.55285 4.09786 
4.38363 0.475881 5.34274 1.60446 4.28036 4.07824 1.97666 4.4496 5.14101 
4.56756 0.35765 4.50031 1.18224 4.5363 5.66533 0.646138 3.46036 4.81865 
3.30755 3.02264 4.52037 2.89035 0.699082 4.37455 2.99926 4.67194 5.13099 
3.23016 2.1924 4.00913 0.473947 2.4411 4.00577 1.58091 0.9146 7.6144 
3.17134 0.644553 7.43532 0.789537 0.986137 6.69449 0.0754427 0.333065 6.85542 
0.629313 0.237367 6.02501 2.78407 1.96024 7.65055 2.05183 2.61165 6.83528 
1.07182 2.75558 6.6775 2.46455 4.36275 6.96119 2.69526 2.82207 7.45342 
3.45676 4.47965 6.87859 2.06192 3.43728 7.48484 3.93592 2.49534 7.0553 
2.27396 3.53179 6.50721 1.50011 1.45613 6.20255 0.411365 1.54593 7.29089 
0.215022 3.9832 7.06367 2.30222 2.39607 6.00544 1.38322 0.156706 7.3968 
1.9815 2.40993 7.81286 4.18638 4.56019 7.51202 2.46442 1.16217 7.27114 
4.37007 1.83519 6.56848 1.51467 3.86496 6.10434 4.61491 0.674769 6.75558 
0.546968 2.6144 7.43407 4.90273 0.308233 6.3057 1.02239 3.92987 7.92395 
1.61184 4.52839 7.23026 4.01051 0.0390591 6.09282 1.19418 4.89906 7.90459 
0.871502 3.56366 6.79022 3.68764 2.21661 7.91721 4.26609 1.62941 7.51511 
1.99069 0.1911 7.9927 2.97077 4.69115 7.67688 4.16928 3.39862 7.30359 
2.7713 4.32661 6.03976 3.09633 1.91688 6.67461 0.563233 4.55334 6.38524 
3.15047 2.88015 6.59341 0.611591 2.17358 6.04305 3.06575 3.63162 7.15065 
2.11886 4.70551 6.16611 3.97322 0.822648 6.94934 3.86369 3.80657 6.45511 
4.91475 4.41174 7.11666 1.5297 0.64091 9.32464 1.39961 3.0847 9.8724 
1.62652 1.34082 8.52012 2.51333 1.63424 8.71869 2.18782 0.162573 9.28883 
2.31463 2.67324 9.10514 1.53587 0.287474 8.53261 2.84123 1.02506 8.18305 
2.74121 1.12641 9.44125 1.94102 3.95721 8.30123 3.49871 3.67134 8.94636 
2.91315 2.42056 8.50877 3.4002 1.48617 8.73524 0.945897 0.0747829 8.19759 
0.873142 2.79657 9.16765 2.59132 3.58619 9.31816 0.145327 1.02517 9.53362 
2.62861 3.24469 8.33799 1.96509 1.37198 9.92007 4.71699 2.22134 8.34428 
1.67297 3.79391 9.20484 0.513399 2.22868 8.29826 3.34959 3.51928 9.90816 
0.350956 3.64181 8.94924 4.82958 4.51137 9.56851 4.32635 1.02466 9.40987 
1.67334 4.60181 9.78435 0.40512 4.43386 8.42496 4.62641 1.80415 9.73325 
2.72165 4.728 8.62716 4.32672 3.515 9.22274 0.0810056 2.61957 9.76219 
1.95307 4.92876 8.38244 3.86639 4.70872 9.84475 4.17219 2.19876 9.07532 
0.771049 4.3159 9.46417 3.05894 0.0335159 9.35439 3.77676 2.80691 8.70835 
3.071 2.18113 9.65558 3.56121 4.61019 8.92909 3.86854 3.00598 9.99095 
2.82426 4.72651 9.63276 3.65602 1.52849 9.68303 3.56873 0.721099 8.90623 
0.665668 3.1593 8.3631 3.30529 4.05317 8.05398 3.55164 3.20611 8.05291 
4.51129 4.55777 8.69534 4.54776 2.57703 9.89814 4.58438 3.52486 8.26554 
4.94331 0.483473 8.17052 0.104029 7.97012 0.626992 0.702584 8.46805 1.40235 
2.05623 9.64761 0.105519 1.44195 9.75092 0.557935 4.49369 5.1033 1.91148 
0.735691 8.91048 0.616429 2.30753 6.77216 0.0191565 0.942097 6.03331 0.0261895 
3.02828 7.38567 1.21867 2.9049 5.34836 1.4933 4.32086 5.43655 0.389735 
2.85396 9.63474 0.251519 3.59058 8.71945 1.528 3.16228 5.39283 0.497324 
4.00773 7.06962 1.05974 -0.0569626 9.11529 0.872167 -0.0639439 8.53387 1.54151 
3.62684 9.15272 0.774219 1.52451 6.77144 0.155697 2.64283 6.0419 1.36678 
3.96061 8.08273 1.44453 2.93625 8.60686 0.100779 0.332723 6.38175 1.93889 
2.35282 7.50546 0.725189 0.58151 9.77755 0.181425 2.81938 6.14938 0.40242 
4.2049 6.18187 0.941276 1.39412 7.33967 0.750377 3.45629 6.99754 1.78214 
0.788771 5.30747 0.502222 1.67035 9.03464 0.929231 3.58146 9.71818 1.37749 
2.29609 5.33467 0.0815152 3.77641 6.23755 0.0894576 0.0830555 7.23965 1.26057 
1.1994 5.67976 1.29198 0.103866 6.36679 0.750521 2.18946 6.57717 0.946264 
4.86262 7.4751 0.700333 1.75061 5.52963 0.767331 0.84473 7.94617 0.790125 
1.9768 7.19338 1.60029 2.06032 9.40198 1.69316 0.98242 6.47404 1.07232 
1.00641 7.21197 1.60042 3.40779 7.85602 0.360178 3.2701 8.284 0.766508 
3.26345 6.98968 0.0515305 4.05229 7.77948 0.372829 4.76033 6.8511 1.5495 
4.72024 6.39708 0.117898 1.30556 9.20011 3.52298 3.34847 5.72131 2.92608 
0.616905 9.87556 3.11617 2.45524 8.93845 3.04955 3.48591 8.35398 2.98781 
0.355138 8.30822 2.31235 3.9623 5.8314 2.10209 4.06095 8.92817 2.25125 
1.2675 6.18472 2.02765 2.97731 9.35048 2.0606 3.11493 6.19354 2.22276 
3.08896 7.80936 2.06912 3.78053 5.85395 3.65536 2.60801 7.56072 3.9766 
2.77274 7.28301 2.766 2.30205 8.18461 2.08294 0.655015 9.13827 2.73819 
3.48801 8.56962 3.88826 4.63632 6.68848 2.37858 3.46701 6.96015 2.88121 
1.14708 6.67995 3.99823 2.1906 6.07422 3.91795 0.405748 7.0828 3.91293 
4.55127 6.20705 3.32091 1.60273 7.9644 2.67074 1.28988 6.29704 3.04571 
2.1334 6.19875 2.80657 1.93628 5.67148 2.01735 2.44773 8.03217 3.21441 
0.233234 5.21576 3.37726 0.22569 6.14603 3.60006 3.47294 7.52988 3.58646 
0.963965 7.24078 3.16228 2.14491 5.18239 3.98508 1.13066 8.46363 2.87589 
1.89517 9.30846 2.73624 2.57359 5.38211 2.66745 1.27228 5.80098 3.8585 
0.974327 8.04282 3.70318 0.751621 7.6671 2.15615 2.06589 6.84554 3.50063 
1.38052 5.13435 3.37586 1.58749 7.0316 2.44344 4.30906 9.96963 3.51608 
4.47376 5.517 2.78982 2.49489 6.61311 2.03905 3.62486 5.06493 2.59733 
4.82405 5.46461 3.70623 2.94437 6.35059 3.40176 4.25916 9.0504 3.57816 
4.23348 6.92606 3.12313 4.3763 6.61872 3.97015 4.3313 7.52516 3.90313 
4.88336 8.82211 2.60753 4.88393 8.46023 3.68125 2.1914 6.78985 5.33677 
2.68017 9.01298 4.9424 3.5877 8.73617 5.48948 3.89952 6.69136 4.59815 
2.84853 7.532 4.89165 0.136331 8.22354 4.77717 3.27523 9.98882 4.88105 
4.51358 7.45872 5.83543 4.75582 7.43358 4.87978 0.527928 8.96748 4.10926 
0.485064 9.24731 5.07392 3.09227 5.28352 4.51454 4.12316 5.44105 5.68122 
4.0567 8.1139 4.32408 2.809 9.11695 5.9102 2.61685 6.13492 5.0054 
1.35323 5.49149 5.16824 2.31453 7.55224 5.66979 2.44648 5.27224 5.35601 
0.428841 5.64311 5.41948 3.5009 9.40302 5.3918 0.911291 6.7848 5.25756 
3.48897 7.9615 5.742 1.33986 7.86861 5.77797 3.81572 7.43989 5.18715 
0.266539 7.05802 5.57833 0.809711 5.93887 4.63152 0.197771 6.65314 4.69367 
1.18747 8.71598 5.82393 2.26749 8.22255 4.64721 1.60273 7.59191 4.08842 
3.9937 5.2037 4.09647 1.92811 9.9792 4.7496 1.64943 9.47429 5.5272 
0.00793164 5.13255 4.45374 1.6363 6.17445 5.67139 2.24638 9.21393 4.15338 
3.16583 5.25015 5.88058 1.05283 7.58977 4.70772 1.07625 8.57357 4.58461 
[...]
POINT_DATA 1000
FIELD FieldData 7
id 1 1000 int
776 777 647 609 761 94 916 11 323 
731 896 583 99 872 231 393 400 754 
136 378 854 622 517 848 130 620 982 
670 759 410 828 494 990 821 764 770 
302 907 859 389 928 100 864 203 782 
784 965 937 555 804 135 755 559 868 
13 405 142 899 575 654 798 39 262 
587 895 898 510 667 999 228 106 15 
391 644 212 337 523 734 488 200 512 
456 263 817 249 6 773 858 865 423 
713 918 543 95 941 158 530 756 271 
807 497 256 490 767 157 52 365 1 
234 900 944 62 894 260 995 313 229 
246 737 743 117 25 36 646 805 12 
487 396 47 573 708 459 766 594 856 
107 149 652 127 789 38 366 449 689 
509 408 678 852 905 933 147 348 251 
411 298 914 503 151 656 722 911 855 
307 227 317 318 161 223 331 951 190 
816 790 42 320 863 862 524 97 741 
335 146 771 740 786 66 611 727 847 
217 255 845 653 551 237 613 206 929 
69 505 43 80 640 783 838 17 596 
259 384 360 506 242 272 1000 40 871 
760 643 269 772 139 195 354 585 372 
840 235 638 846 30 888 567 835 10 
860 574 373 811 71 774 104 797 661 
434 308 86 588 293 467 134 544 79 
829 672 310 35 781 174 736 26 91 
617 321 397 853 600 54 238 301 605 
75 960 182 133 742 455 541 248 833 
483 795 791 663 753 419 857 655 357 
92 599 305 473 82 44 983 866 292 
386 84 624 769 874 426 350 578 341 
78 179 796 704 165 969 414 394 377 
696 213 915 698 415 55 993 63 421 
794 897 98 971 699 471 153 810 208 
904 166 556 112 164 122 58 925 991 
401 919 465 199 892 447 746 707 33 
616 610 370 457 938 602 723 443 309 
719 493 338 412 547 29 945 976 469 
550 192 160 968 214 926 68 751 701 
720 170 374 671 137 472 987 197 952 
324 988 436 830 433 114 913 289 194 
450 476 799 395 218 189 684 549 458 
884 193 521 178 577 676 580 221 850 
88 688 715 9 657 124 349 129 181 
287 474 694 41 998 735 877 185 499 
870 468 966 721 143 560 57 953 59 
51 478 986 946 666 76 202 520 356 
49 711 28 843 700 460 116 295 121 
536 334 118 801 479 482 861 979 347 
954 972 46 566 176 639 191 306 625 
230 702 803 375 444 604 977 81 634 
739 706 111 745 141 793 906 501 709 
989 912 132 252 626 571 83 312 628 
150 22 325 844 812 183 492 258 974 
120 680 806 101 392 369 733 659 787 
525 461 21 371 849 814 747 359 430 
361 362 388 196 485 425 382 775 380 
279 881 96 138 413 18 387 621 264 
431 633 90 779 579 144 650 882 159 
641 873 495 171 205 970 275 758 763 
531 714 266 785 240 629 276 273 717 
514 172 316 682 204 867 518 519 280 
340 826 820 910 943 879 697 416 328 
973 768 636 538 886 20 932 257 364 
668 23 529 675 383 539 67 243 283 
533 187 716 216 429 236 507 198 901 
516 827 513 418 725 935 123 869 245 
992 291 201 19 778 876 962 437 956 
679 409 546 548 439 522 921 250 209 
931 428 554 527 930 304 314 750 762 
274 225 241 924 908 511 738 683 948 
226 732 591 329 584 352 446 502 839 
399 220 565 265 569 606 358 500 681 
662 464 526 540 232 343 448 498 8 
247 563 299 819 658 824 222 802 148 
572 332 568 570 376 406 368 623 832 
233 649 637 16 648 619 56 270 379 
515 342 823 108 261 267 642 724 110 
608 480 363 674 339 152 89 851 842 
677 327 564 903 598 718 351 119 635 
315 618 597 109 7 344 60 442 27 
994 887 290 489 891 950 542 113 545 
125 103 808 590 491 923 64 964 285 
126 532 463 167 920 712 889 631 592 
726 878 996 984 145 403 582 254 3 
593 219 800 319 957 438 390 85 949 
407 102 780 836 154 959 37 880 297 
940 244 496 224 958 5 691 422 936 
420 615 441 885 586 690 534 207 788 
627 333 528 286 961 729 553 169 883 
175 162 404 470 367 917 435 552 980 
453 841 576 893 346 792 440 765 105 
186 180 184 890 686 813 922 253 140 
277 211 427 978 730 353 909 168 70 
163 710 385 156 424 345 48 744 508 
981 939 322 210 417 432 875 902 693 
268 72 955 695 818 451 4 462 687 
601 14 50 705 454 942 452 45 398 
749 822 607 282 402 669 24 34 336 
692 837 215 445 651 558 74 477 557 
188 603 927 303 535 481 173 934 757 
475 31 294 630 834 562 326 963 486 
728 589 177 155 831 131 53 2 664 
65 504 466 300 537 239 87 748 975 
809 947 645 381 815 673 311 296 73 
284 93 128 278 484 632 660 997 595 
355 281 77 32 115 561 61 825 665 
330 685 614 752 967 703 612 985 288 
581 
type 1 1000 int
2 2 2 2 2 1 2 1 1 
2 2 2 1 2 1 1 1 2 
1 1 2 2 2 2 1 2 2 
2 2 1 2 1 2 2 2 2 
1 2 2 1 2 1 2 1 2 
2 2 2 2 2 1 2 2 2 
1 1 1 2 2 2 2 1 1 
2 2 2 2 2 2 1 1 1 
1 2 1 1 2 2 1 1 2 
1 1 2 1 1 2 2 2 1 
2 2 2 1 2 1 2 2 1 
2 1 1 1 2 1 1 1 1 
1 2 2 1 2 1 2 1 1 
1 2 2 1 1 1 2 2 1 
1 1 1 2 2 1 2 2 2 
1 1 2 1 2 1 1 1 2 
2 1 2 2 2 2 1 1 1 
1 1 2 2 1 2 2 2 2 
1 1 1 1 1 1 1 2 1 
2 2 1 1 2 2 2 1 2 
1 1 2 2 2 1 2 2 2 
1 1 2 2 2 1 2 1 2 
1 2 1 1 2 2 2 1 2 
1 1 1 2 1 1 2 1 2 
2 2 1 2 1 1 1 2 1 
2 1 2 2 1 2 2 2 1 
2 2 1 2 1 2 1 2 2 
1 1 1 2 1 1 1 2 1 
2 2 1 1 2 1 2 1 1 
2 1 1 2 2 1 1 1 2 
1 2 1 1 2 1 2 1 2 
1 2 2 2 2 1 2 2 1 
1 2 1 1 1 1 2 2 1 
1 1 2 2 2 1 1 2 1 
1 1 2 2 1 2 1 1 1 
2 1 2 2 1 1 2 1 1 
2 2 1 2 2 1 1 2 1 
2 1 2 1 1 1 1 2 2 
1 2 1 1 2 1 2 2 1 
2 2 1 1 2 2 2 1 1 
2 1 1 1 2 1 2 2 1 
2 1 1 2 1 2 1 2 2 
2 1 1 2 1 1 2 1 2 
1 2 1 2 1 1 2 1 1 
1 1 2 1 1 1 2 2 1 
2 1 2 1 2 2 2 1 2 
1 2 2 1 2 1 1 1 1 
1 1 2 1 2 2 2 1 1 
2 1 2 2 1 2 1 2 1 
1 1 2 2 2 1 1 2 1 
1 2 1 2 2 1 1 1 1 
2 1 1 2 1 1 2 2 1 
2 2 1 2 1 2 1 1 2 
1 2 2 1 1 2 2 1 2 
2 2 1 2 1 2 2 2 2 
2 2 1 1 2 2 1 1 2 
1 1 1 2 2 1 1 1 2 
1 2 2 1 1 1 2 2 2 
2 1 1 1 2 2 2 1 1 
1 1 1 1 1 1 1 2 1 
1 2 1 1 1 1 1 2 1 
1 2 1 2 2 1 2 2 1 
2 2 1 1 1 2 1 2 2 
2 2 1 2 1 2 1 1 2 
2 1 1 2 1 2 2 2 1 
1 2 2 2 2 2 2 1 1 
2 2 2 2 2 1 2 1 1 
2 1 2 2 1 2 1 1 1 
2 1 2 1 1 1 2 1 2 
2 2 2 1 2 2 1 2 1 
2 1 1 1 2 2 2 1 2 
2 1 2 2 1 2 2 1 1 
2 1 2 2 2 1 1 2 2 
1 1 1 2 2 2 2 2 2 
1 2 2 1 2 1 1 2 2 
1 1 2 1 2 2 1 1 2 
2 1 2 2 1 1 1 1 1 
1 2 1 2 2 2 1 2 1 
2 1 2 2 1 1 1 2 2 
1 2 2 1 2 2 1 1 1 
2 1 2 1 1 1 2 2 1 
2 1 1 2 1 1 1 2 2 
2 1 2 2 2 2 1 1 2 
1 2 2 1 1 1 1 1 1 
2 2 1 1 2 2 2 1 2 
1 1 2 2 1 2 1 2 1 
1 2 1 1 2 2 2 2 2 
2 2 2 2 1 1 2 1 1 
2 1 2 1 2 1 1 1 2 
1 1 2 2 1 2 1 2 1 
2 1 1 1 2 1 2 1 2 
1 2 1 2 2 2 2 1 2 
2 1 2 1 2 2 2 1 2 
1 1 1 1 1 2 1 2 2 
1 2 2 2 1 2 1 2 1 
1 1 1 2 2 2 2 1 1 
1 1 1 2 2 1 2 1 1 
1 2 1 1 1 1 1 2 2 
2 2 1 1 1 1 2 2 2 
1 1 2 2 2 1 1 1 2 
2 1 1 2 1 2 1 1 1 
2 2 2 1 1 2 1 1 1 
2 2 1 1 2 2 1 1 2 
1 2 2 1 2 1 1 2 2 
1 1 1 2 2 2 1 2 1 
2 2 1 1 2 1 1 1 2 
1 2 1 1 2 1 1 2 2 
2 2 2 1 2 2 1 1 1 
1 1 1 1 1 2 2 2 2 
1 1 1 1 1 2 1 2 2 
1 2 2 2 2 2 2 2 1 
2 
i 3 1000 int
-10 0 1 -20 0 0 -8 0 0 
-1 0 0 -14 0 0 -7 0 0 
-8 0 0 -4 0 0 -7 0 0 
54 1 0 -1 0 0 -7 0 1 
0 0 0 -1 0 0 -11 0 1 
-6 0 0 -5 0 0 -6 0 1 
-10 0 0 -7 0 1 -3 0 0 
-1 0 0 -8 0 0 -21 0 1 
-5 0 0 -1 0 0 -1 0 0 
-2 0 1 -7 0 0 -2 0 0 
-7 0 1 1 0 0 0 0 0 
26 1 0 -15 0 1 -10 0 0 
16 1 1 0 0 0 -8 0 1 
-6 0 0 -2 0 0 -1 0 0 
-3 0 1 -14 0 0 18 1 0 
-15 0 1 -4 0 0 -3 0 0 
-5 0 0 -43 0 0 -4 0 0 
-13 0 0 -34 0 1 -5 0 1 
-17 0 0 -5 0 0 -11 0 0 
-12 0 0 35 1 0 -23 0 1 
-16 0 0 -20 0 0 -22 0 0 
-7 0 1 -28 0 0 -3 0 0 
-4 0 0 -26 0 0 -6 0 0 
-28 0 1 -6 0 0 -11 0 1 
1 0 0 48 1 0 39 1 0 
25 1 0 -14 0 1 -6 0 0 
-33 0 1 -30 0 0 -3 0 0 
-1 0 0 -5 0 0 -2 0 0 
-14 0 1 -5 0 0 -5 0 0 
0 0 0 -7 0 0 -23 0 0 
-28 0 1 -3 0 0 -15 0 0 
-1 0 0 -3 0 0 0 0 0 
-4 0 1 -4 0 1 -26 0 0 
-1 0 0 24 1 0 -5 0 0 
-17 0 0 -9 0 0 -2 0 0 
43 1 0 -26 0 0 -34 0 -1 
-7 0 0 -4 0 0 -12 0 0 
-3 0 0 0 0 0 -34 0 0 
-13 0 0 -12 0 0 -6 0 0 
45 1 0 -3 0 0 -8 0 0 
-9 0 0 -21 0 0 -25 0 0 
-4 0 0 -16 0 0 -20 0 0 
-21 0 0 -2 0 0 -18 0 0 
-3 0 0 -26 0 0 0 0 0 
-3 0 0 -8 0 0 -12 0 0 
-17 0 0 0 0 0 1 0 0 
-4 0 0 -26 0 0 -17 0 0 
-3 0 0 -2 0 0 -15 0 0 
-13 0 0 -1 0 0 -2 0 0 
-23 0 0 -3 0 0 0 0 0 
-27 0 0 -3 0 0 -2 0 0 
-8 0 0 -22 0 0 -1 0 0 
-9 0 0 -4 0 0 -12 0 0 
-12 0 0 -38 0 -1 -22 0 0 
24 1 0 -8 0 0 -4 0 0 
-3 0 0 -1 0 0 -5 0 -1 
1 0 0 0 0 0 -7 0 0 
-2 0 0 -8 0 0 -14 0 0 
-3 0 0 -8 0 0 -16 0 0 
-6 0 0 -1 0 0 -38 0 0 
-13 0 0 0 0 0 -12 0 -1 
-6 0 0 -18 0 1 -2 0 0 
0 0 0 -19 0 0 1 0 0 
-5 0 0 -5 0 0 -6 0 0 
32 1 0 0 0 0 -4 0 0 
0 0 0 -8 0 0 0 0 0 
-10 0 0 -7 0 0 -4 0 0 
0 0 0 -16 0 0 -8 0 0 
-1 0 0 -14 0 0 -12 0 0 
-14 0 -1 -7 0 0 -15 0 0 
-6 0 -1 -24 0 0 -27 0 -1 
-8 0 -1 -2 0 0 -2 0 -1 
-4 0 0 -13 0 0 -20 0 0 
-6 0 0 -2 0 0 -9 0 0 
-2 0 0 -4 0 0 -4 0 0 
-2 0 0 -5 0 0 -1 0 -1 
-2 0 0 0 0 0 41 1 0 
1 0 0 -2 0 0 -9 0 0 
3 0 0 -1 0 0 -5 0 -1 
0 0 0 0 0 0 -6 0 0 
-1 0 0 42 1 -1 -3 0 -1 
-10 0 -1 1 0 0 -6 0 0 
0 0 0 -26 0 -1 38 1 0 
-6 0 0 -2 0 0 0 0 0 
1 0 0 -9 0 -1 -2 0 0 
-16 0 0 20 0 1 12 0 0 
-21 -1 1 26 0 0 0 0 0 
17 0 1 5 0 0 4 0 0 
2 0 0 1 0 1 1 0 1 
-22 -1 1 14 0 0 2 0 0 
5 0 1 24 0 1 10 0 0 
14 0 1 5 0 0 3 0 0 
9 0 0 -37 -1 1 3 0 0 
7 0 0 -19 -1 0 5 0 0 
12 0 1 18 0 1 2 0 0 
2 0 0 -42 -1 1 -16 -1 1 
1 0 1 2 0 0 11 0 0 
4 0 0 4 0 0 4 0 0 
5 0 0 1 0 0 -38 -1 0 
5 0 0 23 0 1 3 0 0 
11 0 0 9 0 0 13 0 0 
4 0 1 6 0 0 8 0 0 
4 0 1 21 0 0 6 0 0 
30 0 0 11 0 0 12 0 0 
13 0 0 2 0 0 -34 -1 1 
5 0 0 24 0 0 2 0 0 
4 0 0 2 0 0 9 0 0 
6 0 0 13 0 0 14 0 0 
29 0 0 1 0 0 1 0 0 
13 0 0 2 0 0 8 0 0 
5 0 0 17 0 0 4 0 0 
6 0 0 4 0 0 13 0 0 
0 0 0 7 0 0 9 0 0 
14 0 0 -1 0 0 13 0 0 
9 0 0 1 0 0 3 0 0 
-45 -1 0 10 0 0 3 0 0 
0 0 0 -54 -1 0 33 0 0 
0 0 0 3 0 0 -1 0 0 
2 0 0 3 0 0 14 0 0 
4 0 0 5 0 0 6 0 0 
17 0 0 28 0 0 5 0 0 
-40 -1 0 27 0 0 11 0 0 
7 0 0 9 0 0 15 0 0 
10 0 0 5 0 0 13 0 0 
29 0 0 0 0 0 2 0 0 
9 0 0 22 0 0 2 0 0 
1 0 0 10 0 0 -1 0 0 
2 0 0 -34 -1 0 4 0 0 
6 0 0 9 0 0 8 0 0 
5 0 0 16 0 0 2 0 0 
17 0 -1 26 0 -1 -38 -1 0 
-1 0 0 -35 -1 -1 -40 -1 0 
0 0 0 4 0 0 30 0 0 
-1 0 0 14 0 0 9 0 0 
16 0 0 -34 -1 0 1 0 0 
11 0 0 14 0 0 1 0 0 
4 0 0 22 0 -1 20 0 -1 
28 0 0 9 0 0 9 0 0 
2 0 0 2 0 0 35 0 0 
37 0 -1 1 0 0 32 0 0 
7 0 0 -14 -1 0 2 0 0 
22 0 0 6 0 0 -35 -1 0 
-19 -1 -1 -33 -1 0 7 0 0 
42 0 0 1 0 0 4 0 0 
1 0 0 3 0 0 4 0 0 
27 0 0 2 0 0 5 0 0 
25 0 0 5 0 0 4 0 0 
3 0 0 4 0 0 11 0 0 
3 0 0 6 0 0 7 0 0 
21 0 0 7 0 0 4 0 0 
4 0 0 13 0 0 -1 0 0 
2 0 0 3 0 0 2 0 0 
-2 0 0 14 0 0 30 0 0 
-30 -1 -1 3 0 0 26 0 0 
-42 -1 -1 11 0 0 10 0 0 
1 0 0 7 0 0 2 0 0 
12 0 0 5 0 -1 25 0 0 
28 0 0 4 0 0 15 0 0 
23 0 0 15 0 -1 1 0 -1 
22 0 0 35 0 0 10 0 -1 
4 0 -1 4 0 0 3 0 0 
8 0 0 4 0 0 11 0 -1 
3 0 0 12 0 0 3 0 0 
4 0 0 5 0 0 20 0 -1 
8 0 -1 1 0 0 19 0 0 
12 0 0 9 0 -1 19 0 0 
39 0 0 -1 0 -1 4 0 0 
11 0 0 0 0 0 3 0 0 
10 0 -1 9 0 -1 8 0 -1 
5 0 0 7 0 0 1 0 -1 
-34 -1 0 -14 0 1 64 1 1 
-17 0 0 -9 0 0 -27 0 0 
0 0 0 -7 0 0 -4 0 0 
40 1 0 -2 0 0 -16 0 1 
-14 0 0 23 1 0 -32 0 0 
-3 0 0 -3 0 1 -15 0 1 
-35 0 1 -4 0 0 -4 0 0 
-4 0 0 -7 0 0 -16 0 1 
38 1 0 -22 0 1 -13 0 0 
-10 0 0 -23 0 0 -6 0 1 
60 1 0 1 0 0 -3 0 1 
-4 0 1 -20 0 0 -4 0 0 
-17 0 0 0 0 0 -1 0 0 
-9 0 0 -18 0 1 -1 0 0 
0 0 0 -1 0 0 -4 0 0 
-3 0 0 -1 0 0 18 1 0 
-3 0 0 -6 0 0 -5 0 1 
-2 0 0 -37 0 0 39 1 0 
-4 0 0 -10 0 0 0 0 1 
-9 0 0 46 1 0 -26 0 0 
40 1 0 -22 0 0 -14 0 0 
-16 0 1 -20 0 1 -19 0 0 
-8 0 0 -26 0 0 -25 0 0 
-4 0 0 -38 0 0 -18 0 0 
-9 0 0 -5 0 0 -12 0 0 
-4 0 0 20 1 0 -10 0 0 
-12 0 0 -5 0 0 26 1 1 
-5 0 0 -7 0 0 -1 0 0 
-5 0 0 -12 0 -1 -14 0 1 
29 1 0 38 1 0 -44 0 0 
0 0 0 -4 0 0 -2 0 0 
-2 0 0 -10 0 0 -4 0 0 
-1 0 0 -3 0 0 -18 0 0 
32 1 0 -6 0 0 -25 0 0 
38 1 -1 -14 0 0 -16 0 0 
-17 0 0 -10 0 0 -11 0 0 
-12 0 0 -1 0 0 -8 0 0 
-33 0 0 -4 0 0 -8 0 0 
-4 0 0 0 0 0 -1 0 0 
-15 0 0 -8 0 0 -10 0 0 
-25 0 0 -9 0 0 -15 0 0 
-14 0 0 -39 0 1 -1 0 0 
1 0 0 -18 0 0 -17 0 0 
-2 0 0 52 1 0 -5 0 0 
-14 0 0 -2 0 0 -4 0 0 
-7 0 0 -4 0 0 -26 0 0 
0 0 0 -3 0 0 -8 0 0 
0 0 0 -6 0 0 -7 0 0 
-5 0 0 -16 0 0 -24 0 -1 
-16 0 -1 -6 0 0 37 1 0 
-5 0 0 -7 0 0 -6 0 -1 
33 1 0 -1 0 0 15 1 0 
-8 0 0 -38 0 1 -19 0 0 
-7 0 0 -3 0 0 -4 0 0 
-3 0 0 -14 0 0 -11 0 0 
-14 0 -1 32 1 0 -3 0 0 
-4 0 0 43 1 -1 -6 0 0 
-2 0 0 -3 0 0 -2 0 0 
-1 0 0 1 0 0 -11 0 0 
-35 0 0 -7 0 0 -2 0 0 
0 0 0 44 1 0 -6 0 0 
-25 0 0 -2 0 0 -9 0 0 
-3 0 0 -1 0 0 -2 0 0 
48 1 0 -1 0 0 -4 0 0 
-5 0 0 -14 0 0 -3 0 0 
-15 0 0 -6 0 -1 -9 0 0 
-3 0 -1 -3 0 0 -4 0 -1 
-5 0 0 -7 0 0 -7 0 0 
-18 0 -1 22 1 0 -1 0 0 
-4 0 0 -8 0 0 -3 0 0 
-26 0 -1 -3 0 0 42 1 -1 
-6 0 0 -3 0 0 -28 0 0 
-31 0 0 -31 0 0 -1 0 0 
-1 0 0 -6 0 0 1 0 -1 
0 0 -1 0 0 0 -3 0 0 
-2 0 0 -12 0 0 -8 0 0 
-2 0 0 1 0 0 -1 0 0 
-1 0 -1 -1 0 0 -9 0 0 
-1 0 0 -3 0 -1 -23 0 0 
-1 0 0 -1 0 0 -4 0 0 
1 0 -1 -2 0 0 -1 0 0 
0 0 0 5 0 -1 -12 0 0 
8 0 0 12 0 0 30 0 0 
9 0 0 -1 0 0 5 0 0 
-35 -1 1 0 0 0 24 0 0 
-23 -1 1 -2 0 0 11 0 0 
3 0 0 3 0 0 6 0 0 
15 0 0 8 0 0 23 0 0 
11 0 0 19 0 0 23 0 1 
15 0 0 -17 -1 1 11 0 0 
-1 0 0 2 0 0 2 0 0 
27 0 1 15 0 0 2 0 0 
14 0 1 16 0 0 3 0 0 
9 0 0 4 0 0 20 0 1 
2 0 1 4 0 0 38 0 0 
3 0 0 13 0 0 6 0 0 
2 0 0 11 0 1 21 0 1 
7 0 0 1 0 0 -40 -1 0 
22 0 0 0 0 0 17 0 0 
-43 -1 0 13 0 0 20 0 0 
3 0 0 -53 -1 0 35 0 1 
-20 -1 1 21 0 0 -2 0 0 
7 0 0 -44 -1 0 -1 0 0 
6 0 0 28 0 0 7 0 1 
1 0 0 16 0 0 -1 0 0 
3 0 0 25 0 1 10 0 0 
0 0 0 1 0 0 -1 0 0 
24 0 0 2 0 0 28 0 1 
-42 -1 1 18 0 0 1 0 0 
3 0 0 14 0 0 3 0 0 
9 0 0 9 0 0 4 0 0 
-1 0 0 13 0 0 24 0 1 
2 0 0 15 0 0 26 0 0 
1 0 0 19 0 0 6 0 0 
5 0 0 21 0 0 5 0 0 
8 0 0 1 0 0 8 0 0 
1 0 0 5 0 0 39 0 0 
2 0 0 -28 -1 0 29 0 0 
-27 -1 1 10 0 0 0 0 0 
7 0 0 -27 -1 0 20 0 0 
0 0 0 0 0 0 5 0 0 
16 0 0 16 0 0 -39 -1 0 
14 0 0 0 0 0 13 0 0 
12 0 0 10 0 0 -27 -1 0 
11 0 0 0 0 0 1 0 0 
19 0 0 3 0 0 2 0 0 
12 0 0 8 0 0 8 0 0 
1 0 0 9 0 0 3 0 0 
7 0 0 18 0 0 2 0 0 
-31 -1 -1 33 0 0 6 0 0 
3 0 0 -2 0 0 4 0 0 
3 0 0 18 0 0 4 0 0 
4 0 0 18 0 0 6 0 0 
-42 -1 0 -3 0 0 0 0 0 
19 0 -1 -26 -1 0 -45 -1 0 
32 0 -1 32 0 0 18 0 0 
14 0 0 -24 -1 0 2 0 0 
-2 0 0 6 0 -1 2 0 0 
10 0 0 3 0 0 7 0 0 
5 0 0 12 0 0 1 0 0 
6 0 0 23 0 0 14 0 -1 
22 0 0 4 0 0 27 0 0 
5 0 0 15 0 0 12 0 0 
7 0 0 5 0 0 8 0 0 
3 0 0 6 0 0 12 0 0 
4 0 0 8 0 0 12 0 0 
-1 0 0 10 0 0 9 0 0 
2 0 0 0 0 0 4 0 0 
1 0 0 0 0 0 7 0 0 
23 0 -1 21 0 0 -30 -1 0 
2 0 0 17 0 -1 25 0 0 
16 0 -1 2 0 0 6 0 0 
1 0 0 6 0 -1 8 0 -1 
2 0 0 7 0 -1 3 0 0 
-34 -1 0 2 0 -1 2 0 0 
31 0 -1 6 0 0 5 0 -1 
10 0 0 1 0 0 9 0 0 
3 0 0 8 0 -1 18 0 0 
42 0 -1 2 0 -1 10 0 0 
-28 -1 0 16 0 -1 0 0 0 
4 0 -1 3 0 0 4 0 0 
1 0 -1 25 0 -1 -19 -1 0 
4 0 0 5 0 0 5 0 -1 
2 0 0 
v 3 1000 double
-345.67142916 -14.450389393 36.507785522 -477.20233593 13.495948905 -16.073343709 -135.51961881 -14.115324849 1.77588434 
-33.239286286 -6.1266607534 13.072129867 -347.21688834 -8.5388313435 -13.07179489 -231.19249315 -3.3977377562 -21.907769448 
-164.05403456 -0.065982874773 2.2281372937 -179.02330201 -5.85997605 -1.4095993068 -217.93533521 5.3817434481 13.055177536 
-77.507194773 -8.960023515 -14.012029271 -2.780901392 -3.9593841351 -0.43079299957 -229.39079596 -0.78556384005 9.0541275675 
-98.844250017 -15.811337868 6.9024713184 -31.22645484 -6.9783516342 -3.4101169463 -279.07261344 -6.1619891979 0.3579830461 
-149.92211385 10.460206766 3.1056272121 -267.84629602 -3.2063660686 1.7250071388 -234.10496745 -4.0113031932 -17.405271212 
-191.28062717 5.3996567965 14.215321463 -317.99164833 -4.669006322 12.388949084 -92.731987765 -7.0759114193 -26.480412323 
-49.629687879 5.0619356244 11.208098984 -162.05814731 -3.9737346865 8.3559106998 -410.46603027 -9.5502288662 49.348383358 
-28.454172678 -16.496169319 10.839101148 -73.944076745 13.4797104 -1.0210059959 -100.22342743 18.807796675 11.546582118 
-70.021327638 -7.7499446733 4.8137872924 -84.031840996 -7.908887108 2.0451937027 -38.611033998 -5.5855092173 -11.383885507 
-253.25637638 -5.2704510735 -22.118841559 -4.8247806251 -3.8326558858 -8.5154139993 -3.476898507 0.21306280543 -1.2637902194 
-371.42521652 -30.855249106 -3.2585890724 -353.0812466 -6.5725586431 17.727631174 -242.6967645 -8.1877425536 -12.41236651 
-444.83445816 6.2664201359 -17.043560764 -23.868541372 0.88419476932 -4.6692436114 -354.68094938 -0.95362329115 8.0155646766 
-212.97840594 15.399745768 -2.5481457718 -51.566158264 -6.4980264908 18.296274087 -84.419806054 -6.7620643368 -5.7047065819 
-134.29996444 9.2940741212 -13.539306735 -325.49583145 15.588693544 21.630031747 -453.10262436 -10.508208841 -15.830925084 
-254.44269493 -7.0480367949 1.8094512889 -28.077449353 -15.672998202 2.2159287537 -51.252869462 0.5333394009 11.871188693 
-57.286129961 -14.071240968 -19.517345623 -515.41756604 11.9026192 -1.0691490693 -159.95246048 0.2241005134 3.386220251 
-346.83480625 7.94481844 20.165167169 -482.59573165 8.7792793116 -2.9624869761 -119.16459293 6.0423481609 15.0040769 
-289.92250233 18.013502399 17.6200944 -126.66593246 -12.427506424 5.0295279828 -201.80765519 9.0846666076 15.067298313 
-347.38907873 -2.8435243977 -11.723113046 -480.85892231 -2.5114311602 -11.549452296 -349.13047652 12.277446668 -2.572494055 
-400.17021325 -1.1049742865 -23.379871539 -263.85689992 22.606693192 -30.034847148 -458.0121069 -2.8383795594 7.6525494647 
-141.81172338 -0.035243193048 0.27985733404 -358.98905315 1.4212864877 -23.731102855 -187.74108325 -4.7891111097 -15.678043875 
-127.42542988 23.495598896 -9.064551435 -397.92286178 29.356260613 -8.8123828577 -136.88602346 -6.3539191479 5.8915104391 
-292.51032696 4.8316984737 0.7333567662 -120.1976434 8.2602937698 -16.785211583 -292.00953684 5.599715188 -9.3855192927 
-52.901286326 -9.2551974172 -12.157217742 -437.63793303 2.0211481301 -9.517697954 -399.19279498 5.3934090401 -18.209382115 
-450.30044915 -26.34329053 24.278136042 -166.07649082 -5.5651190803 11.891636331 -119.0328256 -13.003280084 -9.9957432264 
-361.66363074 -2.4669488348 4.6913642236 -454.83985208 -18.419429481 -2.3504479253 -21.074919952 -5.9695572292 4.4132564733 
-28.485370249 6.4898108139 -0.26390136625 -172.70777437 11.540226694 11.621634588 -33.056337327 10.368203094 -23.972499268 
-355.76834635 -9.8021093864 13.21360457 -108.54984416 5.0059844635 8.2782368256 -72.609378633 1.6427334557 -9.2010776043 
-40.323677892 -21.800487595 -0.18421429986 -212.77636286 -3.7780920687 -7.7025395617 -322.01237798 -5.3672322873 -6.8117671084 
-501.26408381 -6.7542143524 0.27106016943 -50.65037782 8.8318869907 16.368357981 -285.32233556 0.74428267725 3.5351238355 
-45.601661829 -5.6226523664 16.922517765 -88.197413681 -0.0024903113817 6.4967549676 -22.612894479 8.6617024973 -9.7927889597 
-159.9114968 26.589641742 0.84949455816 -138.02382731 7.4139694385 7.0392337979 -506.16440922 20.92278515 9.6563216372 
-99.391885799 -8.8736195285 12.296451251 -518.82943502 -7.7646984108 -11.109003275 -160.73532861 -15.989910804 8.7000763899 
-382.37681108 -3.5668254091 22.963159249 -140.36833406 -4.1204762897 0.34863048361 -103.53249339 13.481739888 11.094683077 
-338.3849895 3.1018221226 22.425589834 -375.27159944 -17.583342711 7.8099485366 -344.49886711 -19.136663545 -16.554456031 
-219.34039364 -9.7290187089 5.4562689305 -106.51340377 19.616809599 13.650339979 -136.25616934 -10.501888091 -12.676924192 
-192.62628631 4.3226246573 -20.171252057 -52.326255574 4.0997700502 21.055931943 -262.2099032 -0.54979129742 -0.94987174591 
-249.63226704 -25.92327082 -8.6691916857 -284.11620808 -18.192728516 14.765481497 -162.59484887 6.6770543677 -13.37008912 
-318.65349054 -16.083396456 19.812200607 -76.865565545 -0.09269618516 16.498169805 -136.07013901 -10.448388031 4.1018488152 
-185.57857087 2.2257046115 -1.9657467474 -262.12504541 -4.3862477307 25.495640305 -226.74661242 -10.035077715 5.1734073233 
-94.099222391 -8.0844755429 3.4448833699 -371.6071356 -7.3443050449 11.126990803 -340.72748563 0.72684590181 -3.3038415286 
-313.65078184 -20.072327776 12.310077464 -115.00463099 -11.21037106 -2.3594537125 -207.88502029 3.8319672279 -14.673700002 
-74.475998439 13.67006876 4.5770346396 -427.03021807 0.64638298011 -3.652278843 -66.184556527 1.1043126607 20.869211496 
-102.53443109 -4.6534297675 -2.4591336497 -221.53906575 0.10945921073 1.7176138473 -463.09059512 -4.3728761852 -27.867077693 
-372.960127 1.3738593601 26.857963455 -12.94218033 2.8438625747 -4.1254853588 -16.893261607 1.8699113717 -12.172076176 
-143.65845293 1.7529977135 19.67206584 -392.13297811 25.221369781 -6.6873446817 -416.27318463 26.597343868 6.4654509213 
-25.298338978 2.8342532139 14.593032503 -47.318495206 8.7506326498 4.0628248613 -106.06650322 12.496249013 -4.7603587983 
-228.41316276 3.6373139413 3.1819847401 -129.00705026 8.8143786573 -5.9799838549 -20.706785953 -5.7540508273 -5.0097066677 
-455.2476277 20.753497572 -27.756119772 -78.158337746 7.0661926496 -16.275864286 -26.502292782 15.918011404 7.0306332806 
-449.9190458 -7.8838126252 -15.050778772 -18.304609617 12.8807745 -1.7133366248 -113.28573229 6.4768701948 -17.190988808 
-168.53650714 14.296218758 2.1840333303 -443.04822239 6.9593197583 1.4007431884 -35.42700375 1.5635922324 5.5804658057 