ITEM: TIMESTEP
15000
ITEM: NUMBER OF ATOMS
1000
ITEM: BOX BOUNDS xy xz yz pp pp pp
0 10 0
0 10 0
-0 10 0
ITEM: ATOMS id type type x y z ix iy iz vx vy vz fx fy fz omegax omegay omegaz radius 
490 1 1 1.9667 1.2958 0.2899 -46 0 0 -339.719 -8.26278 6.11365 517.177 -1430.06 186.473 0 0 0 0.5 
385 1 1 1.95861 0.487059 1.26763 -77 0 0 -418.038 5.31409 -7.93226 -1020.15 -249.46 950.359 0 0 0 0.5 
293 1 1 2.34876 1.35663 1.35583 -45 0 0 -306.021 -21.1418 12.2338 -1229.69 -673.893 -3968.94 0 0 0 0.5 
656 2 2 1.03671 3.44745 0.0211323 -30 0 1 -166.717 6.19122 27.6797 296.558 -255.656 1471.83 0 0 0 0.5 
995 2 2 0.806146 1.92441 1.52412 -32 0 1 -266.336 -25.6459 -1.20613 -2096.86 1585.29 -1031.33 0 0 0 0.5 
793 2 2 0.513371 0.272712 0.0505583 50 1 0 -494.101 6.54055 17.1044 2697.49 -936.321 -1168.57 0 0 0 0.5 
100 1 1 2.19481 4.25076 1.99113 -5 0 0 -56.9293 -7.58729 11.495 2057.86 -867.451 1145.94 0 0 0 0.5 
255 1 1 0.936963 2.65666 1.50345 -15 0 1 -165.189 -4.42994 7.744 328.801 -84.0534 824.381 0 0 0 0.5 
820 2 2 1.65116 2.16832 0.176127 -26 0 0 -252.853 4.60298 -0.57293 -727.186 1458.52 -475.258 0 0 0 0.5 
538 2 2 1.55765 3.32228 1.09259 81 1 0 -162.849 3.17845 2.5901 469.829 575.697 -1194.27 0 0 0 0.5 
354 1 1 2.25033 2.97118 1.30693 -11 0 1 -162.5 5.25719 20.8801 1475.4 -1108.37 319.431 0 0 0 0.5 
567 2 2 4.81512 4.69829 0.0974232 -3 0 1 -28.4721 -12.0049 -10.4097 940.033 -662.682 -991.274 0 0 0 0.5 
596 2 2 0.20458 1.3832 1.04341 -27 0 1 -345.962 4.75269 27.6443 567.97 981.057 1379.61 0 0 0 0.5 
898 2 2 4.13664 2.55635 0.929885 -20 0 0 -224.619 8.16134 5.5743 -40.8953 18.6229 83.6262 0 0 0 0.5 
618 2 2 2.20072 3.59499 0.471385 -9 0 1 -138.91 8.00226 11.0904 -101.192 -223.631 308.573 0 0 0 0.5 
559 2 2 2.21863 2.09143 0.95647 -59 0 1 -241.867 1.78379 -9.5939 151.054 730.578 209.749 0 0 0 0.5 
871 2 2 1.69534 4.12761 0.561076 -9 0 0 -89.1146 24.6402 13.4955 -256.188 515.494 -375.064 0 0 0 0.5 
886 2 2 1.5975 1.93975 1.93619 84 1 0 -259.238 -11.2233 -2.74136 632.039 660.793 -84.647 0 0 0 0.5 
275 1 1 4.49731 1.384 1.52193 -14 0 0 -346.975 23.0861 6.53996 67.4103 -1076.08 -180.633 0 0 0 0.5 
102 1 1 4.15528 3.93156 0.48959 -1 0 0 -138.544 3.1803 9.68864 92.3608 -1380.5 211.775 0 0 0 0.5 
579 2 2 3.05975 2.20565 1.78175 -14 0 0 -257.237 -21.3026 5.72161 -657.528 -882.151 -515.418 0 0 0 0.5 
772 2 2 1.16371 1.11843 1.45083 -18 0 1 -341.758 -20.4057 -22.0872 -24.2297 -2332.95 -1689.67 0 0 0 0.5 
765 2 2 0.611528 1.32893 0.174246 60 1 0 -351.417 12.7364 13.3084 -397.313 537.205 1613.55 0 0 0 0.5 
587 2 2 4.30595 4.01836 1.86012 -17 0 1 -102.479 17.3018 4.31702 -740.64 1123.99 412.723 0 0 0 0.5 
832 2 2 0.759566 2.67015 0.553891 -17 0 0 -212.238 -8.45151 18.3063 1879.47 -1438.03 -666.303 0 0 0 0.5 
203 1 1 0.39355 0.682519 0.813779 -45 0 0 -391.667 -9.94164 -0.287024 -1099.2 -1732.81 3368.54 0 0 0 0.5 
380 1 1 3.42735 3.18046 1.50665 -19 0 1 -161.727 -6.56896 8.24631 295.844 10.4827 194.37 0 0 0 0.5 
473 1 1 0.821828 4.14229 0.753297 2 0 0 -83.8494 8.53547 -9.10507 -1242.67 270.843 336.163 0 0 0 0.5 
316 1 1 3.89847 2.27699 1.84436 -44 0 0 -246.369 3.89991 3.07485 -693.854 156.051 -227.775 0 0 0 0.5 
319 1 1 2.64223 4.21516 1.11294 -1 0 0 -59.7278 -6.89557 8.28815 -514.429 -762.195 -838.655 0 0 0 0.5 
749 2 2 3.47788 1.36376 1.28956 -79 0 1 -313.802 14.7505 -5.9719 -1432.59 -31.1372 2578.08 0 0 0 0.5 
802 2 2 1.60422 4.67088 1.36546 -7 0 1 1.95427 -17.3237 5.26487 -1270.23 1559.31 1068.82 0 0 0 0.5 
425 1 1 2.71931 0.492621 0.83434 -38 0 0 -420.434 0.435566 -16.4534 1290.77 34.4375 -102.959 0 0 0 0.5 
777 2 2 3.23392 0.540235 1.65023 -49 0 0 -431.148 5.93347 10.0056 144.553 1451.24 -1112.6 0 0 0 0.5 
130 1 1 3.02322 3.29786 0.66633 -11 0 0 -174.967 24.5847 14.476 2598.12 -1828.57 -14.4684 0 0 0 0.5 
636 2 2 3.19929 1.30677 0.208414 -34 0 1 -377.377 25.9312 -20.2478 -876.232 904.104 -406.984 0 0 0 0.5 
480 1 1 3.26513 2.41247 0.667902 -21 0 1 -232.611 -22.3984 -0.719436 -248.281 736.027 -14.8904 0 0 0 0.5 
43 1 1 3.80923 0.881627 0.646401 -29 0 1 -397.345 2.23158 -6.62742 917.52 -1476.55 -2128.4 0 0 0 0.5 
731 2 2 0.690716 4.44727 1.80911 119 1 0 -22.3158 -28.0267 -9.05626 -3646.53 1995.04 -1709.6 0 0 0 0.5 
619 2 2 0.225009 3.324 0.485544 -9 0 1 -159.196 6.01717 21.7173 -2753.78 822.374 469.926 0 0 0 0.5 
91 1 1 0.867842 3.53093 1.40393 0 0 0 -150.947 6.66281 12.2502 -2778.16 1285.63 484.881 0 0 0 0.5 
119 1 1 0.10298 4.14101 0.212445 -6 0 0 -95.4146 5.78385 -12.2725 -332.659 1842 -818.852 0 0 0 0.5 
650 2 2 3.34838 4.00679 1.83228 -8 0 0 -110.792 21.1314 8.0732 12.8857 -20.0865 -7.6491 0 0 0 0.5 
783 2 2 4.02026 4.86749 0.364339 -13 0 1 -22.6532 -1.27612 -2.33419 -975.178 1726 808.519 0 0 0 0.5 
868 2 2 4.46775 0.48435 1.2251 -24 0 1 -423.594 -3.10024 -9.67142 -601.863 1072.16 992.38 0 0 0 0.5 
485 1 1 4.76278 2.28541 1.87151 -37 0 1 -248.667 10.2178 -23.7955 1385.9 -774.934 -77.3515 0 0 0 0.5 
621 2 2 4.76776 4.83792 1.00031 2 0 0 7.53953 -12.6544 -8.61532 -593.189 55.8329 670.912 0 0 0 0.5 
905 2 2 4.78895 3.20119 1.76522 -11 0 0 -156.394 3.77202 5.16937 873.609 -59.7072 -333.558 0 0 0 0.5 
62 1 1 4.95304 3.4315 0.372833 -19 0 0 -140.299 -8.0107 -12.0418 382.73 -619.754 1087.39 0 0 0 0.5 
597 2 2 0.0161078 1.45997 2.24054 -22 0 1 -329.675 9.23158 4.16299 -691.644 -1706.2 368.404 0 0 0 0.5 
803 2 2 1.91726 0.961583 3.06373 46 1 0 -370.508 8.55046 -23.9945 -153.329 -998.525 -3753.83 0 0 0 0.5 
804 2 2 0.770859 1.63334 2.91435 -66 0 0 -319.172 3.83342 0.219793 -668.87 -558.383 230.457 0 0 0 0.5 
697 2 2 2.83185 3.00595 2.22738 -20 0 0 -179.304 -5.16208 1.15797 18.9293 791.588 760.243 0 0 0 0.5 
18 1 1 2.30265 3.87947 2.88838 -9 0 0 -92.0739 -16.0569 8.13733 -2115.82 -755.692 358.498 0 0 0 0.5 
32 1 1 1.68966 0.972174 2.08068 80 1 0 -384.231 -5.80053 10.8276 943.706 -1344.8 1622.35 0 0 0 0.5 
689 2 2 3.75047 3.06261 2.59422 -21 0 0 -163.318 0.57738 -13.7459 1383.24 -2068.51 -1123.32 0 0 0 0.5 
434 1 1 0.101234 1.32149 3.88968 -30 0 0 -346.593 -7.72723 10.9507 -2071.61 564.324 -471.387 0 0 0 0.5 
785 2 2 1.65781 3.1771 3.03448 89 1 0 -163.465 25.3287 2.52792 3438.77 -1811.52 434.533 0 0 0 0.5 
943 2 2 2.5797 2.18781 2.80225 -14 0 0 -267.007 8.00802 -33.3576 -78.9251 409.193 -712.783 0 0 0 0.5 
112 1 1 1.31422 3.9527 2.97614 -2 0 0 -90.6641 17.4211 8.67326 -910.273 1057.62 1389.08 0 0 0 0.5 
416 1 1 2.55948 1.25633 2.24701 -22 0 0 -382.547 35.7354 -30.9417 1125.82 -590.559 3371.87 0 0 0 0.5 
881 2 2 4.05803 4.06376 2.82242 -1 0 0 -104.344 13.5726 10.7496 152.363 21.8252 -292.096 0 0 0 0.5 
493 1 1 1.8809 2.38424 3.44135 62 1 0 -242.024 -0.0216217 2.65722 -1786.06 429.825 -1013.94 0 0 0 0.5 
722 2 2 2.15501 0.769528 3.80879 -45 0 0 -452.923 7.8177 -12.2504 1388.26 348.971 -1359.72 0 0 0 0.5 
937 2 2 3.06543 3.91035 3.81135 -9 0 0 -86.2845 -7.76976 15.7258 -1771.67 133.95 -268.22 0 0 0 0.5 
391 1 1 0.958224 3.17853 3.46793 -3 0 0 -164.654 -5.8104 1.29008 1313.5 1555.47 -250.734 0 0 0 0.5 
554 2 2 4.61967 0.609603 2.26614 -22 0 0 -397.313 -12.4374 -4.96417 -837.194 -291.319 -632.317 0 0 0 0.5 
429 1 1 2.39334 4.7069 2.9714 -15 0 0 -7.66252 -5.42673 4.77598 807.27 23.2544 -1449.19 0 0 0 0.5 
280 1 1 1.54377 2.56166 2.54296 -32 0 0 -236.13 -0.744105 11.8762 -303.92 -1575.67 -45.9799 0 0 0 0.5 
487 1 1 0.644003 2.2883 2.38123 -40 0 0 -240.319 -11.8869 -7.43417 101.943 1554.56 -1865.58 0 0 0 0.5 
297 1 1 1.85265 0.178144 2.83414 53 1 0 -457.518 -27.9119 -1.10731 -2115.14 -722.62 823.998 0 0 0 0.5 
548 2 2 2.43536 2.09643 3.98937 -35 0 0 -291.944 26.3816 23.8269 -351.71 2203.2 1859.56 0 0 0 0.5 
117 1 1 1.31194 1.14166 3.29366 -27 0 0 -353.393 -5.21312 6.60139 -912.162 -386.704 713.453 0 0 0 0.5 
451 1 1 4.68463 4.44018 3.58345 1 0 0 -66.524 14.6475 8.90551 2426.03 29.3788 -597.652 0 0 0 0.5 
307 1 1 2.7612 1.70943 3.50307 60 1 0 -324.197 13.335 -2.46919 -3107.52 995.541 -2233.13 0 0 0 0.5 
536 2 2 2.91829 0.304389 3.23613 -70 0 0 -513.713 17.2032 22.2685 155.177 -2696.43 185.651 0 0 0 0.5 
999 2 2 2.80951 4.88976 3.7926 -9 0 0 21.3167 -11.65 -18.2327 -358.714 182.45 -528.974 0 0 0 0.5 
960 2 2 2.55011 0.369419 2.43286 54 1 1 -490.936 13.1967 -22.8246 2053.82 1214.09 -241.078 0 0 0 0.5 
773 2 2 4.25103 1.92657 2.68204 -11 0 0 -251.656 -12.2602 -0.328206 -3013.42 1209.88 1234.86 0 0 0 0.5 
828 2 2 3.17284 3.66998 2.91233 -19 0 1 -102.484 -1.43709 1.02924 -221.101 1500.67 1020 0 0 0 0.5 
918 2 2 2.71528 1.13199 3.06499 -17 0 0 -385.577 -8.55623 -24.1451 -765.328 2093.69 1249.89 0 0 0 0.5 
932 2 2 0.397474 2.91289 2.77223 -7 0 0 -182.08 12.9513 32.3025 -65.1774 -68.4533 -1437.42 0 0 0 0.5 
361 1 1 0.521051 4.14526 3.3451 -10 0 0 -90.4892 5.69892 0.540438 -977.34 248.584 -58.6388 0 0 0 0.5 
814 2 2 4.10905 1.05226 3.32975 -40 0 1 -377.726 10.3797 15.6928 1331.42 -467.49 551.723 0 0 0 0.5 
235 1 1 3.63935 2.38387 3.23449 -21 0 0 -245.112 -2.56414 -11.3699 -51.8064 1614.56 1244.95 0 0 0 0.5 
257 1 1 3.98053 3.12989 3.77665 -8 0 0 -178.441 5.41561 -8.76153 -1641.44 -2168.49 -835.696 0 0 0 0.5 
101 1 1 4.72051 3.02895 2.76123 -8 0 0 -166.394 7.36257 10.7636 -245.965 27.1723 -265.142 0 0 0 0.5 
404 1 1 3.92817 4.86018 3.51493 9 0 0 -15.0617 13.1033 22.1353 -3234.45 1834.01 -182.679 0 0 0 0.5 
95 1 1 1.3116 4.11607 2.10085 -5 0 0 -63.9377 -1.40803 6.99484 2700.81 1971.91 640.523 0 0 0 0.5 
6 1 1 3.43656 4.86578 2.69786 -7 0 0 4.80956 -23.2216 2.95621 1339.36 -593.659 589.126 0 0 0 0.5 
807 2 2 1.43985 3.34295 2.07539 -14 0 0 -157.447 -6.38277 16.1722 665.306 -1290.06 -1860.88 0 0 0 0.5 
151 1 1 3.40533 1.29935 3.03814 -22 0 0 -366.657 18.7328 -29.0938 1720.77 -113.006 -1696.35 0 0 0 0.5 
136 1 1 -0.0338954 4.81355 2.75065 -15 0 0 -14.9724 8.97879 6.26288 -302.923 -1279.66 -533.986 0 0 0 0.5 
373 1 1 4.96636 1.59199 2.37493 -24 0 0 -312.011 -8.13355 0.888816 3167.14 1220.9 -2345.84 0 0 0 0.5 
249 1 1 1.17532 1.82629 4.48699 -37 0 1 -260.495 6.47557 -3.04997 622.249 -1551.26 -260.086 0 0 0 0.5 
510 2 2 0.552184 2.36673 4.35907 -19 0 0 -260.64 15.1703 -25.7492 771.657 -149.622 223.691 0 0 0 0.5 
714 2 2 0.855083 4.31742 4.18263 108 1 0 -62.3869 3.859 -17.0582 3352.79 -83.1768 -210.759 0 0 0 0.5 
708 2 2 0.939959 1.09369 4.07956 -52 0 0 -363.045 -6.45533 -11.0262 1276.61 1010.83 1959.82 0 0 0 0.5 
750 2 2 2.54533 0.854415 5.459 -34 0 0 -339.296 -33.6079 -2.79017 -445.552 738.33 -122.681 0 0 0 0.5 
679 2 2 1.50465 3.26077 4.55527 -10 0 0 -140.87 -12.9327 -3.48185 -889.71 653.581 -936.049 0 0 0 0.5 
890 2 2 3.98813 2.60375 5.19085 -3 0 0 -195.817 -9.09759 -15.8767 422.065 1842.5 -72.5578 0 0 0 0.5 
930 2 2 3.55081 3.79989 5.43519 -9 0 0 -107.502 2.21748 -17.1827 -178.505 -242.223 27.76 0 0 0 0.5 
939 2 2 2.48178 3.45866 4.49545 -3 0 0 -143.963 19.7284 12.6704 -1397.09 512.913 1189.14 0 0 0 0.5 
594 2 2 4.28553 2.17409 5.96728 -28 0 0 -238.708 17.5778 14.9692 -4609.14 2861.58 -805.177 0 0 0 0.5 
291 1 1 1.15602 1.13549 5.36609 -22 0 0 -328.007 -16.4601 1.40611 170.158 657.721 523.28 0 0 0 0.5 
454 1 1 0.351194 0.104987 5.65009 54 1 0 -468.116 -7.35926 21.7642 92.6324 -731.586 -1173.44 0 0 0 0.5 
751 2 2 0.00788918 1.37719 5.26847 63 1 0 -294.111 -14.6458 -13.9674 486.635 -385.126 -175.355 0 0 0 0.5 
409 1 1 2.02815 1.23005 4.43899 108 1 0 -381.796 -5.22714 15.0689 -1407.63 156.285 435.784 0 0 0 0.5 
327 1 1 2.09866 2.88958 5.1028 -2 0 0 -165.292 -19.8415 6.38022 1301.99 -192.52 462.263 0 0 0 0.5 
243 1 1 0.309945 2.85292 5.09735 -17 0 0 -227.993 20.5144 -24.4794 3260.68 -673.816 -2010.19 0 0 0 0.5 
7 1 1 0.838473 2.50218 5.7927 -10 0 0 -232.459 4.69296 -15.9989 -203.765 91.2147 297.719 0 0 0 0.5 
25 1 1 1.1115 0.443986 4.56961 -43 0 0 -420.773 -12.0969 19.1005 -2749.37 2966.11 2315.26 0 0 0 0.5 
225 1 1 1.50355 3.49141 5.90665 -14 0 0 -82.6036 -18.3928 16.1954 -2216.87 313.662 102.943 0 0 0 0.5 
568 2 2 2.01396 1.61414 5.28554 -19 0 0 -325.581 10.6986 -0.302928 -21.6516 -644.07 888.541 0 0 0 0.5 
420 1 1 2.92475 4.56551 5.5115 8 0 0 -69.7896 8.14074 23.5191 4453.13 -534.836 189.377 0 0 0 0.5 
340 1 1 2.42829 4.97686 4.98537 -6 0 0 -2.76296 7.02432 -15.0722 -1532.54 1293.35 -1565.89 0 0 0 0.5 
217 1 1 2.10593 4.55952 5.86053 -11 0 0 -28.6216 -14.0446 -10.5955 -2872.76 -433.679 830.917 0 0 0 0.5 
149 1 1 1.66815 4.2543 4.59295 -4 0 0 -51.4089 1.05801 -2.37146 1631.63 -1488.32 -949.469 0 0 0 0.5 
250 1 1 3.63734 2.39999 4.32717 -10 0 0 -230.36 4.01756 -7.25656 920.277 -2515.61 433.221 0 0 0 0.5 
572 2 2 4.29575 1.37939 5.75306 -23 0 0 -371.644 -20.5493 -17.0906 291.719 876.733 1470.57 0 0 0 0.5 
256 1 1 0.929257 3.81 5.28439 -16 0 0 -62.8405 -17.0649 -11.4964 -348.988 353.281 -535.256 0 0 0 0.5 
858 2 2 0.0797909 4.46833 4.68494 -2 0 0 -11.1172 -6.97582 -33.2694 -2218.21 -494.119 1232.1 0 0 0 0.5 
959 2 2 3.63453 0.153789 4.03393 47 1 0 -516.003 14.9281 -2.67618 6.94909 -39.8826 39.4918 0 0 0 0.5 
163 1 1 3.46333 0.568674 5.16682 51 1 0 -452.914 5.5369 -0.911081 -642.496 2512.68 -1335.45 0 0 0 0.5 
80 1 1 0.486239 3.39192 4.06385 -6 0 0 -146.016 -8.49242 23.9812 -1100.42 497.506 1389.37 0 0 0 0.5 
961 2 2 3.29233 4.566 4.44204 4 0 0 -32.6469 -3.08144 19.258 -1356.94 1570.7 2212.57 0 0 0 0.5 
21 1 1 4.9208 2.11009 5.34094 -56 0 0 -247.696 -6.79539 -4.20384 -62.7981 1346.88 -247.425 0 0 0 0.5 
954 2 2 2.78893 1.58163 4.49954 45 1 0 -377.414 0.734207 23.2634 -1362.6 -705.717 2816.88 0 0 0 0.5 
408 1 1 0.978391 4.69925 5.05116 -6 0 0 -8.80709 2.3335 -1.57395 238.26 -2336.92 -346.202 0 0 0 0.5 
523 2 2 2.91562 2.28975 5.00175 -27 0 1 -241.384 14.2271 17.6648 -2239.59 4036.72 -1433.37 0 0 0 0.5 
973 2 2 3.50093 1.5149 5.10021 -20 0 0 -376.511 26.0882 -0.924809 2519.19 -3741.09 2678.23 0 0 0 0.5 
503 2 2 3.96728 3.96905 4.08589 -19 0 0 -106.184 17.9859 -13.0815 4523.98 -815.163 -840.162 0 0 0 0.5 
616 2 2 4.26332 3.3043 5.73458 -4 0 0 -116.064 -10.5215 -3.15997 -620.522 -1167.17 -95.9061 0 0 0 0.5 
365 1 1 3.40483 1.47311 4.11381 -61 0 0 -406.787 18.1215 -10.3477 4916.85 409.723 1360.52 0 0 0 0.5 
497 1 1 3.20586 1.24653 5.97503 65 1 0 -347.798 -1.52126 11.5059 -381.1 105.1 -1409.23 0 0 0 0.5 
369 1 1 3.02022 2.92614 4.10432 -15 0 0 -193.818 4.6995 -32.3627 -954.019 679.09 -1415.49 0 0 0 0.5 
94 1 1 4.49134 4.2779 5.5229 -17 0 0 -109.006 15.2367 8.18909 -1414.17 812.203 190.779 0 0 0 0.5 
346 1 1 2.55709 0.171942 4.10498 58 1 0 -498.644 -12.8992 30.8395 419.415 292.249 -1384.81 0 0 0 0.5 
169 1 1 4.09824 1.04328 4.52659 46 1 0 -436.194 15.4462 11.3593 2272.23 -1671.46 -1186.36 0 0 0 0.5 
366 1 1 4.24062 3.46266 4.8072 -6 0 0 -114.08 -4.91332 -9.60894 92.7849 -984.049 -52.2961 0 0 0 0.5 
200 1 1 4.8144 0.585818 5.05219 -67 0 0 -450.411 8.57774 3.89341 -548.68 563.581 1408.18 0 0 0 0.5 
410 1 1 4.84843 3.03472 4.07387 -2 0 0 -180.531 4.62605 -10.4384 146.142 1871.57 -1443.45 0 0 0 0.5 
586 2 2 0.630125 1.559 6.1024 55 1 0 -315.274 13.0259 13.9746 214.192 814.254 -981.644 0 0 0 0.5 
148 1 1 1.74958 3.57055 7.4707 -11 0 0 -142.772 6.29197 -27.6627 2300 -223.167 -994.239 0 0 0 0.5 
744 2 2 0.0742441 0.242461 6.99883 36 1 0 -500.659 15.7524 2.2834 1482.4 481.934 -257.757 0 0 0 0.5 
329 1 1 1.08446 1.5218 7.0708 -29 0 0 -307.781 -7.18859 -7.51211 0 0 0 0 0 0 0.5 
206 1 1 0.77149 0.742947 6.38964 -28 0 0 -429.074 7.12869 53.6765 -1349.82 214.103 1473.9 0 0 0 0.5 
741 2 2 1.98093 0.988825 6.42749 -64 0 0 -381.725 1.97239 2.32523 -2035.99 1828.27 -668.982 0 0 0 0.5 
56 1 1 1.07896 2.52764 7.62048 -15 0 0 -259.914 24.6118 -17.3378 -382.256 541.745 1480.21 0 0 0 0.5 
216 1 1 1.17788 2.48395 6.71687 -38 0 0 -262.871 23.6134 -1.55201 190.804 -84.0854 -1737.18 0 0 0 0.5 
613 2 2 3.55748 2.15741 6.1115 -12 0 0 -256.816 -23.9139 -15.8826 -2125.26 295.69 -1674.86 0 0 0 0.5 
234 1 1 1.80861 1.8112 6.18241 -30 0 0 -325.774 23.1295 1.09206 -232.218 791.504 150.689 0 0 0 0.5 
220 1 1 0.180324 2.82302 6.42937 76 1 0 -251.963 11.7655 -20.4049 -22.2455 229.415 664.38 0 0 0 0.5 
648 2 2 1.27652 0.299112 6.04057 58 1 0 -460.736 5.47545 5.30488 690.627 579.368 -784.617 0 0 0 0.5 
263 1 1 3.98086 3.47692 6.6733 -10 0 0 -102.485 -9.52157 15.3699 -1.54537 -189.423 -493.104 0 0 0 0.5 
207 1 1 0.671456 0.488247 7.71986 54 1 1 -464.009 -4.54428 -16.0854 2718.36 -4252.64 119.752 0 0 0 0.5 
282 1 1 0.216191 1.31004 7.53034 59 1 -1 -316.262 -17.5665 -9.19397 -2486.52 4320.81 -2311.16 0 0 0 0.5 
241 1 1 4.06005 2.76951 7.81225 88 1 0 -182.794 -19.0781 14.1812 -353.614 -984.114 -1085.69 0 0 0 0.5 
719 2 2 2.39439 0.508216 6.5942 52 1 0 -411.079 -17.0099 21.2408 2579.7 -1990.44 1304.39 0 0 0 0.5 
146 1 1 2.15701 4.00095 6.65395 -4 0 0 -63.33 -9.1418 5.51697 -154.993 629.692 376.223 0 0 0 0.5 
584 2 2 3.83404 1.40227 6.63286 -22 0 0 -357.182 -2.64324 14.3111 -834.984 -1594.19 -1899.46 0 0 0 0.5 
766 2 2 4.12361 1.3856 7.73901 -20 0 0 -369.856 25.7348 -2.47524 1495.38 608.655 1640.69 0 0 0 0.5 
352 1 1 4.79155 3.10772 7.87541 -16 0 0 -181.17 11.4153 9.88061 -36.4697 -112.511 -1247.15 0 0 0 0.5 
4 1 1 1.82755 1.22413 7.73344 -64 0 -1 -331.416 -18.688 -12.1486 1076.69 -1637.5 -374.357 0 0 0 0.5 
737 2 2 0.105602 4.3563 7.03044 -7 0 0 -34.5448 -15.4652 10.1323 -1391.52 -1008.3 599.721 0 0 0 0.5 
626 2 2 2.76149 4.16891 7.81329 4 0 -1 -60.9504 2.49071 -44.8819 -1124.18 1653.23 410.789 0 0 0 0.5 
771 2 2 3.35614 1.01106 7.64315 -35 0 -1 -364.342 9.24636 23.2281 -1158.97 1606.41 -2702.61 0 0 0 0.5 
852 2 2 4.4729 1.21812 7.1357 -48 0 0 -380.262 10.9859 -4.69819 2031.77 1924.79 -315.643 0 0 0 0.5 
49 1 1 4.29065 4.23764 7.61049 9 0 0 -19.0873 -22.7692 -1.28901 -3324.08 616.303 1215.96 0 0 0 0.5 
229 1 1 2.90221 1.90983 7.31851 -20 0 0 -267.078 3.8721 20.6872 235.729 547.073 1203.22 0 0 0 0.5 
569 2 2 3.44914 0.373102 7.03899 92 1 -1 -440.945 3.9262 -8.01837 -1430.54 291.45 -564.085 0 0 0 0.5 
875 2 2 3.93843 4.33041 6.39284 20 0 0 -39.0384 9.94778 5.99494 -2.01433 40.5209 -13.3154 0 0 0 0.5 
313 1 1 4.20824 0.234776 7.31685 -38 0 0 -439.69 14.2898 3.47424 -1062.75 795.517 -1992.93 0 0 0 0.5 
446 1 1 3.36867 3.63742 7.52612 -13 0 0 -105.428 5.44346 3.05683 2605.4 -2316.92 -1807.93 0 0 0 0.5 
314 1 1 2.86154 1.2459 6.88658 -24 0 0 -340.407 -8.05082 7.8394 -1360.22 -1614.84 -1124.14 0 0 0 0.5 
956 2 2 3.34539 2.65837 6.6083 -29 0 0 -223.744 6.36056 2.57959 596.987 -2032.49 -580.893 0 0 0 0.5 
261 1 1 3.07436 4.88519 6.95901 -3 0 0 18.6293 -1.3018 -24.8859 -207.224 -80.1029 -347.723 0 0 0 0.5 
141 1 1 0.902106 3.65278 7.83704 8 0 0 -94.1447 1.7178 0.51925 -2414.54 -278.475 -2339.27 0 0 0 0.5 
862 2 2 3.02214 3.47547 6.66631 -32 0 0 -108.392 4.98525 -3.2909 -967.172 3348.54 530.675 0 0 0 0.5 
966 2 2 3.26294 2.75518 7.43334 -2 0 0 -203.628 -5.75092 21.7329 -2159.43 1823.99 1385.45 0 0 0 0.5 
564 2 2 -0.0244461 4.74792 6.0525 -2 0 0 -13.5745 -5.55663 -9.30118 -50.034 -1285.78 -547.926 0 0 0 0.5 
439 1 1 0.941439 4.23039 6.87109 -8 0 0 -57.9225 0.560945 8.4122 2172.9 -3939.22 141.588 0 0 0 0.5 
326 1 1 0.835784 4.40775 6.00041 5 0 0 -9.04583 1.05688 -6.53906 523.461 -55.9617 -537.959 0 0 0 0.5 
524 2 2 3.90687 4.91971 7.29333 -13 0 0 22.1802 18.83 -12.937 290.501 460.476 11.9143 0 0 0 0.5 
860 2 2 0.58288 3.46334 7.00195 0 0 0 -179.791 0.11257 -9.87656 476.828 586.465 349.669 0 0 0 0.5 
227 1 1 3.84231 2.1482 7.19147 -28 0 0 -253.102 -13.6612 12.2362 -913.747 1799.68 -2000.49 0 0 0 0.5 
767 2 2 4.63473 2.08315 7.25128 -26 0 0 -241.756 18.5512 29.1542 160.879 -2567.93 1142.73 0 0 0 0.5 
262 1 1 4.64027 0.689072 6.49004 -51 0 0 -446.843 4.12767 -20.7873 5.61221 -475.608 -934.165 0 0 0 0.5 
658 2 2 2.34269 3.32299 6.00357 -6 0 0 -104.79 -12.7631 6.40836 2225.44 -1167.47 -709.336 0 0 0 0.5 
476 1 1 4.82581 3.56618 6.29837 3 0 0 -108.274 25.6062 -7.64851 845.921 69.6569 418.11 0 0 0 0.5 
752 2 2 4.9016 4.91519 6.52218 8 0 -1 38.0273 -20.7986 -35.4587 -318.394 147.77 -972.71 0 0 0 0.5 
970 2 2 1.682 0.534245 8.23217 73 1 -1 -462.258 -13.5504 14.8442 89.3667 1757.5 359.677 0 0 0 0.5 
17 1 1 0.294937 0.995879 8.31793 -41 0 0 -417.481 15.7379 5.79661 1329.13 -72.4534 2332.22 0 0 0 0.5 
11 1 1 1.6966 3.1742 9.60486 -18 0 -1 -175.874 -0.155179 6.73103 737.58 -393.403 -1318.42 0 0 0 0.5 
265 1 1 2.1132 1.84522 8.67234 -20 0 0 -289.436 -0.168517 4.7518 -1050.15 474.255 740.889 0 0 0 0.5 
270 1 1 4.64026 1.00688 8.26015 -31 0 0 -390.328 -2.80637 4.47344 3662.59 -1135.92 608.476 0 0 0 0.5 
661 2 2 4.03438 2.38673 8.71317 -12 0 -1 -235.795 -6.69094 10.8686 -1251.57 -74.672 -187.523 0 0 0 0.5 
402 1 1 1.39719 0.492891 9.24552 -61 0 0 -480.421 5.37945 3.29457 3256.26 -3145.86 -1136.42 0 0 0 0.5 
533 2 2 0.679682 2.38893 9.37045 88 1 -1 -244.418 14.1909 16.7624 -112.354 470.411 -480.828 0 0 0 0.5 
662 2 2 3.76242 2.00879 9.61346 -11 0 0 -281.11 20.1495 1.19342 3542.93 -1043.17 646.719 0 0 0 0.5 
826 2 2 1.58289 2.32739 9.19 66 1 -1 -264.036 -0.519851 5.89117 473.218 1336.76 544.022 0 0 0 0.5 
805 2 2 3.0172 2.45511 9.5111 -41 0 -1 -215.986 -14.1244 -31.9792 -3176.63 1311.43 -1500.89 0 0 0 0.5 
406 1 1 2.47091 3.30061 9.01433 -29 0 0 -171.681 -4.17533 -6.68438 1555.68 -2261.34 338.146 0 0 0 0.5 
311 1 1 4.7777 3.87954 9.50982 2 0 0 -122.228 -5.88159 9.61419 -1987.61 -43.0021 -745.749 0 0 0 0.5 
958 2 2 0.771122 0.984089 9.43758 58 1 0 -425.424 -3.92883 1.29677 832.699 -1857 2107.24 0 0 0 0.5 
745 2 2 1.87637 3.87446 8.89523 3 0 0 -123.689 6.80842 -1.1079 1804.12 -1778.9 -649.32 0 0 0 0.5 
921 2 2 0.6036 1.56589 9.08407 -29 0 0 -347.676 19.8467 -13.7611 439.56 1264.91 -540.358 0 0 0 0.5 
413 1 1 0.514355 2.90656 8.60196 -28 0 -1 -182.842 -1.02139 -24.1004 4298 -2266.82 1108.61 0 0 0 0.5 
284 1 1 0.526886 1.99007 8.40409 -61 0 0 -316.285 15.5763 -33.124 -453.337 -637.229 -1308.19 0 0 0 0.5 
99 1 1 4.4109 0.713983 9.0797 -19 0 -1 -377.093 -37.2597 9.50716 -1896.77 -1889.75 -642.325 0 0 0 0.5 
738 2 2 3.98347 1.29187 8.57877 79 1 0 -350.128 5.82656 5.71445 -1748.16 1981.41 1572.84 0 0 0 0.5 
865 2 2 1.67054 2.99255 8.50659 -24 0 -1 -186.892 3.0898 -3.49374 2322.01 -2030.32 329.418 0 0 0 0.5 
42 1 1 1.37792 1.8148 8.02282 -36 0 0 -299.053 3.82328 4.85022 -345.831 817.267 884.256 0 0 0 0.5 
30 1 1 1.94636 4.62203 9.27813 -5 0 0 -61.5593 11.1036 -9.64885 2154.62 373.731 1236.43 0 0 0 0.5 
768 2 2 2.69785 0.00707553 8.57055 -45 0 -2 -482.286 -8.30799 -3.71913 0 0 0 0 0 0 0.5 
896 2 2 4.72534 4.24693 8.33388 -1 0 -1 -38.5807 -3.42178 22.329 -1844.01 2237.33 194.471 0 0 0 0.5 
800 2 2 4.07688 1.28865 9.57777 79 1 -1 -327.029 -11.2591 8.51206 -104.07 -184.299 1033.88 0 0 0 0.5 
87 1 1 1.36663 4.70907 8.82566 6 0 0 -33.2107 -2.66262 -18.1781 -3553.51 160.691 -837.057 0 0 0 0.5 
565 2 2 4.87814 3.47251 8.65733 -14 0 0 -150.736 -2.54586 6.40283 -1238.68 -1328.14 975.619 0 0 0 0.5 
674 2 2 2.42888 4.47447 9.99959 -6 0 -1 -89.0177 17.1107 1.73509 1376.48 771.435 1120.65 0 0 0 0.5 
840 2 2 0.148953 3.59653 8.22159 -7 0 0 -116.717 1.6959 -13.8646 -1650.2 2490.74 -1480.86 0 0 0 0.5 
269 1 1 3.19753 1.06255 8.94726 -50 0 0 -315.982 -24.0893 14.7202 -1746.33 -509.541 818.77 0 0 0 0.5 
116 1 1 2.84599 4.74018 8.69292 -4 0 0 -19.133 9.91417 8.90761 -169.413 2977.79 516.948 0 0 0 0.5 
264 1 1 1.21042 4.25386 9.7915 -3 0 -1 -52.0553 -6.57511 -7.61303 1174.46 159.377 598.486 0 0 0 0.5 
672 2 2 1.08436 3.78724 8.66132 -16 0 -1 -100.26 -8.68476 -5.06792 -2278.9 1861.86 -44.0061 0 0 0 0.5 
475 1 1 2.07712 4.50599 8.17799 13 0 0 -26.0237 -4.73306 -0.356552 -1253.36 573.268 1052.32 0 0 0 0.5 
258 1 1 2.53575 3.02686 9.95535 -28 0 0 -171.856 -10.7357 -7.75812 373.944 448.664 1051.81 0 0 0 0.5 
139 1 1 3.81996 3.37474 8.37287 -12 0 0 -150.416 2.97701 10.7589 2836.69 -1996.26 788.325 0 0 0 0.5 
573 2 2 3.66651 0.458185 8.06676 -20 0 0 -442.841 6.62319 10.0635 912.361 -1309.24 477.368 0 0 0 0.5 
232 1 1 4.72096 2.30869 9.09846 -16 0 0 -234.018 22.3589 40.0323 724.484 936.877 1213.09 0 0 0 0.5 
23 1 1 2.72005 1.39563 8.08734 -28 0 0 -345.22 0.946262 33.1547 640.717 -209.692 -1707.64 0 0 0 0.5 
442 1 1 4.00313 4.84871 8.47652 4 0 -1 -36.13 -3.53574 -19.9203 -249.532 -348.13 -1097.46 0 0 0 0.5 
351 1 1 0.362599 3.35172 9.46019 -8 0 0 -150.199 1.11374 6.82564 1008.53 -459.639 175.306 0 0 0 0.5 
317 1 1 0.551883 4.35532 9.2806 -10 0 0 -28.4674 -22.9649 -15.844 -1424.71 -218.225 963.198 0 0 0 0.5 
775 2 2 3.36171 0.48562 9.78875 -46 0 -1 -430.554 3.9834 -8.45577 -1383.23 1057.81 -808.009 0 0 0 0.5 
845 2 2 3.17008 3.97987 8.5168 -15 0 0 -85.6209 -7.52588 3.73634 -2046.04 816.197 218.474 0 0 0 0.5 
581 2 2 4.47919 4.68095 9.24623 2 0 0 -65.3706 11.5496 1.27358 -217.553 823.024 -328.423 0 0 0 0.5 
763 2 2 0.675642 5.32956 1.86929 5 0 1 39.9074 -5.73245 15.2926 -930.735 -16.7131 -1218.33 0 0 0 0.5 
36 1 1 3.87096 9.95685 0.134128 -47 -1 0 529.43 -6.07742 11.1551 1280.34 -1238.51 553.661 0 0 0 0.5 
273 1 1 1.5423 9.72775 1.60038 -48 -1 1 470.09 1.79529 -10.8346 -437.497 1284.86 -770.945 0 0 0 0.5 
723 2 2 1.72919 9.32505 0.856704 23 0 0 426.564 -5.85368 -33.2877 -2375.98 626.997 -67.1281 0 0 0 0.5 
665 2 2 2.62307 6.54594 1.18856 7 0 1 162.603 -22.0238 -25.6004 -126.048 1124.07 -92.899 0 0 0 0.5 
330 1 1 0.131671 6.47116 1.21494 14 0 0 122.818 30.5665 -21.1023 -1735.4 -855.192 2104.92 0 0 0 0.5 
838 2 2 4.30394 5.86542 0.713213 -1 0 1 96.4589 -10.5344 2.6586 -405.475 -274.741 -560.332 0 0 0 0.5 
642 2 2 2.2449 9.07488 0.0775428 -64 -1 1 446.468 -16.0297 -10.8067 -52.3071 462.643 -730.707 0 0 0 0.5 
812 2 2 0.303395 8.84073 0.518369 21 0 1 357.821 5.76163 -8.49153 126.882 800.426 438.357 0 0 0 0.5 
378 1 1 1.92923 9.98364 0.11126 -35 -1 1 475.346 15.4255 -17.5045 222.473 -640.462 -23.7629 0 0 0 0.5 
528 2 2 1.67832 7.51322 0.131223 7 0 0 210.892 41.0556 2.70489 -7.37009 2316.33 1825.83 0 0 0 0.5 
791 2 2 3.36225 7.99361 0.491735 15 0 0 302.914 -7.15182 6.41129 839.302 -635.002 2264.83 0 0 0 0.5 
162 1 1 4.1614 7.37389 1.41746 30 0 0 253.069 -6.78741 13.5612 646.765 121.856 -1449.3 0 0 0 0.5 
606 2 2 0.392507 9.75496 1.97174 -33 -1 0 483.274 -6.20148 -13.1371 459.273 -575.496 2374.09 0 0 0 0.5 
976 2 2 2.68022 7.40143 1.45847 28 0 0 257.835 4.61376 0.877404 2277.38 -2337.86 681.092 0 0 0 0.5 
906 2 2 0.22963 7.27527 0.692345 17 0 0 270.748 -35.7899 7.00601 1023.05 1674.92 -1742.11 0 0 0 0.5 
20 1 1 2.55444 9.03669 0.857093 -79 -1 0 405.86 -3.88246 28.1555 87.3492 -309.801 340.546 0 0 0 0.5 
414 1 1 2.77834 8.19491 0.0183276 36 0 0 371.634 -9.19578 -15.1853 -3218.92 1109.7 -2609.72 0 0 0 0.5 
362 1 1 3.26854 6.66331 1.79176 -11 0 0 123.046 19.6494 10.2316 -1362.96 803.353 -116.332 0 0 0 0.5 
605 2 2 4.6485 6.24117 1.55394 7 0 0 108.608 -7.5267 -13.0127 -646.441 9.29588 -269.325 0 0 0 0.5 
980 2 2 4.3242 8.96989 1.96839 43 0 1 349.332 30.4087 -8.98356 123.635 466.019 -10.5425 0 0 0 0.5 
244 1 1 4.79129 6.68441 0.293457 -109 -1 0 205.454 -8.97988 16.2476 -1671.15 935.599 761.055 0 0 0 0.5 
337 1 1 4.16557 8.99341 0.559799 55 0 0 412.299 5.03476 4.142 660.322 38.691 -226.275 0 0 0 0.5 
542 2 2 0.78245 8.73023 1.93356 -83 -1 1 387.118 -10.4384 -4.97934 0 0 0 0 0 0 0.5 
798 2 2 0.437339 9.68571 0.981125 -51 -1 0 424.809 16.5357 -0.555208 3570.8 -3225.3 -3280.23 0 0 0 0.5 
525 2 2 2.11049 7.72337 1.21537 -49 -1 0 260.135 -5.38065 -27.3738 -2334.24 1123.2 -1064.72 0 0 0 0.5 
144 1 1 4.02367 5.1357 1.46994 -9 0 0 15.6768 -3.46335 -6.17089 1498.21 -2365.42 401.24 0 0 0 0.5 
699 2 2 1.36278 6.95368 1.38946 15 0 0 197.733 5.90372 15.5463 -536.558 -251.684 1058.28 0 0 0 0.5 
625 2 2 1.23821 5.39282 0.998467 6 0 0 44.4163 3.0928 -1.7236 3311.33 -2472.25 1327.73 0 0 0 0.5 
622 2 2 1.7829 6.66175 0.700392 5 0 0 179.947 6.57213 -12.3979 -1503.06 994.11 2145.76 0 0 0 0.5 
574 2 2 2.22143 5.15036 0.765066 -4 0 1 10.5107 -3.76797 11.3997 353.226 -1410.86 645.623 0 0 0 0.5 
328 1 1 3.65077 5.96177 1.29274 0 0 0 98.4797 -4.51938 9.261 -1943.84 1296.08 822.79 0 0 0 0.5 
103 1 1 2.34393 5.12805 1.75314 -1 0 0 3.94653 -5.19024 7.51525 747.617 1035.6 515.636 0 0 0 0.5 
172 1 1 2.06814 8.51589 1.46697 -58 -1 0 322.603 21.2865 -8.28613 -356.206 1501.06 -150.575 0 0 0 0.5 
82 1 1 0.599975 5.83734 1.17407 12 0 0 75.3951 0.421663 -2.9922 -1266.13 393.974 -222.787 0 0 0 0.5 
210 1 1 2.43425 9.7593 1.71138 46 0 0 469.875 23.5754 -29.9398 1014 131.047 -574.173 0 0 0 0.5 
632 2 2 0.890193 5.92896 0.305951 15 0 0 135.681 -17.8099 -9.74755 -3109.01 5099.97 -303.531 0 0 0 0.5 
166 1 1 1.29789 5.07465 0.0989389 6 0 0 16.7324 10.2142 -4.27096 2724.91 -4059.74 -1346.57 0 0 0 0.5 
599 2 2 3.19382 5.13513 0.94044 3 0 0 15.2913 -6.84352 5.23393 -429.51 -554.095 125.912 0 0 0 0.5 
981 2 2 2.60039 5.93261 1.91232 23 0 0 129.545 4.57837 -9.34161 -3292.99 1390.35 -1057.92 0 0 0 0.5 
390 1 1 3.76956 8.54794 1.38941 14 0 0 372.446 -23.6286 -6.68447 1493.58 -1632.88 806.695 0 0 0 0.5 
350 1 1 4.15739 7.83499 0.606976 16 0 1 294.276 7.35797 -2.43282 -783.654 502.012 -581.336 0 0 0 0.5 
426 1 1 1.92186 5.92936 0.314774 27 0 0 101.292 -4.77702 -9.43258 -183.417 -344.187 -1591.28 0 0 0 0.5 
631 2 2 3.13411 5.91474 0.389759 9 0 0 96.1731 -2.414 10.6606 -137.315 1099.24 548.01 0 0 0 0.5 
423 1 1 3.12786 8.9892 1.82126 -51 -1 0 391.634 7.26852 2.94711 2996.87 -248.582 -1210.01 0 0 0 0.5 
165 1 1 3.35981 6.67055 0.795283 35 0 0 189.309 25.9569 -2.38608 -64.5727 -210.275 -1178.11 0 0 0 0.5 
104 1 1 3.23792 5.34043 1.93408 -3 0 1 25.1728 4.17064 -3.82108 4145.39 -3311.65 -1408.05 0 0 0 0.5 
252 1 1 3.31202 8.94485 0.837948 62 0 1 403.898 5.97299 -1.77787 610.53 712.221 -1307.36 0 0 0 0.5 
978 2 2 3.59089 5.78842 2.88691 13 0 0 84.6316 2.45161 -6.50267 -477.2 -1380.61 310.065 0 0 0 0.5 
692 2 2 3.46535 8.81725 3.10023 43 0 0 353.988 3.46711 22.8293 -71.479 -1871.21 -395.657 0 0 0 0.5 
54 1 1 3.96107 6.40487 2.11672 2 0 1 118.833 6.32162 -5.90396 588.211 -17.0329 188.372 0 0 0 0.5 
433 1 1 0.789824 8.42265 3.90982 43 0 -1 342.56 -2.44278 -8.84294 180.851 -398.866 -734.705 0 0 0 0.5 
686 2 2 2.7354 6.25882 3.14983 16 0 0 130.455 -2.64538 25.2894 229.936 146.321 -206.171 0 0 0 0.5 
456 1 1 1.5498 5.00355 3.37402 -2 0 0 18.8604 6.99631 -4.32872 545.474 -477.163 811.916 0 0 0 0.5 
133 1 1 1.33943 9.21485 3.09254 39 0 1 446.316 -19.5639 34.3254 84.5297 -440.064 215.936 0 0 0 0.5 
160 1 1 2.49323 8.16089 2.12448 32 0 0 264.837 19.7743 21.9932 351.642 -1606.36 973.506 0 0 0 0.5 
208 1 1 1.42013 5.04362 2.26679 4 0 0 11.9848 19.2364 -0.145041 2858.74 -2020.92 639.97 0 0 0 0.5 