# vtk DataFile Version 4.2
Generated by LIGGGHTS
ASCII
DATASET POLYDATA
POINTS 1000 float
1.74216 0.658456 0.874411 2.40628 1.46625 0.893024 0.357379 2.55179 0.460142 
2.73193 1.11709 1.76497 -0.00574409 1.85232 1.97486 3.54048 2.21762 1.89526 
2.15613 4.28396 1.35202 1.36235 2.6048 1.93338 0.874748 0.482591 0.36051 
1.08946 3.03252 0.973873 3.28484 0.319611 0.129141 0.674165 1.16576 0.288213 
1.67572 2.27523 1.08547 2.04169 3.21982 0.304255 2.21167 4.20985 0.210375 
0.774448 1.1893 1.36571 0.0611869 1.73356 0.949508 3.2314 2.79073 0.763506 
3.03194 3.44611 0.0818362 4.54888 4.25159 0.390562 0.461606 2.90264 1.73355 
0.473745 0.123477 1.58456 4.04032 1.49828 1.86931 4.21658 0.118569 1.4223 
0.698271 3.80772 1.14674 4.59207 2.51578 1.21926 4.33885 1.5551 1.10519 
3.81425 0.619552 0.89719 3.43814 4.59145 1.53969 4.12476 3.15635 0.706058 
2.64028 3.87876 0.803517 1.45184 4.76906 1.5193 2.69778 2.18424 1.46286 
3.51331 4.93193 0.609893 2.79206 3.35003 1.46093 1.0235 3.96913 0.283426 
3.37975 1.58859 1.03549 3.18313 0.6306 1.54983 1.09377 4.92362 0.0402106 
2.97696 2.01168 0.0413263 2.77212 0.664328 0.744718 4.85159 2.02621 0.508331 
4.8915 0.994319 1.2622 4.8511 4.2153 1.55973 4.93422 0.182326 1.88103 
4.91186 3.32016 1.73549 2.30013 2.11454 2.78073 4.43626 2.57181 2.11332 
0.548445 1.30533 3.08066 0.304579 0.93999 2.16257 3.61838 2.4865 3.85987 
1.54008 0.843831 2.35076 1.8314 0.16006 2.04327 1.1773 1.79576 3.81738 
1.79955 2.50937 3.55566 1.96452 3.00413 2.81394 0.855238 2.82171 2.63609 
2.36928 4.11618 2.77198 2.27598 2.78162 2.06789 0.394339 0.514687 3.90068 
1.98976 1.01694 3.1591 1.72354 1.66271 2.3321 0.825506 0.383082 3.09692 
0.316969 2.86096 3.45407 4.40021 3.82834 3.67071 1.69938 4.42278 3.28539 
2.5529 4.85523 2.13943 3.47675 0.856715 2.49126 0.943933 4.67816 2.52866 
4.58603 1.90088 2.76237 3.59535 3.36653 3.86317 0.625216 3.7209 3.01939 
3.09543 1.76754 2.85562 4.62825 3.16564 3.67131 2.86266 3.68963 3.45937 
0.615672 4.60178 3.45837 2.84268 0.00837281 2.82281 4.70735 1.15732 3.70066 
4.32167 0.842816 2.38237 3.23261 0.492551 3.44252 4.11993 3.36138 2.17399 
3.41871 2.98433 2.99585 3.88839 1.80101 2.70414 2.84242 3.88002 2.22307 
3.86624 4.49432 2.94553 1.86659 3.63946 2.05621 4.84509 2.92458 3.04942 
3.34689 1.44451 3.84132 4.13592 2.13594 3.5548 3.96335 1.18245 3.40003 
4.06334 0.243627 3.38193 4.42641 0.163215 2.68363 4.31562 4.7289 2.0778 
0.252605 4.01187 2.02298 4.55193 4.03125 2.78459 4.942 2.20075 3.56044 
4.24301 3.6666 5.38718 3.25104 4.99448 4.66851 2.17869 3.78489 4.06792 
0.464039 1.07038 5.38266 0.124 2.20278 5.8376 2.04902 2.23895 5.39165 
1.18812 1.57515 5.53076 0.613421 0.2889 5.0845 1.75376 3.52243 5.4384 
2.30118 2.95446 4.25965 0.53286 1.29215 4.36117 3.7502 2.97469 4.78441 
1.23685 3.41608 4.6184 4.31185 1.47267 4.33885 2.09641 0.567353 4.79095 
1.85833 2.07716 4.36478 0.319564 1.81558 5.01122 1.39171 1.18138 4.80895 
4.66918 3.29735 4.64631 1.74384 1.11003 4.03093 1.13589 0.0276154 4.32018 
2.68382 1.44805 5.77124 4.45661 4.78133 4.05654 2.63411 3.12129 5.01527 
0.715846 2.53929 4.54766 4.56467 4.13686 4.43815 2.07956 4.63727 4.28498 
4.02509 1.64057 5.83849 4.63269 2.62371 5.32951 0.872954 3.73689 5.70702 
0.271699 4.7932 4.33429 4.38377 1.07496 5.2641 3.87089 0.178113 4.42781 
2.87068 2.40742 5.76131 3.46173 3.96563 4.43625 2.82246 4.3018 5.31013 
2.90668 3.27422 5.93013 3.79965 4.4431 5.19491 2.72654 0.720987 4.1094 
3.78625 2.08195 5.02272 4.51185 2.36462 4.41933 3.77174 2.63757 5.79332 
4.68463 0.281955 4.54944 1.22509 4.70171 4.04862 3.65991 1.30477 4.75998 
1.54329 4.65167 5.332 0.682012 4.12599 4.80389 3.1996 0.47011 4.88731 
0.948038 0.112057 7.98874 3.16016 2.81568 7.50549 2.53934 4.28575 6.29139 
4.19827 4.65642 7.0518 0.556761 2.16429 7.70728 0.0402368 0.271631 7.96052 
2.53553 0.354539 6.20173 1.96491 0.814266 7.35091 1.02241 1.71372 6.43185 
0.587533 0.0615837 6.71557 0.229293 1.62453 6.15742 2.40853 2.32413 6.61355 
0.25584 2.30228 6.76861 2.0122 3.73213 7.13565 0.0965683 0.83483 6.24324 
0.656919 0.7165 7.38573 1.53086 1.74766 7.98641 2.03513 3.00387 6.19424 
3.82543 0.193294 7.12711 1.49771 1.01164 6.25764 4.00944 2.60153 7.37563 
4.65628 4.54884 6.00244 1.22323 3.33896 6.51656 1.40089 1.36972 7.13739 
1.91489 0.498179 6.42285 2.25421 2.88716 7.38739 2.54869 1.74572 7.138 
2.66242 4.62368 7.2141 0.262702 1.51825 7.09141 1.26727 3.55355 7.96221 
0.727045 3.03941 7.39076 2.89771 3.66753 6.77311 4.85915 3.86544 7.87905 
0.676384 4.62194 6.88791 3.97878 2.17068 6.57587 3.91467 3.85068 7.88889 
3.12299 1.68482 7.8489 4.60606 0.640277 6.08383 3.29979 1.24341 6.4784 
0.505566 4.06157 7.86799 0.278021 3.14274 6.61095 4.4603 3.08147 6.62397 
4.32923 3.80891 7.11414 3.47396 0.642074 7.76021 1.3952 4.32306 7.45881 
0.0885706 3.90072 6.50788 3.04267 4.11043 7.75565 4.00728 3.75256 6.31067 
3.42083 4.32628 6.08355 1.50318 4.46403 6.31851 3.16099 0.0729279 6.55155 
4.96465 2.05004 6.85355 3.21462 2.90722 8.44638 1.96483 0.211947 8.94812 
0.17541 2.37959 9.37712 0.960969 2.85044 8.78122 0.0688359 1.02256 9.52505 
2.54054 3.724 9.44605 2.07611 4.12448 8.93217 2.44919 1.63921 8.58821 
1.36195 2.56447 8.10384 3.56188 4.50208 9.32181 4.66172 2.92626 9.96162 
1.96365 3.32539 8.4797 1.3077 3.34066 9.66738 3.43069 3.83574 8.62669 
0.805228 1.82117 8.63021 1.44569 0.214838 9.84715 0.717968 1.95052 9.89989 
1.85009 2.70944 9.4426 0.872694 0.972833 9.03476 2.00675 0.37952 8.12674 
4.49792 2.31069 8.05803 2.25689 1.13111 9.45334 0.42655 0.0495346 8.83013 
2.36017 0.271317 9.68558 0.241927 3.39179 8.53348 4.63274 3.11441 8.52724 
3.83395 0.911942 9.48358 4.47262 2.04965 9.84041 3.00144 1.16249 9.91953 
4.2746 4.75145 8.18479 1.97335 4.87361 9.80281 4.01504 3.12437 9.5144 
2.97993 1.01374 8.3771 3.83525 2.35942 8.95657 2.95773 4.99073 9.79781 
3.9941 1.48646 8.84779 4.13251 0.54875 8.52092 3.23769 4.78271 8.46747 
0.175222 3.68054 9.8162 2.93206 0.246078 8.81477 1.71241 4.67236 8.34789 
0.152195 4.29492 9.04669 1.12753 4.02694 9.13663 4.35806 3.78693 8.81108 
4.5528 4.50817 9.42091 4.89284 1.92682 8.99506 3.44048 9.48745 0.739 
2.56725 5.90123 1.45944 0.746204 8.86254 0.653277 1.89173 9.45668 1.0388 
2.65672 7.83583 1.96628 0.991078 7.59428 0.546218 1.60526 9.54152 0.14744 
4.76451 9.40299 1.36825 4.06699 8.79706 0.909387 3.26925 8.09316 0.332373 
0.809528 6.67345 0.398366 3.86699 9.3361 1.79732 3.16345 9.99536 1.70029 
0.679225 9.48263 1.56355 0.133561 8.41862 0.00854572 2.72958 9.72857 1.01779 
-0.0504236 8.95219 1.60589 1.33181 9.87617 0.738937 0.905852 7.54791 1.64465 
2.524 6.95154 0.539538 4.19345 8.49403 1.96105 2.80789 6.05588 0.587863 
2.69273 9.36599 0.200061 3.96538 7.44075 1.44951 1.69461 6.59328 0.0539032 
0.281271 7.56335 1.59682 4.60713 6.72252 0.383762 0.438285 9.68493 0.734919 
0.55118 9.32075 0.000125615 3.84651 5.89234 0.933917 4.8291 8.60831 0.260643 
0.509825 5.15252 0.769407 0.571628 6.26217 1.26266 2.9977 9.08047 1.48355 
1.55887 8.25474 1.24136 1.43025 6.06257 0.832566 0.214737 7.82425 0.721816 
2.12934 5.00631 0.780402 1.28709 6.92239 1.67584 0.961509 8.67677 1.47297 
1.86887 6.4185 1.63511 4.30371 7.5887 0.530504 4.39598 5.49746 1.4802 
4.48741 5.13986 0.735718 2.35922 5.44607 3.47365 2.1448 9.24155 3.41492 
2.3364 9.93089 2.09075 0.322197 8.27904 2.16089 4.22608 8.9564 3.23056 
4.05534 7.35455 3.98179 0.54166 8.67309 3.07083 2.63293 6.99776 2.30655 
3.08076 5.1138 3.75553 1.06714 9.21339 2.08272 0.285346 8.29185 3.89515 
2.76225 8.0776 3.10001 3.22468 6.33443 2.47159 4.71535 9.75386 3.24767 
3.07328 6.45441 3.33838 3.25523 9.72489 2.30394 2.93342 7.28439 3.52573 
3.92605 6.5265 3.38694 3.29353 9.64286 3.76493 3.40673 8.64978 3.83467 
3.81342 5.54766 2.15252 2.75645 8.67549 2.39136 4.62492 5.05472 3.01527 
3.71768 7.80501 2.46423 1.68031 9.77063 2.99566 0.267651 9.16111 2.46979 
1.86001 8.29492 3.25624 1.78129 6.93801 3.55788 2.31268 5.84686 2.58151 
1.51701 5.69154 3.63078 0.505186 5.54031 2.49087 1.75177 8.30495 2.21935 
4.53053 8.28772 3.93758 3.86269 5.45562 3.07861 0.0484915 6.42122 2.4249 
2.32365 7.71293 3.7928 0.378485 7.27396 2.44768 0.318947 5.44119 3.41921 
1.28476 8.22351 3.97883 1.90463 7.48435 2.69115 2.18357 9.18472 2.27509 
1.02921 6.43255 2.47998 3.73223 8.05953 3.38023 0.959781 7.87783 3.02348 
1.95143 6.54563 2.8422 3.02118 5.35185 2.83291 4.51914 5.59339 3.70013 
2.77871 9.04639 3.13728 4.7195 5.73566 2.39036 4.85484 7.4302 2.58617 
4.90414 9.37742 2.47899 4.24918 5.34976 4.79179 0.449154 9.06839 5.131 
4.29792 9.29209 4.20919 3.06451 8.04994 5.37525 3.78747 5.42229 4.01864 
3.01615 6.64428 4.28169 4.45275 7.93317 5.78699 2.53263 7.2612 4.4522 
2.7258 9.6868 5.3687 3.73337 8.5405 5.85174 2.96842 5.81707 4.38335 
3.59317 7.94974 4.37036 4.35516 9.42057 5.20171 0.159703 9.59693 5.94167 
2.95963 8.50715 4.62208 2.62865 8.78967 5.54705 3.18062 7.28392 5.04242 
1.34383 6.63707 4.33673 3.89368 7.39311 5.28916 -0.0324911 8.00346 5.19743 
1.99961 5.88024 5.15265 4.43111 6.44248 5.2549 2.7629 6.4295 5.33897 
1.25557 5.62682 4.58214 2.20202 7.78586 5.31085 0.388297 6.77175 4.44032 
0.560917 6.85367 5.56294 3.58271 6.47363 4.88217 1.05945 7.89724 5.71948 
1.37591 6.53262 5.21398 0.126661 5.67689 4.30778 1.21547 9.05321 5.63707 
2.37078 5.13657 5.04083 0.883655 7.72535 4.77077 2.0643 5.3311 5.96318 
1.27934 8.75046 4.74675 2.1787 8.68031 4.88548 2.05693 7.98913 4.3845 
0.328726 5.28566 5.15828 2.50888 9.08054 4.1204 3.98813 8.42933 4.84302 
2.1648 6.89218 5.59015 3.42646 5.47663 5.50788 3.45469 9.79304 5.72431 
3.51141 9.35212 4.84573 4.79149 7.03018 4.15453 1.06914 5.89917 7.01317 
4.16029 9.93648 7.84807 4.63526 7.9678 7.102 2.18941 8.32161 6.9611 
3.03188 5.38226 7.83693 3.87327 9.00111 7.3552 4.10857 6.28299 7.29528 
0.913306 9.32627 7.72669 1.85093 9.94255 7.08403 3.65648 5.87851 6.52815 
1.20899 9.89072 7.00858 0.0274861 5.09174 7.38323 1.03846 5.04803 7.75497 
0.888714 9.0606 6.59838 2.83587 5.27634 6.33219 1.8724 9.15612 6.6331 
2.53043 9.06886 7.51604 3.03567 8.32331 7.00141 3.51196 5.05731 7.22812 
[...]
POINT_DATA 1000
FIELD FieldData 7
id 1 1000 int
212 431 898 316 814 583 112 828 35 
380 591 776 636 587 359 434 15 903 
772 104 531 765 755 713 136 974 323 
17 54 641 144 555 647 590 371 928 
400 680 103 135 747 99 276 130 16 
932 240 487 298 785 973 172 203 423 
36 231 827 257 13 346 62 697 751 
505 914 370 530 784 328 382 411 94 
21 256 867 678 761 764 425 193 659 
579 25 756 919 275 369 67 513 204 
289 463 208 430 138 644 918 521 616 
771 839 260 418 722 69 511 741 956 
409 280 454 869 304 606 668 629 262 
509 405 714 187 358 457 716 941 725 
522 127 813 743 149 50 47 737 497 
510 767 924 283 689 313 451 816 282 
226 318 152 65 190 526 603 762 259 
272 241 573 265 408 222 384 533 148 
790 635 662 348 565 995 549 935 908 
846 329 619 802 608 97 116 584 161 
754 234 38 822 876 613 783 640 237 
225 966 679 146 168 195 766 637 642 
258 819 360 779 835 921 727 363 96 
845 677 442 758 633 760 233 376 562 
66 777 242 126 30 672 301 506 916 
860 264 596 795 871 896 888 809 861 
907 566 261 649 40 567 670 227 118 
866 22 84 162 115 536 165 614 252 
350 213 570 815 575 821 357 703 512 
812 160 78 694 394 44 292 983 798 
238 407 595 455 5 808 707 906 174 
620 552 541 631 426 690 881 925 421 
768 133 277 693 169 153 720 733 207 
401 90 879 988 337 58 981 805 210 
889 712 456 892 518 182 794 994 415 
465 885 729 290 435 404 940 75 420 
68 709 167 917 37 184 993 773 978 
297 936 114 462 546 4 615 669 945 
192 728 244 437 830 942 471 377 958 
684 189 466 131 701 976 178 450 349 
746 412 156 334 268 325 472 98 724 
154 202 338 692 715 179 449 307 884 
59 939 246 848 934 49 402 76 561 
504 954 558 32 492 51 107 838 927 
732 2 687 173 132 681 823 843 987 
686 215 211 436 499 855 287 664 782 
837 381 295 744 711 997 652 831 992 
557 29 651 356 695 53 752 671 398 
551 403 281 41 793 327 989 321 294 
998 622 269 825 739 589 248 977 176 
181 979 986 239 626 468 963 829 63 
604 757 438 625 397 315 344 663 874 
483 219 638 947 706 970 478 735 844 
923 797 87 475 639 77 632 817 807 
302 125 623 249 61 378 899 413 388 
319 650 538 787 585 872 196 224 362 
598 392 984 342 865 774 71 86 389 
759 279 139 574 851 485 882 731 770 
157 849 674 800 83 920 704 201 488 
708 826 517 895 943 490 627 519 151 
789 803 20 273 145 12 147 667 364 
429 271 543 718 886 873 106 705 905 
523 39 548 18 95 101 228 854 559 
159 416 806 999 361 100 428 6 142 
171 586 675 933 427 683 901 266 383 
910 962 658 291 274 968 461 236 611 
332 900 503 406 862 944 654 514 646 
730 539 734 786 19 502 117 937 251 
439 858 930 600 527 216 804 653 913 
750 868 340 33 366 396 529 507 250 
245 948 129 374 23 717 580 448 123 
852 643 399 7 343 498 206 9 243 
594 446 572 372 247 379 863 661 43 
568 235 354 198 34 612 929 232 351 
554 460 52 263 220 516 564 352 80 
951 569 255 79 459 656 223 312 185 
284 314 563 229 890 217 524 911 597 
480 1000 134 775 42 293 738 10 56 
618 110 525 495 609 740 310 308 120 
60 840 11 119 544 393 270 27 467 
347 108 982 832 820 89 811 335 373 
588 592 864 306 842 339 317 571 500 
299 847 368 859 205 390 545 950 85 
26 610 969 949 367 897 891 721 726 
254 305 699 515 853 285 593 582 833 
957 990 158 753 422 73 175 489 599 
542 763 791 419 386 736 452 532 769 
92 414 535 102 578 91 491 605 473 
883 391 163 576 341 137 617 915 980 
904 121 655 696 470 781 676 214 880 
528 166 453 602 553 836 556 410 493 
698 788 441 810 975 878 3 534 199 
887 682 385 55 691 960 496 796 723 
799 961 186 991 494 309 719 122 8 
286 333 856 955 72 464 432 458 909 
180 971 648 45 469 780 959 792 209 
218 194 200 417 197 841 170 57 440 
443 164 424 710 365 938 601 300 922 
952 481 926 28 520 893 902 221 875 
324 105 322 550 48 778 253 953 742 
355 303 140 477 946 801 1 14 673 
474 985 577 877 124 700 476 824 479 
894 850 320 24 353 912 395 155 326 
445 345 972 931 296 111 31 177 188 
70 444 74 143 331 818 870 657 547 
447 433 666 93 834 484 278 628 230 
267 749 46 630 128 607 964 141 64 
82 375 537 745 109 311 967 387 486 
113 336 857 81 624 150 634 560 688 
540 88 660 482 965 702 508 330 621 
665 581 685 288 501 748 183 996 645 
191 
type 1 1000 int
1 1 2 1 2 2 1 2 1 
1 2 2 2 2 1 1 1 2 
2 1 2 2 2 2 1 2 1 
1 1 2 1 2 2 2 1 2 
1 2 1 1 2 1 1 1 1 
2 1 1 1 2 2 1 1 1 
1 1 2 1 1 1 1 2 2 
2 2 1 2 2 1 1 1 1 
1 1 2 2 2 2 1 1 2 
2 1 2 2 1 1 1 2 1 
1 1 1 1 1 2 2 2 2 
2 2 1 1 2 1 2 2 2 
1 1 1 2 1 2 2 2 1 
2 1 2 1 1 1 2 2 2 
2 1 2 2 1 1 1 2 1 
2 2 2 1 2 1 1 2 1 
1 1 1 1 1 2 2 2 1 
1 1 2 1 1 1 1 2 1 
2 2 2 1 2 2 2 2 2 
2 1 2 2 2 1 1 2 1 
2 1 1 2 2 2 2 2 1 
1 2 2 1 1 1 2 2 2 
1 2 1 2 2 2 2 1 1 
2 2 1 2 2 2 1 1 2 
1 2 1 1 1 2 1 2 2 
2 1 2 2 2 2 2 2 2 
2 2 1 2 1 2 2 1 1 
2 1 1 1 1 2 1 2 1 
1 1 2 2 2 2 1 2 2 
2 1 1 2 1 1 1 2 2 
1 1 2 1 1 2 2 2 1 
2 2 2 2 1 2 2 2 1 
2 1 1 2 1 1 2 2 1 
1 1 2 2 1 1 2 2 1 
2 2 1 2 2 1 2 2 1 
1 2 2 1 1 1 2 1 1 
1 2 1 2 1 1 2 2 2 
1 2 1 1 2 1 2 2 2 
1 2 1 1 2 2 1 1 2 
2 1 1 1 2 2 1 1 1 
2 1 1 1 1 1 1 1 2 
1 1 1 2 2 1 1 1 2 
1 2 1 2 2 1 1 1 2 
2 2 2 1 1 1 1 2 2 
2 1 2 1 1 2 2 2 2 
2 1 1 1 1 2 1 2 2 
2 1 1 2 2 2 2 2 2 
2 1 2 1 2 1 2 2 1 
2 1 1 1 2 1 2 1 1 
2 2 1 2 2 2 1 2 1 
1 2 2 1 2 1 2 2 1 
2 2 1 2 1 1 1 2 2 
1 1 2 2 2 2 1 2 2 
2 2 1 1 2 1 2 2 2 
1 1 2 1 1 1 2 1 1 
1 2 2 2 2 2 1 1 1 
2 1 2 1 2 2 1 1 1 
2 1 1 2 2 1 2 2 2 
1 2 2 2 1 2 2 1 1 
2 2 2 2 2 1 2 2 1 
2 2 1 1 1 1 1 2 1 
1 1 2 2 2 2 1 2 2 
2 1 2 1 1 1 1 2 2 
1 1 2 2 1 1 1 1 1 
1 2 2 2 1 2 2 1 1 
2 2 2 1 1 2 1 1 2 
1 2 2 1 2 2 2 2 2 
2 2 2 2 1 2 1 2 1 
1 2 2 2 2 1 2 2 2 
2 2 1 1 1 1 2 2 1 
1 2 1 1 1 2 2 1 1 
2 2 1 1 1 1 1 1 1 
2 1 2 1 1 1 2 2 1 
2 1 1 1 1 2 2 1 1 
2 1 1 1 1 2 2 1 1 
2 2 1 1 1 2 1 1 1 
1 1 2 1 2 1 2 2 2 
1 2 1 2 1 1 2 1 1 
2 1 2 1 2 2 1 1 1 
1 2 1 1 2 1 1 1 1 
1 1 2 2 2 1 2 1 1 
2 2 2 1 2 1 1 2 1 
1 2 1 2 1 1 2 2 1 
1 2 2 2 1 2 2 2 2 
1 1 2 2 2 1 2 2 2 
2 2 1 2 1 1 1 1 2 
2 2 2 1 1 2 1 2 2 
1 1 2 1 2 1 1 2 1 
2 1 1 2 1 1 2 2 2 
2 1 2 2 1 2 2 1 2 
2 1 1 2 2 2 2 1 1 
2 2 1 2 2 2 1 2 1 
2 2 1 1 2 2 1 2 2 
2 2 1 2 1 1 2 1 1 
1 1 2 2 1 1 1 1 2 
1 2 2 1 1 2 2 2 1 
1 1 1 1 1 2 1 1 1 
1 1 1 2 1 2 2 1 2 
2 1 2 1 2 2 2 1 2 
1 1 1 2 1 2 1 2 2 
1 1 1 1 2 2 1 1 2 
1 2 2 2 1 2 1 2 1 
2 2 1 1 1 2 1 1 1 
1 1 2 2 1 1 1 1 1 
1 1 1 1 1 2 2 2 2 
1 1 2 1 2 1 1 2 1 
1 2 1 2 1 2 2 1 1 
1 1 2 2 1 1 2 1 1 
1 1 2 1 2 1 2 2 2 
2 1 2 1 2 2 2 1 2 
2 2 2 1 2 2 1 2 2 
1 
i 3 1000 int
53 1 0 -15 0 0 -9 0 0 
-31 0 0 -23 0 1 -14 0 1 
0 0 0 -13 0 1 -26 0 1 
-10 0 1 -31 0 1 -19 0 1 
-20 0 1 -11 0 1 -5 0 0 
-15 0 0 -18 0 1 -3 0 0 
-9 0 1 -3 0 1 -14 0 0 
34 1 0 -20 0 0 -40 0 1 
-14 0 0 85 1 1 -14 0 0 
-23 0 1 1 0 1 -6 0 0 
-8 0 0 -6 0 0 -14 0 0 
4 0 0 -6 0 0 -4 0 0 
-12 0 0 -16 0 0 -1 0 0 
-9 0 0 -46 0 1 -4 0 0 
-25 0 1 -6 0 0 -28 0 0 
-2 0 0 -30 0 0 -30 0 0 
-32 0 0 56 1 0 -7 0 0 
-35 0 0 -22 0 0 -30 0 0 
-31 0 0 -18 0 1 -6 0 0 
-5 0 0 -23 0 0 33 1 0 
-10 0 0 -9 0 0 34 1 0 
-13 0 0 -3 0 0 -1 0 0 
-6 0 1 -24 0 1 -2 0 0 
-17 0 0 -11 0 0 -11 0 0 
-40 0 0 -10 0 0 -21 0 0 
-3 0 0 -25 0 0 -25 0 1 
-20 0 0 27 1 0 -4 0 0 
-4 0 0 -28 0 0 -7 0 1 
1 0 0 -5 0 0 -8 0 0 
48 1 0 -13 0 0 -47 0 0 
-47 0 -1 34 1 1 4 0 0 
-5 0 0 -4 0 1 65 1 0 
-4 0 0 3 0 0 0 0 0 
-19 0 -1 -15 0 0 -40 0 0 
-10 0 0 -24 0 0 -14 0 0 
-8 0 -1 -47 0 0 -22 0 0 
74 1 0 -20 0 0 31 1 0 
-14 0 0 -11 0 0 -15 0 0 
-5 0 0 -23 0 0 -34 0 0 
-20 0 0 -7 0 0 68 1 0 
-20 0 0 -3 0 0 2 0 0 
-24 0 0 -7 0 0 -1 0 0 
-4 0 0 -10 0 0 52 1 0 
-12 0 0 -1 0 0 4 0 0 
-22 0 0 -4 0 0 37 1 0 
-8 0 0 -14 0 0 -10 0 0 
-35 0 0 -16 0 0 -20 0 0 
4 0 0 -4 0 0 32 1 -1 
-17 0 0 -7 0 0 -3 0 0 
1 0 0 -11 0 0 -20 0 0 
23 1 0 -32 0 -1 -20 0 -1 
-35 0 -1 54 1 0 -6 0 0 
-8 0 0 -4 0 0 66 1 0 
-15 0 0 56 1 -1 -6 0 0 
-19 0 0 -32 0 0 -3 0 0 
-4 0 0 -5 0 0 -20 0 0 
-48 0 0 -3 0 0 -14 0 0 
-3 0 0 -13 0 0 -2 0 0 
-3 0 0 -2 0 0 -2 0 0 
-2 0 0 -6 0 0 -2 0 0 
-13 0 0 -15 0 0 -25 0 0 
-3 0 0 -2 0 0 -3 0 0 
-10 0 0 -25 0 0 -6 0 0 
-9 0 0 3 0 0 -3 0 0 
-2 0 0 1 0 0 -19 0 0 
-7 0 0 -12 0 0 -40 0 0 
-20 0 0 -6 0 0 -24 0 0 
-1 0 -1 -3 0 0 -11 0 0 
-28 0 0 1 0 -1 -6 0 0 
-11 0 0 -3 0 0 5 0 -1 
-16 0 -1 -27 0 0 -10 0 0 
-10 0 0 -12 0 -1 22 1 0 
-5 0 0 -30 0 -1 -34 0 0 
24 1 -1 -1 0 0 -12 0 -1 
26 1 -1 -10 0 -1 -13 0 -1 
3 0 0 -1 0 -1 -15 0 0 
-30 0 -1 -5 0 -1 -1 0 -1 
59 1 0 31 1 -1 2 0 0 
-1 0 -1 42 1 0 -4 0 0 
-10 0 0 -3 0 0 0 0 0 
-3 0 0 -16 0 0 37 0 1 
2 0 0 14 0 0 33 0 1 
20 0 0 6 0 0 -44 -1 0 
20 0 0 11 0 1 47 0 1 
7 0 1 34 0 0 -24 -1 1 
15 0 0 45 0 0 38 0 0 
-30 -1 1 -34 -1 1 -2 0 0 
10 0 1 21 0 0 7 0 1 
-50 -1 1 6 0 0 7 0 0 
-56 -1 0 10 0 0 -27 -1 0 
-36 -1 1 10 0 0 15 0 1 
5 0 0 1 0 0 21 0 0 
-74 -1 0 12 0 0 19 0 0 
-2 0 0 17 0 0 15 0 0 
5 0 0 20 0 0 0 0 0 
1 0 0 0 0 0 24 0 0 
-22 -1 -1 23 0 1 -41 -1 1 
13 0 0 26 0 0 8 0 0 
2 0 0 52 0 0 34 0 1 
16 0 0 0 0 0 39 0 1 
18 0 0 35 0 0 19 0 0 
15 0 0 -26 -1 0 29 0 0 
0 0 0 20 0 0 -2 0 0 
15 0 0 -17 -1 0 18 0 0 
37 0 0 14 0 0 4 0 0 
5 0 0 2 0 0 37 0 1 
38 0 0 0 0 0 6 0 0 
9 0 0 9 0 1 9 0 0 
17 0 0 28 0 1 26 0 0 
7 0 0 -59 -1 0 16 0 0 
9 0 0 -6 0 0 9 0 0 
31 0 0 0 0 0 -58 -1 0 
44 0 0 -5 0 0 -44 -1 -1 
40 0 0 -62 -1 0 10 0 0 
9 0 0 8 0 0 -72 -1 0 
-28 -1 0 24 0 -1 7 0 0 
13 0 0 -49 -1 1 32 0 0 
22 0 0 17 0 0 14 0 0 
13 0 0 5 0 0 16 0 0 
7 0 0 1 0 0 10 0 0 
1 0 0 -57 -1 0 18 0 0 
6 0 0 4 0 0 15 0 -1 
8 0 0 4 0 0 -45 -1 0 
2 0 0 26 0 0 8 0 0 
26 0 0 44 0 0 29 0 0 
-2 0 0 37 0 0 15 0 0 
8 0 0 1 0 0 59 0 0 
-33 -1 1 8 0 0 6 0 0 
-39 -1 0 12 0 0 18 0 0 
2 0 0 21 0 0 5 0 0 
54 0 -1 -48 -1 0 4 0 0 
-27 -1 0 -1 0 0 2 0 0 
-51 -1 1 2 0 0 15 0 0 
31 0 0 27 0 0 -2 0 0 
55 0 -1 4 0 0 13 0 0 
10 0 0 5 0 0 20 0 0 
6 0 0 5 0 0 -38 -1 0 
28 0 0 5 0 0 30 0 -1 
-37 -1 0 3 0 0 21 0 0 
18 0 0 18 0 0 5 0 0 
2 0 0 17 0 0 -36 -1 0 
16 0 0 14 0 0 13 0 -1 
6 0 0 13 0 0 4 0 0 
3 0 -1 3 0 0 10 0 0 
0 0 0 5 0 -1 13 0 -1 
-30 -1 -1 31 0 -1 2 0 0 
18 0 0 8 0 -1 17 0 0 
-46 -1 0 0 0 -1 -31 -1 0 
24 0 -1 3 0 0 13 0 0 
-54 -1 0 15 0 0 9 0 0 
6 0 0 13 0 0 19 0 0 
-41 -1 0 1 0 -1 8 0 0 
12 0 0 1 0 0 18 0 -1 
7 0 0 32 0 0 12 0 -1 
4 0 -1 8 0 -1 0 0 0 
0 0 0 14 0 0 14 0 -1 
14 0 -1 6 0 -1 -2 0 -1 
6 0 0 20 0 0 52 0 -1 
7 0 0 12 0 0 13 0 0 
8 0 -1 54 0 -1 4 0 0 
9 0 0 24 0 0 28 0 0 
8 0 -1 -3 0 0 -5 0 0 
28 1 1 -37 0 1 -7 0 1 
-22 0 1 -41 0 1 -17 0 1 
-22 0 0 -23 0 0 -26 0 1 
2 0 0 -5 0 0 44 1 0 
-20 0 1 -10 0 1 -3 0 0 
55 1 0 -32 0 1 -14 0 0 
-5 0 1 -10 0 0 27 1 1 
-6 0 1 -14 0 0 -12 0 1 
-1 0 1 -10 0 1 -11 0 0 
-10 0 0 80 1 0 -5 0 1 
-3 0 1 -20 0 1 -27 0 1 
-3 0 0 76 1 0 -17 0 0 
-3 0 0 -7 0 1 -2 0 0 
50 1 0 21 1 1 -29 0 1 
42 1 0 -22 0 0 -40 0 1 
-37 0 0 35 1 0 -13 0 0 
-37 0 0 -8 0 0 -29 0 0 
0 0 0 -8 0 0 -10 0 0 
-34 0 0 20 1 0 -56 0 0 
-32 0 1 28 1 0 -30 0 0 
-38 0 0 -34 0 0 -4 0 0 
-13 0 0 -38 0 0 -24 0 0 
-19 0 1 54 1 0 -9 0 0 
-9 0 0 3 0 0 -5 0 0 
-19 0 1 -26 0 0 -23 0 0 
-6 0 0 -3 0 0 -2 0 0 
-34 0 1 -7 0 0 -46 0 1 
32 1 0 -12 0 0 -34 0 0 
-9 0 0 -7 0 0 -3 0 0 
-7 0 0 -7 0 0 -17 0 0 
-3 0 0 28 1 0 -2 0 0 
-1 0 0 0 0 0 -2 0 0 
-18 0 0 -36 0 0 -5 0 0 
-15 0 0 0 0 0 -3 0 0 
-13 0 0 -25 0 -1 41 1 0 
39 1 0 -18 0 0 -2 0 0 
-22 0 0 -7 0 0 -14 0 0 
-15 0 0 -25 0 0 -18 0 0 
-31 0 1 -12 0 0 -7 0 0 
-38 0 0 -27 0 0 -11 0 0 
-27 0 1 -20 0 0 -22 0 0 
-14 0 0 -6 0 0 -4 0 0 
-4 0 0 -2 0 0 -9 0 0 
-1 0 1 0 0 0 -23 0 0 
-54 0 0 47 1 0 -1 0 0 
-23 0 0 -10 0 1 -5 0 0 
46 1 0 -4 0 0 -5 0 0 
-5 0 0 -17 0 0 -5 0 0 
-12 0 0 29 1 0 -26 0 0 
-2 0 0 -14 0 0 -24 0 0 
37 1 0 -1 0 0 -21 0 0 
-33 0 0 -19 0 0 -20 0 -1 
-4 0 0 -5 0 0 63 1 0 
-14 0 0 49 1 -1 -10 0 0 
-14 0 0 -8 0 0 -9 0 0 
-11 0 0 -31 0 0 -8 0 0 
-14 0 0 -6 0 -1 -9 0 0 
-7 0 0 -11 0 0 -5 0 0 
-1 0 0 45 1 0 5 0 0 
-2 0 0 -9 0 0 -4 0 0 
-11 0 0 2 0 0 60 1 0 
-8 0 0 46 1 0 -44 0 0 
-1 0 0 -6 0 0 -1 0 0 
-2 0 0 61 1 -1 -8 0 0 
-5 0 0 -1 0 0 -21 0 0 
-9 0 -1 0 0 0 0 0 0 
-45 0 0 -11 0 0 -3 0 0 
-12 0 0 1 0 0 -8 0 0 
-11 0 0 -48 0 -1 -8 0 0 
-10 0 0 -16 0 -1 -10 0 0 
-32 0 -1 -23 0 0 -33 0 -1 
49 1 0 -16 0 0 -8 0 0 
-2 0 0 -3 0 0 -25 0 -1 
-10 0 0 -3 0 -1 -14 0 0 
-5 0 0 -1 0 0 -26 0 -1 
0 0 0 -4 0 0 -9 0 -1 
-4 0 -1 -4 0 0 -9 0 -1 
-16 0 0 -18 0 0 54 1 0 
2 0 0 -14 0 0 -3 0 -1 
-8 0 -1 -16 0 -1 -8 0 0 
-1 0 0 -19 0 0 -10 0 -1 
-1 0 0 2 0 -1 -7 0 0 
27 1 -1 -14 0 0 -3 0 0 
-8 0 0 4 0 0 -3 0 0 
-13 0 0 0 0 0 -8 0 -1 
-18 0 0 -46 0 -1 3 0 0 
34 0 0 7 0 0 20 0 1 
36 0 0 6 0 0 19 0 0 
29 0 1 17 0 0 4 0 0 
2 0 0 36 0 1 35 0 1 
6 0 0 15 0 0 4 0 0 
-39 -1 0 8 0 0 35 0 0 
5 0 1 10 0 0 6 0 0 
19 0 0 0 0 0 0 0 0 
23 0 1 -61 -1 0 11 0 1 
8 0 0 18 0 0 3 0 0 
-52 -1 1 0 0 1 6 0 0 
5 0 0 10 0 0 -37 -1 1 
6 0 0 22 0 0 15 0 0 
1 0 1 19 0 0 33 0 1 
2 0 0 12 0 0 0 0 0 
8 0 0 3 0 0 3 0 0 
3 0 0 0 0 0 26 0 0 
34 0 0 11 0 0 -49 -1 0 
23 0 1 4 0 0 30 0 1 
9 0 0 39 0 0 -57 -1 1 
7 0 0 16 0 0 27 0 1 
30 0 -1 0 0 0 17 0 0 
0 0 0 4 0 0 5 0 0 
24 0 0 -57 -1 1 33 0 0 
20 0 0 -2 0 0 36 0 0 
9 0 0 14 0 0 10 0 1 
22 0 0 35 0 1 24 0 0 
24 0 1 6 0 0 -63 -1 0 
17 0 0 -4 0 0 -55 -1 0 
14 0 0 13 0 0 34 0 1 
45 0 1 6 0 0 9 0 0 
40 0 0 2 0 0 13 0 0 
20 0 0 2 0 0 10 0 0 
27 0 0 14 0 0 -5 0 0 
30 0 0 4 0 0 -27 -1 0 
4 0 0 20 0 0 1 0 0 
4 0 0 3 0 0 1 0 0 
4 0 0 17 0 0 34 0 0 
27 0 0 27 0 0 -57 -1 0 
27 0 0 11 0 0 -39 -1 0 
17 0 0 -55 -1 0 -44 -1 0 
8 0 0 14 0 0 20 0 0 
18 0 0 33 0 0 8 0 0 
8 0 0 9 0 0 2 0 0 
23 0 0 -39 -1 0 6 0 0 
7 0 0 31 0 -1 7 0 0 
11 0 0 22 0 -1 3 0 0 
0 0 0 13 0 0 2 0 0 
16 0 0 15 0 0 17 0 0 
9 0 0 10 0 0 3 0 0 
14 0 0 18 0 0 -50 -1 1 
-39 -1 0 6 0 0 9 0 -1 
9 0 0 11 0 0 40 0 0 
8 0 0 5 0 0 -58 -1 -1 
-46 -1 -1 -1 0 0 15 0 -1 
9 0 0 9 0 0 35 0 -1 
53 0 0 40 0 0 8 0 0 
5 0 0 -2 0 0 15 0 0 
0 0 0 17 0 0 -3 0 0 
42 0 -1 29 0 0 13 0 -1 
1 0 0 0 0 0 5 0 0 
-1 0 0 20 0 0 9 0 -1 
0 0 0 11 0 -1 4 0 0 
24 0 0 18 0 0 7 0 0 
10 0 0 6 0 0 13 0 0 
4 0 0 0 0 0 30 0 0 
1 0 0 2 0 0 36 0 0 
8 0 0 31 0 -1 11 0 0 
6 0 -1 7 0 0 13 0 0 
44 0 -1 4 0 0 33 0 0 
-38 -1 0 -59 -1 0 35 0 0 
9 0 0 3 0 0 1 0 0 
15 0 -1 6 0 0 20 0 -1 
6 0 -1 9 0 -1 26 0 0 
5 0 0 1 0 -1 3 0 0 
34 0 -1 -25 -1 -1 22 0 0 
2 0 -1 25 0 0 2 0 -1 
7 0 0 5 0 -1 15 0 -1 
16 0 -1 9 0 0 4 0 0 
-47 -1 0 4 0 0 17 0 0 
13 0 0 -5 0 -1 44 0 0 
-45 -1 0 7 0 -1 1 0 -1 
0 0 0 4 0 0 6 0 0 
7 0 -1 2 0 0 23 0 -1 
3 0 -1 3 0 -1 13 0 0 
28 0 0 
v 3 1000 double
-447.52557154 24.227533863 17.670743038 -347.95937567 17.860430012 6.880039555 -227.98629889 8.3932723317 10.209628402 
-358.54525527 26.098587163 17.143665276 -250.62588323 -9.5826617166 -0.25611488888 -276.28756211 16.749140283 -9.9712562594 
-70.839846063 2.623584149 31.642319789 -209.5354754 -12.780464551 -13.834982217 -456.97320453 -12.551154285 5.8955514403 
-201.34407468 6.3597033369 -18.589091487 -424.72755604 -12.800944368 15.256372098 -331.68759807 2.2359065919 19.265521595 
-220.35312308 -17.685528534 -20.269561476 -114.18359782 -13.705662204 -7.4074220318 -75.72350732 -6.0146248441 -3.9879595402 
-285.65353381 -27.36781459 -0.67395134858 -276.34437415 -16.328098328 -23.504552584 -142.96802023 -22.032791525 14.448697528 
-98.617767354 -8.3402111526 0.90828215177 -65.71952991 -9.0540240648 -2.5174989687 -195.90529713 5.7158072678 4.0492300179 
-549.04810917 45.362151577 20.226688616 -303.63157974 -10.250926603 3.8967814193 -442.63894351 -15.323971037 1.9092891295 
-109.30461049 22.159780697 4.6283118559 -192.33928436 -12.892660818 -2.9076322891 -326.22486244 15.50664674 -13.220714095 
-391.30671966 4.8984783952 -31.362667681 -48.630207129 6.4450409973 13.870224161 -143.37109473 13.912928351 17.791986804 
-100.34173726 7.9144486893 -12.713029695 3.1900266101 -5.846623076 -4.9601408013 -264.95812591 -4.8901966438 -25.920788638 
8.1253950991 -7.1409850756 -3.2477888887 -150.60865576 -7.8917084022 3.6949406768 -101.25286536 12.041832277 17.318255473 
-330.09992777 14.023338931 6.0739634546 -365.9294932 7.7904843063 1.6458119524 -16.470458793 4.2530820211 8.3841659642 
-268.23748737 29.501794968 -11.619764256 -425.60339338 -5.5400845012 15.10704237 -264.72275427 14.358825412 5.0708838929 
-351.8861543 -9.9971140182 0.75416182252 -52.138569359 10.625490438 5.5551178837 -465.53908643 -22.921924002 22.201139854 
-109.66293151 -19.375944928 14.85516219 -273.30646296 6.617501139 2.6032661419 -285.9557604 8.5715244435 3.6500427126 
-385.31540669 13.677973184 -26.736361631 -369.56506158 -10.591529268 -25.684551899 -175.19870242 -19.595714399 3.6713991721 
-386.34569306 2.3116625172 -9.8996641333 -444.64500272 -14.779886903 -18.064481744 -319.73213633 -4.1767359684 -11.683644717 
-216.02921856 -4.2758418394 -4.1053886793 -178.91877354 12.905601484 5.0897624323 -180.24921629 -0.27242450851 0.3557561408 
-92.08209009 7.1499722943 -0.23043251144 -219.51686333 1.6561375587 -18.58292128 -424.31435207 -8.3014440836 3.0169147772 
-372.33950308 -0.38429039231 -18.24798538 -245.90974991 -21.720143784 -11.248672198 -433.79996863 5.0665704688 -16.653864302 
-182.40451556 3.5489009474 -23.396132754 -116.63953745 24.233046389 -6.8483575791 -83.745997545 3.4287146029 5.5511550759 
-60.128074553 23.933452932 7.3304727399 -378.63569053 -6.3154152518 3.6604439364 -9.6108634653 -3.0273110627 -0.26065459652 
-312.53465871 11.637573846 -9.9579239875 -91.443222925 -13.82357579 4.9529057212 -121.57196388 15.449618318 9.1132021593 
-292.38514066 -11.114693586 -5.7845110596 -142.93191158 -20.965229559 17.906451625 -84.352831243 -3.937276663 -0.88583853241 
-29.209021446 -14.059933138 -9.3088864931 -509.12258022 2.6901622113 43.270909065 -365.19863658 22.95498593 10.289900629 
-379.58436931 4.943930084 10.053461546 -429.18699175 22.184557781 21.610243171 -120.51300057 -5.5874140725 5.5520238763 
-156.00049476 -16.688493593 -7.5660392203 -307.50264548 1.0177510736 -7.565100499 -103.28780433 12.293603187 -4.0115995099 
-15.084649218 -18.97456307 11.034787347 -125.91144533 4.2680971217 15.038723378 -175.34799279 -4.9212841045 -53.481228122 
-368.81343876 -0.66156082819 13.135860434 -200.42053817 -29.42260152 -14.029040186 -372.97540525 -6.8039814919 -18.676289788 
-441.28536895 6.1185042871 28.665956784 -456.68948811 -9.2913579528 -22.667760793 -25.172802602 -7.6055435434 -3.685263262 
-78.297289427 11.261660474 19.495375915 -20.467297589 -27.694551637 -5.5567439261 -210.6433923 -13.461990972 16.240664354 
-65.684323074 -22.923744989 -9.4504673397 27.157595579 -7.8496545137 -0.83072071558 -86.273464761 -2.0918457309 8.8916438035 
-316.63478212 -11.603993218 -1.4246023424 -227.77417262 16.982059849 8.0165850031 -236.6249745 -1.2570136839 -8.7852300897 
-314.94900568 31.683496448 8.8430409661 -452.78951316 -10.031107979 -11.946441909 -113.9864971 7.5926835244 -2.6113368488 
-123.05472834 -29.976684907 1.2895218778 -349.62836895 23.399981181 -18.769056791 -189.08513303 18.251806795 6.1032293736 
-102.47869307 -8.3923598797 -12.530659274 -340.69502056 6.8113537387 -2.9598480561 -398.06177818 -16.840091618 16.707568517 
-313.16698385 18.930070337 20.985787759 -270.06282882 6.7784298955 -5.7313340074 -359.16767229 8.5298424079 -19.155598481 
-159.31822621 -1.8320478739 12.962700129 -365.55542856 -9.3457366162 -17.593775051 -429.71474659 -8.18915403 9.1850825131 
-291.94461959 -6.5669607095 -5.29968986 -11.057564897 6.7033234894 -5.0426985004 -147.05374571 -0.45895600568 19.562552191 
-190.62344233 6.6064472216 2.4224502314 -55.695536116 -4.0661055758 22.639865858 -31.383430507 21.28905083 12.284884627 
-279.09630553 0.92309924016 8.0518532058 -219.31256957 2.0522650969 8.5878000602 -112.76629839 8.5489163913 -8.0053682033 
-1.1542611354 -8.851564317 5.1571723308 -318.29573224 -22.217911154 2.3220876191 -456.74227053 5.7664265058 -3.7406741733 
-223.35917293 -0.67594334978 -1.2657516349 -66.281593088 12.979773137 8.9983445786 -26.583307117 -6.1693587716 -14.46402835 
-144.46550899 31.487477043 -4.3399915278 -21.741151952 10.118565283 -2.3437904754 -423.07389208 21.231863904 20.923090556 
-232.13034942 -1.83506052 8.9778805527 -228.71324873 7.6890929591 6.6777754157 -228.12554704 31.638380651 -0.58054581676 
-467.26991362 22.092134575 20.051496811 -40.322945356 12.551061208 13.313730986 -331.17795546 -33.319082293 -5.7417945848 
25.068254301 -19.657246221 -8.7771643074 -87.986931019 11.673613964 10.587224588 -445.96531987 11.069842281 48.376223039 
-413.64014576 5.9482025269 14.365641411 -162.91515205 1.725190028 22.21436641 -37.119574475 -4.1958784337 -6.659441089 
-15.263245113 8.5430357181 -11.571115042 -219.15339133 -2.1382635704 4.9794198295 -385.42951287 -17.6939679 -8.2551996242 