ITEM: TIMESTEP
7500
ITEM: NUMBER OF ATOMS
1000
ITEM: BOX BOUNDS xy xz yz pp pp pp
0 10 0
0 10 0
-0 10 0
ITEM: ATOMS id type type x y z ix iy iz vx vy vz fx fy fz omegax omegay omegaz radius 
261 1 1 1.56518 3.67379 0.372337 -2 0 1 -79.5543 -10.0833 3.35413 1754.12 -374.208 -886.166 0 0 0 0.5 
872 2 2 4.60007 4.09897 1.19311 -1 0 0 -45.85 -8.59399 -3.40683 -649.884 2078.05 1601.41 0 0 0 0.5 
747 2 2 1.77965 0.161306 0.482926 -32 0 1 -472.982 6.86553 6.75459 1618.93 1561.73 1096.32 0 0 0 0.5 
323 1 1 2.2766 1.70518 0.949058 -6 0 0 -258.388 15.5152 -23.9153 -164.935 -1672.65 413.922 0 0 0 0.5 
859 2 2 1.83752 1.04584 0.138333 -6 0 1 -374.718 19.8974 -3.61357 -93.6167 -611.099 237.567 0 0 0 0.5 
907 2 2 3.28349 4.38366 0.891542 0 0 0 -18.4297 -30.5123 -17.5826 520.547 480.695 349.277 0 0 0 0.5 
382 1 1 2.55345 1.59895 1.83049 -8 0 0 -301.92 18.9742 10.5496 -746.69 210.737 -1206.26 0 0 0 0.5 
755 2 2 1.73176 1.02468 1.9847 -11 0 0 -305.399 -3.33923 18.017 -498.18 156.524 797.279 0 0 0 0.5 
400 1 1 2.95339 1.9857 0.277268 -4 0 0 -208.397 -4.57846 6.04011 -550.893 -137.513 1256.3 0 0 0 0.5 
848 2 2 2.02344 0.842322 1.12679 -19 0 1 -364.004 -3.36635 -1.97533 -1393.59 -1272.9 -524.991 0 0 0 0.5 
583 2 2 1.65576 2.61568 0.21043 -6 0 1 -156.09 7.66307 7.80305 717.276 33.415 1288.25 0 0 0 0.5 
364 1 1 1.74089 4.00478 1.29241 -1 0 0 -59.4769 -6.55802 10.0598 -107.718 34.8633 -80.7508 0 0 0 0.5 
258 1 1 2.78896 0.93177 0.191755 -12 0 1 -368.571 13.1396 -9.70655 -830.275 1911.29 -1194.69 0 0 0 0.5 
136 1 1 1.39482 2.3376 1.06409 -9 0 0 -167.016 -15.0685 0.631172 -625.521 -1800.52 1163.86 0 0 0 0.5 
864 2 2 1.03889 3.17303 1.11652 -2 0 1 -127.272 5.06456 12.2483 1455.68 -925.814 -182.395 0 0 0 0.5 
393 1 1 0.580778 2.25507 0.472806 -5 0 0 -174.653 2.20962 1.68577 1188.19 -360.878 -770.029 0 0 0 0.5 
431 1 1 0.880152 1.66907 1.57431 -7 0 0 -246.996 -15.7464 -21.9115 1430.41 -102.17 -899.572 0 0 0 0.5 
159 1 1 1.43049 0.0997266 1.37336 16 1 0 -511.226 20.468 -17.218 1508.9 3832.75 -1452.98 0 0 0 0.5 
430 1 1 0.102836 4.14217 1.16463 -3 0 0 -52.5717 -2.44166 -6.17375 -107.642 116.537 773.044 0 0 0 0.5 
135 1 1 1.09735 2.89947 1.95606 -3 0 0 -153.624 14.6291 -0.634425 1175.39 688.039 907.242 0 0 0 0.5 
620 2 2 2.57049 4.18082 1.71643 -1 0 0 -69.5206 19.2342 -16.156 748.898 886.999 826.866 0 0 0 0.5 
777 2 2 4.28787 0.207669 1.91328 -18 0 0 -416.364 -11.8731 -20.5544 -2859.42 -1936.81 2351.17 0 0 0 0.5 
916 2 2 2.80559 2.61243 0.991547 -7 0 0 -169.467 12.3318 6.46509 28.4935 186.602 143.142 0 0 0 0.5 
266 1 1 0.798351 0.23123 1.96232 -23 0 0 -472.734 11.876 -0.16936 -446.008 971.649 -624.334 0 0 0 0.5 
138 1 1 0.301814 4.07588 0.157073 -3 0 1 -30.2807 0.643026 4.47844 923.474 266.135 90.3393 0 0 0 0.5 
787 2 2 3.87663 2.38898 0.964777 -15 0 1 -205.166 8.46692 -13.4046 183.509 -1705.1 -1756.17 0 0 0 0.5 
896 2 2 4.09332 4.88433 1.14176 -1 0 0 -23.0871 16.9892 -26.5536 -537.317 -647.925 -709.61 0 0 0 0.5 
18 1 1 0.652835 3.37812 0.481065 -3 0 0 -83.0981 -12.36 -2.86109 286.515 -689.435 2.53401 0 0 0 0.5 
529 2 2 0.849977 3.93246 1.54454 -3 0 0 -68.3059 0.515139 24.2059 794.675 1117.78 1472.07 0 0 0 0.5 
622 2 2 4.34933 4.36717 0.326213 -1 0 0 -2.4868 -9.23283 -11.8759 -119.618 459.25 -193.291 0 0 0 0.5 
380 1 1 4.13659 2.85744 0.016374 -5 0 1 -100.766 -22.8271 4.80203 -540.181 -283.309 948.757 0 0 0 0.5 
821 2 2 3.32378 0.764115 1.25803 23 1 0 -409.331 24.9544 20.3383 -1430.58 405.971 -1716.1 0 0 0 0.5 
316 1 1 4.60265 1.2131 1.54145 -23 0 0 -293.942 -4.44166 6.19628 -538.451 1056.25 1539.55 0 0 0 0.5 
650 2 2 3.87886 3.50623 0.699021 -2 0 0 -80.4797 -3.34166 -2.40497 -26.3212 66.2573 69.7157 0 0 0 0.5 
371 1 1 3.81971 2.96345 1.6324 -2 0 0 -105.162 -4.9527 -19.9043 -430.966 1395.27 -184.662 0 0 0 0.5 
130 1 1 1.82405 4.56534 0.0309756 -5 0 0 -13.082 -0.680816 -5.94884 175.813 -1762.95 2460.64 0 0 0 0.5 
16 1 1 4.60724 0.84077 0.327625 -16 0 0 -350.108 -10.4713 -25.5636 1249.76 -477.984 -4566.6 0 0 0 0.5 
512 2 2 1.00589 4.79702 1.98834 -3 0 0 -37.6901 12.5865 -0.710999 -11.4917 -63.7236 -32.7111 0 0 0 0.5 
361 1 1 4.46636 2.54892 1.97729 -3 0 0 -131.072 7.36254 16.2137 -1949.34 3210.4 -2151.55 0 0 0 0.5 
494 1 1 1.88118 4.94611 1.38068 1 0 0 -14.6608 15.4049 11.5489 -153.759 -1031.7 -96.7408 0 0 0 0.5 
763 2 2 1.14037 4.38855 0.690885 1 0 1 -25.3472 -5.51556 -1.09629 462.568 124.866 -1.88973 0 0 0 0.5 
413 1 1 2.23291 3.03916 1.7902 -19 0 0 -130.285 -5.43051 -54.3365 476.413 276.348 -58.693 0 0 0 0.5 
758 2 2 4.02274 1.46673 0.740583 -8 0 0 -249.739 -15.8617 6.29638 -1832.88 2355.6 1628.91 0 0 0 0.5 
795 2 2 3.12778 0.196342 0.651066 -17 0 0 -478.569 7.3194 -4.54799 592.16 1238.02 2549.82 0 0 0 0.5 
659 2 2 3.09207 3.40972 1.44516 -1 0 0 -100.781 5.54457 -3.46878 -1261.42 -290.647 -374.866 0 0 0 0.5 
828 2 2 4.85869 1.84072 0.657719 -6 0 1 -243.562 18.0309 23.0095 503.625 8.33435 1448.73 0 0 0 0.5 
204 1 1 0.0843733 1.66681 3.06632 -36 0 0 -266.798 -20.5187 -24.8984 516.657 -984.405 -190.009 0 0 0 0.5 
389 1 1 4.88385 1.94469 2.12906 -5 0 0 -237.848 1.14471 -0.983132 -1436.98 -724.479 -179.629 0 0 0 0.5 
680 2 2 1.33222 2.1987 2.23383 -7 0 0 -254.17 -18.6323 -11.6727 -205.144 -1962.99 -139.98 0 0 0 0.5 
423 1 1 1.34417 1.191 3.85414 -21 0 0 -353.19 17.6553 -10.3729 -2361.01 2696.19 -559.822 0 0 0 0.5 
212 1 1 1.69954 0.596491 3.45807 36 1 0 -403.788 -11.2937 -13.6795 -1836.96 993.822 -16.198 0 0 0 0.5 
249 1 1 0.819302 1.04824 2.31051 -12 0 1 -314.76 5.94328 23.8988 336.851 1278.12 -556.298 0 0 0 0.5 
158 1 1 2.46198 4.62009 2.92555 0 0 0 -21.6517 -4.65424 -5.62346 -1154.48 -28.1864 -218.471 0 0 0 0.5 
523 2 2 1.45121 2.86257 3.44851 -13 0 1 -164.435 9.71828 7.17283 -1476.76 1917.43 318.081 0 0 0 0.5 
682 2 2 1.81827 3.79891 3.2102 -3 0 0 -77.4354 -2.42383 21.8734 1446.27 -2053.26 -453.217 0 0 0 0.5 
668 2 2 3.7596 3.96643 2.92296 -1 0 0 -91.7639 -6.90238 -9.81969 -2033.35 -549.688 -1564.97 0 0 0 0.5 
697 2 2 2.0081 3.3087 2.56639 -4 0 0 -106.728 -11.4806 -10.9584 139.603 -300.363 -476.117 0 0 0 0.5 
142 1 1 1.90411 2.22753 2.87479 -10 0 0 -269.018 18.988 -4.028 2159.66 -1368.59 -1312.19 0 0 0 0.5 
943 2 2 2.82609 3.03706 3.27032 -4 0 0 -132.063 -13.7077 -18.8261 7.97139 2.29355 2.97685 0 0 0 0.5 
383 1 1 2.61424 3.96214 3.80465 -2 0 0 -82.2517 -0.714404 15.7603 -325.129 -36.4914 -37.5106 0 0 0 0.5 
280 1 1 2.04979 2.1317 3.70465 -10 0 0 -245.545 -10.9127 2.91411 1273.91 -1565 790.483 0 0 0 0.5 
276 1 1 2.12259 1.30017 2.88651 -14 0 1 -313.437 7.5064 24.7007 -289.387 1453.03 434.153 0 0 0 0.5 
654 2 2 2.37885 0.469448 3.70352 -21 0 1 -397.201 14.8357 5.63184 642.381 1909.59 -306.055 0 0 0 0.5 
798 2 2 2.28847 0.49737 2.69791 -14 0 0 -414.083 1.35864 -9.54346 -1668.59 2311.17 -1718.29 0 0 0 0.5 
999 2 2 0.71959 2.64735 2.94276 -5 0 0 -167.499 2.994 -7.89967 2024.96 -381.1 -1134.08 0 0 0 0.5 
392 1 1 0.185773 1.9211 2.121 -5 0 0 -241.639 -17.5148 -24.6799 3.76501 -1254.6 -353.255 0 0 0 0.5 
200 1 1 4.0317 0.160942 3.54881 -28 0 0 -460.843 -20.6989 27.9841 -1938.98 -918.232 1881.32 0 0 0 0.5 
636 2 2 4.70857 2.64578 2.8834 -13 0 1 -163.126 -1.31322 -2.14336 -1347.11 610.691 892.688 0 0 0 0.5 
928 2 2 3.72466 4.33844 2.04383 -2 0 0 -57.9563 -0.371672 -22.1357 -13.6805 -87.5036 199.453 0 0 0 0.5 
522 2 2 1.50821 4.22948 3.95364 -3 0 0 -52.6788 6.29186 16.4932 -418.871 -610.618 -822.3 0 0 0 0.5 
767 2 2 0.930912 3.46501 3.66206 -8 0 0 -135.682 27.3716 1.98061 -1715.4 620.71 1186.26 0 0 0 0.5 
905 2 2 4.47888 4.31162 3.95836 -3 0 0 -72.2118 1.56615 1.89011 226.694 324.815 -754.229 0 0 0 0.5 
717 2 2 -0.00483249 2.51451 2.61622 -17 0 0 -186.255 -14.1821 -13.2573 1188.83 206.527 365.301 0 0 0 0.5 
15 1 1 3.37211 1.87349 3.43157 -10 0 1 -220.977 -18.4759 -7.83352 129.093 215.495 -123.211 0 0 0 0.5 
328 1 1 -0.0167868 4.27506 2.12045 0 0 0 -43.6054 -3.28683 4.84096 -26.1032 257.131 -148.312 0 0 0 0.5 
36 1 1 4.39425 2.02175 3.66861 -24 0 0 -232.469 10.245 -1.84034 -2123.53 2421.68 705.33 0 0 0 0.5 
20 1 1 4.57917 0.0213452 3.31263 -41 0 0 -467.336 -17.4309 -24.7843 2913.08 -831.547 -155.883 0 0 0 0.5 
490 1 1 3.18249 0.735932 2.855 -15 0 0 -405.531 -8.63721 6.88798 -2063.63 -832.778 -611.535 0 0 0 0.5 
629 2 2 3.05152 1.46579 2.52067 -12 0 0 -301.81 29.4601 18.8833 456.037 913.816 404.112 0 0 0 0.5 
858 2 2 3.36309 4.60963 3.14383 0 0 0 -37.3002 5.64703 25.0656 821.942 389.908 -1292.71 0 0 0 0.5 
95 1 1 1.33071 4.54722 3.0764 -1 0 0 -21.6888 4.05694 -11.3258 -174.955 1180.3 264.445 0 0 0 0.5 
675 2 2 0.477442 4.90559 2.96651 0 0 0 -18.7611 0.330957 -11.4238 -203.537 56.2347 443.483 0 0 0 0.5 
6 1 1 0.303875 3.24456 2.0501 -4 0 0 -140.425 7.2913 31.1009 366.93 900.248 1703.12 0 0 0 0.5 
898 2 2 0.0687356 2.8552 3.54369 -2 0 0 -141.746 0.0723883 -11.64 -2088.5 -3158.2 -192.642 0 0 0 0.5 
865 2 2 3.82554 2.6304 2.9988 -6 0 0 -168.816 -33.1174 1.80774 -787.492 -606.935 -278.428 0 0 0 0.5 
678 2 2 3.55565 4.0678 3.91327 -2 0 0 -80.6005 8.83611 15.7933 548.836 522.506 1633.18 0 0 0 0.5 
369 1 1 3.67812 3.22115 2.40371 -3 0 0 -130.297 -0.10337 -18.6396 -281.053 -236.512 962.465 0 0 0 0.5 
519 2 2 3.69103 3.28593 3.59333 -4 0 0 -129.263 -5.48997 -7.54172 -311.345 246.951 -726.518 0 0 0 0.5 
21 1 1 3.75247 0.721374 2.12833 -30 0 0 -404.272 18.6578 -5.18069 -1890.43 1059.8 287.336 0 0 0 0.5 
107 1 1 3.7878 0.680625 3.2098 -15 0 0 -398.123 28.1368 12.684 675.983 1506 834.326 0 0 0 0.5 
785 2 2 4.53326 0.639796 2.66685 37 1 0 -428.891 14.9095 -21.1061 2842.88 1000.38 1279.19 0 0 0 0.5 
773 2 2 4.48565 3.82639 3.11445 -5 0 0 -110.945 0.972799 -19.9696 2298.53 790.722 1204.95 0 0 0 0.5 
768 2 2 4.7516 1.43207 3.01337 -10 0 -1 -282.46 -0.144553 22.2215 -2210.92 -2365.44 454.188 0 0 0 0.5 
456 1 1 4.68942 4.386 2.25601 -1 0 0 -59.9803 4.41398 -6.10529 200.579 1087.87 -393.599 0 0 0 0.5 
391 1 1 4.77673 4.71872 3.13142 1 0 0 -29.4078 -5.14341 0.553119 264.361 -58.5021 239.156 0 0 0 0.5 
144 1 1 4.96106 3.48069 2.36283 -3 0 0 -90.7024 -11.6822 4.80333 -587.828 -16.3132 -488.805 0 0 0 0.5 
201 1 1 3.82035 1.15016 4.59086 -13 0 0 -396.082 24.42 4.07433 -180.363 2039.24 685.73 0 0 0 0.5 
365 1 1 1.13574 1.23983 5.38243 -24 0 0 -357.014 -4.11127 -0.352713 -1631.18 230.981 -5.4583 0 0 0 0.5 
933 2 2 3.35596 4.3748 5.01397 0 0 0 -14.4448 -8.17138 16.455 -573.856 -45.3957 -1397.66 0 0 0 0.5 
827 2 2 4.19284 3.74437 4.89653 -3 0 0 -96.8541 -10.7657 -5.96672 210.288 4.07857 103.733 0 0 0 0.5 
852 2 2 4.23392 0.851764 5.43459 -21 0 0 -375.235 7.63487 5.55839 624.451 -1739.19 -315.557 0 0 0 0.5 
901 2 2 2.5844 1.3038 5.28385 -6 0 0 -355.239 19.4055 -26.7195 377.551 742.05 -957.45 0 0 0 0.5 
216 1 1 1.36232 2.08393 4.86911 -15 0 0 -257.553 16.5043 -16.2302 414.272 148.912 24.6812 0 0 0 0.5 
313 1 1 2.28447 2.01586 4.62761 -11 0 0 -251.728 -1.08471 2.76076 457.716 -90.4787 446.618 0 0 0 0.5 
263 1 1 2.0661 2.92122 4.17505 -4 0 0 -148.902 11.6552 -7.6286 1484.72 -803.261 -632.669 0 0 0 0.5 
518 2 2 0.565339 1.92171 4.45201 -7 0 0 -260.313 -20.0635 -2.33796 3589.9 -1048.52 -514.781 0 0 0 0.5 
679 2 2 2.56994 3.96418 5.65614 -1 0 0 -69.6242 2.9029 1.16753 -534.933 419.604 8.59602 0 0 0 0.5 
956 2 2 1.10754 2.08763 5.72982 -15 0 0 -237.892 4.88037 1.97087 674.34 -725.298 -360.41 0 0 0 0.5 
262 1 1 4.69979 0.26622 4.18445 -20 0 0 -423.405 -14.6043 1.31512 1407.33 -1449.86 -2515.7 0 0 0 0.5 
743 2 2 0.720516 2.74499 5.79059 -7 0 0 -189.534 39.5508 5.54221 2246.47 187.124 -128.259 0 0 0 0.5 
411 1 1 0.613021 2.71779 4.18637 -7 0 0 -167.796 16.149 19.6979 1177.81 614.063 329.743 0 0 0 0.5 
62 1 1 2.3782 3.0306 5.18847 -2 0 0 -130.811 -10.8598 3.77988 -649.421 -192.81 698.452 0 0 0 0.5 
409 1 1 1.47877 3.34396 4.70285 48 1 0 -125.522 10.1602 -3.01294 943.269 485.486 -832.679 0 0 0 0.5 
813 2 2 0.791283 0.313889 5.91483 37 1 0 -464.005 10.5721 -10.9276 562.218 -870.262 -772.719 0 0 0 0.5 
12 1 1 1.8669 0.761156 4.40346 -18 0 0 -409.496 2.92317 -3.21262 966.376 -1295.73 283.72 0 0 0 0.5 
837 2 2 1.82556 0.0527658 5.30188 -21 0 0 -485.561 -8.29501 24.8927 -102.117 -1487.78 96.7459 0 0 0 0.5 
245 1 1 1.61165 3.54389 5.63483 -9 0 0 -82.7755 -6.91291 -12.0235 1633.16 -1288.05 482.549 0 0 0 0.5 
714 2 2 4.72927 2.77285 4.29544 42 1 0 -152.451 -6.68898 -16.5761 1072.66 -191.425 -198.679 0 0 0 0.5 
234 1 1 4.23662 1.96615 4.8014 -6 0 0 -228.921 -12.9608 -19.3267 41.4576 -1897.45 -508.932 0 0 0 0.5 
789 2 2 1.79712 0.947249 5.30272 -24 0 0 -342.606 -11.461 -13.9825 303.769 566.67 1555.91 0 0 0 0.5 
52 1 1 0.163446 1.0684 4.57782 40 1 0 -364.93 14.5708 10.6622 2040.66 -187.23 2319.57 0 0 0 0.5 
348 1 1 2.04021 4.50446 5.67852 -3 0 0 -41.4901 -2.2156 4.37216 -1582.52 1807.59 206.194 0 0 0 0.5 
127 1 1 0.756411 3.40659 5.0891 -3 0 0 -114.739 -12.7767 -6.97944 -2126.14 1293.07 -1.2101 0 0 0 0.5 
408 1 1 4.48947 3.89644 5.93662 -1 0 0 -69.4909 -18.955 9.34186 299.225 -708.805 685.32 0 0 0 0.5 
913 2 2 3.83127 4.90825 4.26092 -1 0 0 -13.7501 13.2751 15.0603 -531.679 714.95 -234.434 0 0 0 0.5 
594 2 2 3.12368 2.3366 5.76612 -7 0 0 -200.955 -10.3595 -2.75374 -3431.71 1151.13 -1715.49 0 0 0 0.5 
944 2 2 0.165545 2.50629 5.2524 -11 0 0 -176.05 -6.27909 -12.2912 1186.93 -604.09 -968.935 0 0 0 0.5 
289 1 1 4.35302 0.590123 4.6746 -33 0 -1 -409.978 -5.73726 19.1277 62.821 -657.371 -339.025 0 0 0 0.5 
243 1 1 4.73282 2.90511 5.50951 -5 0 0 -179.928 8.99658 3.02201 -573.376 2354.05 259.502 0 0 0 0.5 
209 1 1 2.62612 0.172535 4.77365 -23 0 0 -493.778 17.8078 12.9894 -1021.73 1458.95 -263.234 0 0 0 0.5 
395 1 1 3.01739 4.88584 5.94409 -1 0 0 -20.329 22.0917 -19.1904 -393.325 779.009 -711.105 0 0 0 0.5 
683 2 2 0.944392 4.16796 5.73382 0 0 0 -46.6511 -7.5052 7.33512 -1535.87 1696.1 225.126 0 0 0 0.5 
214 1 1 3.00542 4.94577 4.3492 0 0 0 -6.4684 0.0481408 10.0871 -764.558 -373.657 778.267 0 0 0 0.5 
38 1 1 3.34082 0.867245 5.47316 -15 0 0 -377.626 -7.65135 -2.78488 -451.287 -2666.05 -581.083 0 0 0 0.5 
708 2 2 3.35441 0.0369779 4.22249 -24 0 0 -482.558 23.9655 13.3745 -1299.61 1475.67 2025.41 0 0 0 0.5 
47 1 1 4.75863 2.10015 5.6196 -17 0 0 -245.426 -0.407056 -0.420352 -697.112 -400.597 509.346 0 0 0 0.5 
921 2 2 3.78391 2.68855 5.18961 -6 0 0 -170.905 -2.11929 10.8366 -266.076 864.285 -694.004 0 0 0 0.5 
914 2 2 4.5398 4.73129 4.80876 -1 0 0 -29.1821 -3.22536 22.9596 -117.221 -1263.15 -663.326 0 0 0 0.5 
149 1 1 1.61401 4.40348 4.83141 0 0 0 -24.6804 -1.96543 6.09004 902.759 -146.449 528.708 0 0 0 0.5 
546 2 2 3.01915 3.2209 4.49913 -4 0 0 -151.251 -2.73752 2.14323 191.972 408.15 -489.387 0 0 0 0.5 
876 2 2 0.734982 4.65227 4.86579 0 0 0 -16.5885 3.61575 -0.14537 844.013 -1493.53 -26.8444 0 0 0 0.5 
554 2 2 3.29287 3.42189 5.42696 -7 0 0 -129.743 21.6126 -4.98727 1534.65 -819.205 -1287.43 0 0 0 0.5 
146 1 1 3.73515 4.32622 5.91272 0 0 0 -54.3232 -4.14497 3.74015 433.186 -206.391 1451.88 0 0 0 0.5 
930 2 2 3.89491 2.87124 4.29871 -5 0 0 -158.37 -12.3309 4.12249 -467.063 -552.968 441.928 0 0 0 0.5 
863 2 2 3.87987 2.08767 5.96232 -7 0 0 -235.144 16.4925 -10.8256 1492.09 1169.5 2238.6 0 0 0 0.5 
4 1 1 4.03015 0.0914376 5.68425 -28 0 -1 -506.919 -15.2367 -21.1198 -6228.18 2742.09 -3574.41 0 0 0 0.5 
862 2 2 2.79102 0.208171 7.30755 -14 0 0 -390.036 -31.5605 4.57288 -4845.99 -1794.01 5702.33 0 0 0 0.5 
35 1 1 2.52512 1.10233 7.36793 -14 0 0 -325.197 -15.4722 21.6725 1235.19 -1362.64 1373.91 0 0 0 0.5 
225 1 1 3.86997 3.08878 6.07645 -5 0 0 -171.837 2.18097 16.2638 325.582 104.393 -179.929 0 0 0 0.5 
223 1 1 1.11827 2.20781 7.3023 -4 0 -1 -158.725 5.37524 -8.86537 -834.711 1191.31 -729.99 0 0 0 0.5 
584 2 2 1.47284 3.60634 6.5999 -2 0 0 -87.2385 4.70166 -8.61451 -835.415 734.499 -105.131 0 0 0 0.5 
505 2 2 2.41155 1.68202 6.0962 -6 0 0 -299.654 21.7202 -13.7926 -2059.09 1973.23 -5.0898 0 0 0 0.5 
255 1 1 3.09954 2.08829 7.53397 -4 0 0 -160.955 8.39751 9.52176 702.182 3065.17 2953.03 0 0 0 0.5 
320 1 1 4.38444 3.6766 6.88414 -3 0 0 -98.5037 29.7157 15.8697 -16.1677 1240.06 990.197 0 0 0 0.5 
992 2 2 3.02117 1.15589 6.31978 -23 0 0 -336.081 11.0258 -8.87428 643.205 2858.57 104.871 0 0 0 0.5 
148 1 1 2.46993 4.04095 6.72017 -3 0 0 -82.8293 3.83738 6.07647 807.606 -1927.15 -1386.71 0 0 0 0.5 
222 1 1 1.93735 1.52959 7.0442 45 1 0 -258.466 14.3028 -12.6576 826.783 1542.88 -818.027 0 0 0 0.5 
606 2 2 0.429924 1.05742 7.58545 -4 0 0 -278.181 -5.30373 4.92524 -1879.32 -4206.74 -1558.46 0 0 0 0.5 
399 1 1 1.33183 1.50231 7.36599 -12 0 -1 -256.521 -33.4473 35.0643 -1951.77 -25.842 77.5034 0 0 0 0.5 
819 2 2 1.38283 2.85436 7.84824 -2 0 0 -94.7704 -21.3506 -1.27807 436.401 910.945 -140.809 0 0 0 0.5 
572 2 2 4.57136 3.07244 7.63053 -4 0 0 -123.359 9.24542 19.137 540.776 649.887 -1400.38 0 0 0 0.5 
692 2 2 4.16441 0.0545559 6.29496 12 1 0 -596.449 14.4358 23.7479 2873.21 92.751 -124.971 0 0 0 0.5 
123 1 1 0.480748 1.54951 6.56287 -13 0 0 -276.28 14.2115 8.24131 -452.231 -535.268 -591.125 0 0 0 0.5 
762 2 2 1.31234 1.61486 6.41967 -22 0 -1 -263.849 -6.22569 11.7842 -110.335 -384.667 172.195 0 0 0 0.5 
242 1 1 1.71515 0.589141 7.41765 -22 0 0 -336.691 -29.7838 12.6461 1165.09 -1542.14 76.8075 0 0 0 0.5 
66 1 1 3.59936 4.19387 7.73519 -2 0 0 -47.291 -6.85879 5.31381 1286.33 -1925.06 -908.736 0 0 0 0.5 
342 1 1 2.41823 3.08846 7.9531 -2 0 0 -111.158 3.14544 1.34445 -822.722 244.696 -946.099 0 0 0 0.5 
446 1 1 2.77159 3.31239 6.20251 -2 0 0 -120.459 -4.26575 12.1438 318.824 -571.213 -412.301 0 0 0 0.5 
911 2 2 0.322057 0.738951 6.60923 -36 0 -1 -434.817 0.989847 9.07267 941.285 1607.68 -205.884 0 0 0 0.5 
307 1 1 4.10379 0.160081 7.32961 21 1 0 -444.175 -1.41654 -30.6102 -7254.89 301.862 -4671.43 0 0 0 0.5 
206 1 1 2.46058 2.49138 7.199 -7 0 0 -154.288 -24.5007 10.8006 -2073.35 -380.343 -95.3146 0 0 0 0.5 
402 1 1 3.38835 0.093489 6.63796 -23 0 0 -534.111 2.36931 7.11812 3574.74 -2644.01 -873.104 0 0 0 0.5 
565 2 2 2.07657 3.15739 7.07306 -2 0 0 -96.8048 -0.376121 -9.68234 1214.05 -351.659 -1635.59 0 0 0 0.5 
681 2 2 2.67308 3.9358 7.79524 -1 0 0 -36.7479 -6.21648 -0.26385 1139.09 -1601.95 713.275 0 0 0 0.5 
343 1 1 0.426447 3.95659 6.67443 -1 0 0 -61.9943 1.04288 11.8551 443.118 -279.615 58.6998 0 0 0 0.5 
563 2 2 1.59884 3.68692 7.5823 -1 0 0 -36.4024 -7.88903 -0.478357 -94.0877 -364.552 97.9016 0 0 0 0.5 
161 1 1 3.21976 4.74867 7.06198 -1 0 0 -9.26412 -12.6751 3.46491 -1332.2 743.353 -660.071 0 0 0 0.5 
227 1 1 2.11338 2.02378 7.99535 -7 0 0 -169.107 0.562867 -1.59296 -354.645 -477.622 813.424 0 0 0 0.5 
247 1 1 3.83061 1.45205 6.78575 -23 0 0 -336.736 28.2665 -13.2311 707.773 4488.85 900.018 0 0 0 0.5 
190 1 1 3.00921 2.57311 6.6254 -6 0 0 -155.752 -11.4673 11.4124 -1061.25 -317.698 -860.524 0 0 0 0.5 
908 2 2 3.72946 2.45709 6.79395 -6 0 0 -160.133 4.7166 13.1292 636.292 596.673 -678.323 0 0 0 0.5 
790 2 2 3.14592 0.50438 6.57985 -6 0 0 -459.258 17.0949 -21.6842 -1436.03 1981.24 1568.42 0 0 0 0.5 
649 2 2 4.81595 2.14257 7.85995 -6 0 0 -168.108 0.631592 4.74975 1022.51 -1048.67 330.853 0 0 0 0.5 
611 2 2 2.18122 4.49002 7.29519 0 0 0 -12.1708 1.97282 22.3456 -2043.83 1761.75 632.876 0 0 0 0.5 
241 1 1 3.53539 0.756459 7.4654 34 1 0 -391.708 15.2076 -16.9753 -3347.1 -331.67 -2130.76 0 0 0 0.5 
265 1 1 3.59427 3.09068 7.76735 -3 0 0 -114.121 -1.80981 5.18021 -542.73 278.519 -468.419 0 0 0 0.5 
851 2 2 3.32538 1.42658 7.26977 -10 0 0 -320.223 10.4149 3.68126 -1450.71 -455.009 -931.475 0 0 0 0.5 
69 1 1 0.160244 2.91458 6.2574 -9 0 0 -158.905 12.6603 22.7176 -39.6702 487.798 2304.95 0 0 0 0.5 
929 2 2 1.5193 4.64014 6.45334 0 0 0 -11.7665 -13.1377 12.8492 -682.037 144.198 934.189 0 0 0 0.5 
839 2 2 4.61566 2.93674 6.64776 -10 0 0 -158.776 8.3515 3.02462 92.7125 26.9929 463.3 0 0 0 0.5 
352 1 1 3.42547 3.52319 6.91266 -3 0 0 -92.1626 0.0653765 -10.0287 -406.195 -202.728 199.223 0 0 0 0.5 
802 2 2 0.996364 4.16726 7.83418 0 0 0 -35.6065 -15.8428 -20.0704 -1428.16 -30.5163 36.4055 0 0 0 0.5 
80 1 1 2.42734 4.99229 6.51507 0 0 0 -10.4019 -6.65403 13.3289 423.088 352.172 -983.14 0 0 0 0.5 
653 2 2 3.84734 0.308031 7.8884 29 1 0 -422.77 20.5147 -5.35911 1461.01 576.305 429.572 0 0 0 0.5 
372 1 1 4.14812 2.18739 7.28367 -3 0 0 -185.576 -0.137771 26.7954 436.013 -2282.49 -280.117 0 0 0 0.5 
437 1 1 4.11863 1.38399 6.01333 -16 0 0 -346.337 8.19554 -19.1576 1366.34 -1806.84 1176.58 0 0 0 0.5 
331 1 1 4.11064 4.65895 6.84895 1 0 0 -11.6566 -3.35778 9.8012 -918.507 422.56 625.678 0 0 0 0.5 
727 2 2 4.22899 0.825858 6.68923 -17 0 0 -401.622 -3.00856 9.24691 2043.3 229.474 -905.213 0 0 0 0.5 
97 1 1 4.83367 4.89161 7.76211 -1 0 0 -3.5653 -18.0368 -0.488452 53.8285 -372.526 180.41 0 0 0 0.5 
613 2 2 4.893 4.4462 6.49706 0 0 0 -39.4395 -0.729267 -5.5556 2322.37 782.004 -66.0456 0 0 0 0.5 
738 2 2 4.97644 0.59238 7.97637 30 1 0 -385.654 -26.8868 6.0749 1855.49 -1353.02 -2807.93 0 0 0 0.5 
335 1 1 4.9599 2.17711 6.65593 -12 0 0 -200.253 -11.8536 -6.60163 -434.721 2015.11 1567.3 0 0 0 0.5 
195 1 1 4.91034 1.00711 8.81968 -8 0 0 -262.279 -4.82646 11.7144 461.327 -2030.35 1217.11 0 0 0 0.5 
384 1 1 3.0998 1.9092 9.25004 -6 0 0 -198.939 -4.724 -25.9807 -160.267 -57.2913 -1022.34 0 0 0 0.5 
269 1 1 1.04549 0.155099 9.16294 -18 0 0 -407.2 -1.05393 -31.2032 -741.023 358.936 -1460.94 0 0 0 0.5 
467 1 1 2.00904 0.853999 9.14686 35 1 0 -378.618 13.0517 -6.04078 634.108 -704.116 2285.61 0 0 0 0.5 
677 2 2 2.68577 3.71613 8.92892 -1 0 0 -50.2435 -11.7986 2.43012 -94.9951 71.8655 111.232 0 0 0 0.5 
797 2 2 4.80002 0.200841 9.7262 39 1 -1 -349.953 -37.5925 5.47935 391.594 -1008.37 657.629 0 0 0 0.5 
672 2 2 4.51434 1.80747 9.85751 -8 0 -1 -214.824 13.4686 16.6063 737.407 1851.24 -113.938 0 0 0 0.5 
888 2 2 3.02043 0.560547 8.81069 38 1 0 -364.437 0.279253 43.072 -5613 1916.18 747.271 0 0 0 0.5 
379 1 1 1.27203 3.02158 8.75503 -2 0 0 -102.03 -11.8473 -1.72854 -501.224 485.624 511.573 0 0 0 0.5 
267 1 1 0.834438 1.21133 8.33019 -26 0 0 -286.587 11.44 19.8221 501.218 127.188 665.78 0 0 0 0.5 
597 2 2 4.69147 2.6559 8.46413 -3 0 0 -134.449 1.06141 23.8667 298.929 -872.218 289.424 0 0 0 0.5 
656 2 2 4.65613 1.28148 8.13995 -11 0 0 -245.346 -6.52702 8.06074 2664.01 2742.05 -442.61 0 0 0 0.5 
903 2 2 1.89709 3.76357 9.42285 0 0 -1 -55.2714 -19.3371 9.54414 -553.693 47.4271 -163.637 0 0 0 0.5 
764 2 2 0.514633 0.881967 9.92787 -13 0 0 -375.182 19.723 6.00028 1476.18 -0.452843 419 0 0 0 0.5 
56 1 1 2.07443 2.8278 8.73638 -3 0 0 -88.3937 -10.5799 20.0978 894.722 -388.921 369.094 0 0 0 0.5 
718 2 2 1.76429 1.12578 8.26464 -7 0 0 -272.831 11.2845 5.40737 -768.552 716.487 -2276.13 0 0 0 0.5 
368 1 1 1.01137 2.85915 9.67101 -2 0 -1 -135.266 5.35519 -0.789323 3373.15 -834.856 -555.187 0 0 0 0.5 
259 1 1 1.42144 1.93263 8.88466 -13 0 -1 -161.306 -10.9573 -15.017 0 0 0 0 0 0 0.5 
835 2 2 1.99931 4.23894 8.26305 -2 0 0 -43.7759 -8.02697 2.20958 -292.855 1304.8 173.911 0 0 0 0.5 
312 1 1 3.0993 4.90966 8.02162 0 0 0 6.62951 -9.5681 8.87893 -501.2 1787.64 176.21 0 0 0 0.5 
832 2 2 3.08034 2.76666 8.5113 -3 0 -1 -125.172 9.90681 2.07033 -199.479 387.094 1257.51 0 0 0 0.5 
609 2 2 3.77071 4.21373 9.53526 -1 0 -1 -28.8357 -12.003 13.6465 518.586 -1078.86 730.46 0 0 0 0.5 
108 1 1 3.6717 2.14909 8.45928 -5 0 0 -135.844 -1.35858 6.78288 125.677 529.011 1045.34 0 0 0 0.5 
840 2 2 4.49442 3.33373 8.89328 -2 0 0 -86.3017 18.1073 7.40606 -298.454 1498.32 512.897 0 0 0 0.5 
434 1 1 2.32589 2.26417 9.65685 -9 0 -1 -184.022 5.18838 -10.8933 -393.254 122.371 -912.183 0 0 0 0.5 
100 1 1 2.82803 4.28319 9.73311 -1 0 -1 -34.3587 -16.183 7.86951 -5.81634 -469.951 -78.1993 0 0 0 0.5 
270 1 1 3.98535 1.57723 8.04078 -6 0 0 -184.706 -21.5883 -7.65207 -4471.03 224.768 -1258.85 0 0 0 0.5 
579 2 2 3.69054 3.23944 9.38538 0 0 -1 -89.7546 -8.87408 -1.65867 -884.037 146.624 101.785 0 0 0 0.5 
86 1 1 0.158241 3.16748 9.70833 -5 0 0 -69.2892 -6.92489 18.4801 -3880.44 444.58 -1472.63 0 0 0 0.5 
315 1 1 0.592023 4.6125 8.44136 0 0 0 5.27216 -0.760592 5.7789 -1314.66 2472.01 -586.048 0 0 0 0.5 
736 2 2 3.8009 0.162362 9.17508 -19 0 0 -418.629 10.8129 39.2039 3474.31 -2720.13 -931.228 0 0 0 0.5 
846 2 2 3.58061 3.73298 8.60546 -2 0 0 -50.0837 -3.93576 -2.61578 255.539 143.452 -261.242 0 0 0 0.5 
40 1 1 4.43447 4.05003 8.05613 -2 0 0 -55.3442 -3.7043 -9.23385 -429.157 -191.579 698.824 0 0 0 0.5 
567 2 2 1.964 4.6374 9.0502 1 0 0 15.4558 -10.1473 21.9807 482.628 -970.691 -917.446 0 0 0 0.5 
104 1 1 1.10499 4.96637 9.60559 -1 0 0 -1.15485 -5.836 -17.9683 1048.5 -756.004 -799.169 0 0 0 0.5 
119 1 1 0.480614 4.28422 9.23016 -2 0 -1 -10.9639 -18.5247 5.0162 -1406.24 791.041 1682.37 0 0 0 0.5 
774 2 2 4.48323 1.67212 9.02731 -5 0 0 -234.564 16.1323 6.21809 -666.198 1067.23 -444.553 0 0 0 0.5 
733 2 2 3.68099 0.511827 9.62775 37 1 -1 -387.602 30.326 68.4755 -558.337 1627.25 2107.83 0 0 0 0.5 
351 1 1 1.21385 3.89005 8.71295 0 0 0 -57.0803 13.5225 3.63708 3357.93 -3304.46 -357.292 0 0 0 0.5 
566 2 2 4.79263 0.373667 8.88952 25 1 0 -389.402 -38.0313 3.64597 -204.896 -448.91 -884.611 0 0 0 0.5 
661 2 2 0.460014 2.72111 8.93493 -2 0 -1 -106.771 -29.6066 -9.28383 -1444.42 175.719 -329.84 0 0 0 0.5 
308 1 1 3.42396 4.7619 8.91524 1 0 0 2.5029 -12.0015 8.55213 -729.426 -85.3482 -535.124 0 0 0 0.5 
585 2 2 3.69814 1.74502 9.86832 -3 0 0 -214.663 -9.60628 -6.49035 -197.827 -562.79 74.9863 0 0 0 0.5 
344 1 1 0.316207 3.57472 8.48823 0 0 0 -59.5731 -14.974 -21.1724 664.299 -79.5576 308.443 0 0 0 0.5 
814 2 2 3.59726 0.449471 8.42877 -13 0 0 -390.207 35.8888 15.0904 856.647 1153.09 2536.42 0 0 0 0.5 
829 2 2 4.28207 4.76608 8.59975 1 0 0 3.07398 0.21559 12.5353 602.603 -393.245 -1581.62 0 0 0 0.5 
139 1 1 4.94075 3.84398 9.53824 -2 0 0 -32.8027 -2.05828 -8.3961 221.824 275.463 321.124 0 0 0 0.5 
849 2 2 4.96344 2.6578 9.8683 -2 0 0 -98.2564 -18.3706 -6.81342 -533.301 -1522.2 -420.454 0 0 0 0.5 
617 2 2 0.911686 9.18937 0.755092 15 0 1 422.148 -16.6569 -14.789 544.78 -949.447 -136.282 0 0 0 0.5 
970 2 2 3.71593 9.99153 1.12387 37 0 0 520.728 -4.20164 -14.9728 833.719 -1019.45 1002.59 0 0 0 0.5 
545 2 2 0.687653 8.69666 1.43219 23 0 0 330.004 -6.09715 -15.443 -3374.25 4019.32 -684.432 0 0 0 0.5 
213 1 1 1.41664 9.43291 1.91923 22 0 0 416.936 -20.8123 -25.3469 -1619.76 1037.36 -3212.55 0 0 0 0.5 
769 2 2 3.54058 6.97111 1.57428 10 0 0 149.893 21.9865 8.50737 2004.76 901.61 -1589.23 0 0 0 0.5 
996 2 2 3.80005 5.95992 1.08041 2 0 0 75.5063 -9.66417 -20.7682 397.824 411.028 892.567 0 0 0 0.5 
994 2 2 1.0243 7.25423 1.01784 8 0 0 175.643 2.4524 9.1081 -3258.38 -90.1697 -1027.92 0 0 0 0.5 
438 1 1 3.08132 7.92813 1.5045 5 0 0 209.367 18.4361 6.5263 533.999 -2276.13 1159.58 0 0 0 0.5 
64 1 1 4.59412 8.19919 1.20598 14 0 0 280.188 -0.322691 -1.41313 1130.35 757.048 1131.34 0 0 0 0.5 
91 1 1 3.83664 5.33472 1.88832 0 0 0 -1.21562 23.2847 -7.61769 77.8582 81.8827 -391.657 0 0 0 0.5 
923 2 2 3.74479 6.34401 1.94138 6 0 0 100.163 -17.8856 11.5311 -1732.92 -870.29 -640.844 0 0 0 0.5 
133 1 1 3.47277 9.09648 1.12882 12 0 1 318.863 36.0175 -17.2599 -419.947 1975.17 -319.18 0 0 0 0.5 
532 2 2 2.62361 6.71635 0.36006 19 0 0 97.4495 -16.3396 3.20082 -295.31 3087.47 1314 0 0 0 0.5 
71 1 1 3.51533 5.00162 0.192239 0 0 1 19.5583 -14.8257 2.70702 -99.277 462.623 -41.2879 0 0 0 0.5 
906 2 2 2.86853 7.50652 0.568749 7 0 0 204.151 -4.93975 -19.6601 -3492.73 227.779 -1818.23 0 0 0 0.5 
463 1 1 2.81758 9.60462 0.222265 21 0 1 486.682 -1.62795 37.1832 -4506.26 249.578 2167.25 0 0 0 0.5 
285 1 1 0.757394 9.98538 0.858559 21 0 0 492.79 10.1985 -21.8926 358.675 1420.71 -2571.98 0 0 0 0.5 
600 2 2 2.83204 5.15973 1.06131 1 0 1 -3.10476 0.0774788 -7.38861 58.4774 -0.775626 70.5171 0 0 0 0.5 
655 2 2 3.21958 8.87737 0.0759275 -39 -1 1 358.003 -0.319556 26.1976 1032.75 -3693.32 -2193.91 0 0 0 0.5 
985 2 2 3.61228 6.85986 0.613786 5 0 1 106.151 14.7128 -13.6377 4505.85 -3255.81 65.1487 0 0 0 0.5 
712 2 2 3.90583 8.67335 1.59419 10 0 0 308.109 2.80265 -10.7882 -555.649 -487.92 -469.415 0 0 0 0.5 
874 2 2 3.96496 7.69026 0.0130324 8 0 0 165.333 -12.9275 11.1303 19.2792 -910.251 -702.531 0 0 0 0.5 
191 1 1 2.44372 8.68843 0.269884 21 0 1 325.079 4.39638 18.9683 -1421.03 5829.99 -2421.26 0 0 0 0.5 
957 2 2 2.78441 8.15245 0.681021 12 0 0 270.433 2.33188 4.13686 891.372 -116.666 244.737 0 0 0 0.5 
333 1 1 2.65236 5.90413 1.53278 1 0 0 61.4286 20.6787 28.7634 1834.44 -472.53 317.047 0 0 0 0.5 
357 1 1 0.0421426 9.80189 1.29376 -13 -1 1 539.615 -21.1317 -1.03782 -350.841 -830.365 2464.72 0 0 0 0.5 
578 2 2 4.70675 7.65197 0.611462 5 0 0 181.369 6.52438 -4.97108 487.482 -1189.14 -189.784 0 0 0 0.5 
219 1 1 0.872741 6.44553 0.553223 4 0 0 117.603 -22.166 3.85808 -614.823 791.332 452.217 0 0 0 0.5 
631 2 2 2.07509 6.06725 0.899675 2 0 0 73.1305 -13.1297 2.2763 309.348 -548.414 1559.02 0 0 0 0.5 
541 2 2 1.15284 8.01842 1.46753 8 0 0 224.772 -8.25793 -18.4011 2857.06 -3240.29 -482.949 0 0 0 0.5 
990 2 2 0.0964509 5.06467 1.49141 0 0 0 14.7293 2.31736 -0.0752885 2206.11 -492.725 -436.768 0 0 0 0.5 
752 2 2 4.53749 5.62844 0.203504 1 0 0 16.4743 -1.3809 -10.6145 -238.702 672.201 1994.45 0 0 0 0.5 
605 2 2 1.35818 5.40162 0.646558 2 0 0 44.7966 2.8048 2.15277 -334.813 -744.658 -585.666 0 0 0 0.5 
950 2 2 0.125934 7.08941 1.76224 5 0 0 121.74 6.7556 -7.17854 2512.71 -1096.86 -925.221 0 0 0 0.5 
403 1 1 1.69148 6.65535 0.901006 3 0 0 106.895 7.46774 7.66056 2210.42 754.603 477.983 0 0 0 0.5 
866 2 2 0.50725 5.06619 0.602179 1 0 0 36.2269 -16.7492 -1.83643 -1487.36 2206.83 -147.891 0 0 0 0.5 
590 2 2 3.1648 5.89608 0.379856 3 0 0 41.8371 9.73592 -13.803 1884.08 -2852.34 209.612 0 0 0 0.5 
483 1 1 1.94626 7.46561 0.316403 6 0 0 181.657 17.9314 20.0154 2374.69 -3492.32 -1486.95 0 0 0 0.5 
887 2 2 3.79939 8.34621 0.583275 11 0 0 270.851 8.30018 22.5832 2550.26 -2267.63 2121.39 0 0 0 0.5 
582 2 2 1.05666 5.86155 1.41032 9 0 0 67.5014 -11.748 5.86292 406.622 -235.799 181.513 0 0 0 0.5 
305 1 1 2.04031 7.36367 1.36106 10 0 0 198.545 -2.79204 11.3547 -3108.7 412.755 -511.101 0 0 0 0.5 
891 2 2 4.59194 6.11664 1.62589 -1 0 0 83.4293 6.55758 -0.900984 -289.75 1511.78 -2246.8 0 0 0 0.5 
800 2 2 4.60638 9.88208 1.33615 36 0 0 504.072 -22.3934 -12.1934 1468.87 -2076.85 -1573.83 0 0 0 0.5 
883 2 2 1.7742 5.90942 1.8549 1 0 0 65.0475 7.77273 10.1556 240.478 81.8669 1101.98 0 0 0 0.5 
394 1 1 0.308533 6.12964 1.41162 2 0 0 73.0257 -2.50601 11.1456 -1211.09 512.503 796.735 0 0 0 0.5 