ITEM: TIMESTEP
12500
ITEM: NUMBER OF ATOMS
1000
ITEM: BOX BOUNDS xy xz yz pp pp pp
0 10 0
0 10 0
-0 10 0
ITEM: ATOMS id type type x y z ix iy iz vx vy vz fx fy fz omegax omegay omegaz radius 
16 1 1 1.84375 0.0128806 1.55258 -37 0 0 -449.449 4.0818 13.8744 1816.93 3422.41 1150.49 0 0 0 0.5 
765 2 2 0.00819781 0.15141 0.356582 46 1 0 -455.12 8.1356 23.8037 -2958.56 515.847 -779.586 0 0 0 0.5 
130 1 1 2.73043 3.36169 0.848365 -7 0 0 -126.765 -9.9531 -19.2654 -1507.08 504.496 1268.66 0 0 0 0.5 
903 2 2 2.05159 2.56186 0.847452 -7 0 0 -236.366 15.4104 3.4689 -194.466 77.8747 737.355 0 0 0 0.5 
583 2 2 2.05402 3.17266 1.70587 -18 0 1 -214.952 28.8113 -16.2701 36.7157 -450.532 409.101 0 0 0 0.5 
388 1 1 0.585727 0.833591 0.825855 -32 0 1 -389.299 -3.2947 26.5689 -951.98 481.725 -900.422 0 0 0 0.5 
898 2 2 2.49493 2.14707 0.233563 -14 0 0 -249.403 4.1707 -18.5628 -151.224 196.557 1363.39 0 0 0 0.5 
96 1 1 0.977501 2.00923 1.46653 -9 0 1 -251.465 1.98241 -6.5127 -42.1534 -415.685 -295.167 0 0 0 0.5 
487 1 1 0.981396 2.1847 0.336709 -34 0 0 -263.69 3.83959 0.152702 2851.94 -1132.2 -894.101 0 0 0 0.5 
15 1 1 2.34296 2.03514 1.58691 -24 0 1 -253.63 -4.22763 17.2124 164.687 -96.8021 -1009.03 0 0 0 0.5 
800 2 2 1.77034 1.07361 1.56467 63 1 0 -343.856 -3.51086 -2.85576 2221.83 -1429.47 519.01 0 0 0 0.5 
17 1 1 3.06233 0.912629 0.513265 -30 0 1 -335.383 -27.7531 -8.2246 -1130.17 3372.34 -1896.13 0 0 0 0.5 
196 1 1 1.46933 1.62063 0.864851 70 1 0 -258.095 -16.3748 -20.2247 104.279 380.665 -1363.03 0 0 0 0.5 
920 2 2 1.02751 1.08042 1.62691 -36 0 1 -349.998 -10.6578 3.74439 -343.95 272.058 -427.293 0 0 0 0.5 
680 2 2 2.47962 1.41752 0.889061 -23 0 0 -309.311 -6.3175 10.3628 -738.609 1266.27 -800.306 0 0 0 0.5 
627 2 2 3.66534 3.38668 1.11188 -1 0 0 -127.272 -6.30458 10.2542 -3068.82 1588.49 1911.51 0 0 0 0.5 
360 1 1 3.46739 0.75038 1.64603 -32 0 1 -437.603 24.5478 21.7661 -608.508 -1684.99 -884.053 0 0 0 0.5 
316 1 1 4.90404 1.57323 1.92877 -37 0 0 -284.635 -2.99819 18.0543 -2739.66 1949.33 191.521 0 0 0 0.5 
921 2 2 1.62663 0.48257 0.77691 -18 0 1 -385.973 -2.81216 -3.7446 1033.07 32.4754 615.696 0 0 0 0.5 
826 2 2 4.78347 1.29825 1.07919 48 1 0 -313.736 -20.0518 12.0028 796.526 702.033 -594.881 0 0 0 0.5 
27 1 1 0.505889 1.28423 0.069711 -23 0 1 -355.14 17.2152 -13.5792 -2384.89 1047.04 1464.72 0 0 0 0.5 
747 2 2 0.930515 0.160263 1.18345 -54 0 1 -385.807 -45.3921 12.0267 -2918.53 477.108 -1994.51 0 0 0 0.5 
32 1 1 1.09465 0.782169 0.215109 64 1 0 -384.97 3.39185 -1.35003 -700.623 528.241 1448.27 0 0 0 0.5 
674 2 2 2.07627 4.19971 0.136207 -3 0 0 -34.8609 -8.6539 -13.4826 -358.856 -414.49 -1393.74 0 0 0 0.5 
425 1 1 0.255738 1.09162 1.89403 -27 0 0 -353.992 -8.80049 -15.4528 -997.309 -231.616 -432.313 0 0 0 0.5 
881 2 2 2.5488 4.06995 1.24713 1 0 0 -39.1175 1.36596 16.9609 48.8456 431.844 403.465 0 0 0 0.5 
319 1 1 2.95787 4.09156 0.209652 1 0 0 -70.5422 -0.526669 4.51345 833.917 11.9617 650.296 0 0 0 0.5 
758 2 2 0.687828 3.38182 0.141381 -21 0 0 -188.242 0.0947155 18.6288 518.628 245.451 -894.289 0 0 0 0.5 
538 2 2 0.172898 2.53995 0.502214 60 1 0 -207.242 -1.83121 3.72218 -3412.85 1499.6 698.635 0 0 0 0.5 
590 2 2 2.1412 4.87353 1.4971 4 0 0 -10.7448 14.977 13.0632 -545.046 388.684 737.044 0 0 0 0.5 
531 2 2 0.158952 3.07704 1.77871 -18 0 0 -194.585 11.607 -13.5874 3026.68 1246.24 -2096.41 0 0 0 0.5 
415 1 1 4.83277 4.65281 1.5376 4 0 0 -17.7964 2.85847 14.5204 462.36 -1496.32 426.987 0 0 0 0.5 
582 2 2 0.611443 4.84453 1.45946 11 0 0 -24.1192 -11.4619 -10.0514 -408.863 1467.12 263.246 0 0 0 0.5 
136 1 1 1.2941 4.71192 1.08546 -15 0 0 -10.2129 -2.27064 2.30482 950.83 702.236 1183.34 0 0 0 0.5 
796 2 2 3.81875 4.18395 0.997077 6 0 0 -33.6546 -6.26872 -3.48521 198.828 -323.359 -483.934 0 0 0 0.5 
928 2 2 3.78336 4.97042 0.484907 -5 0 0 -8.06152 -1.57784 1.45093 -781.594 -26.7683 -520.716 0 0 0 0.5 
579 2 2 4.35812 2.50413 1.86254 -8 0 0 -199.457 -12.462 -3.84017 -98.3749 -155.409 -440.083 0 0 0 0.5 
138 1 1 4.65793 3.58363 0.393549 -6 0 1 -121.715 -0.634676 -15.8259 1749.12 -274.126 307.064 0 0 0 0.5 
10 1 1 3.97418 1.03363 0.695979 -23 0 1 -332.706 -23.8053 18.2867 -313.683 -564.063 -639.276 0 0 0 0.5 
231 1 1 3.4653 2.84557 1.90906 -22 0 1 -180.121 0.388609 29.7991 -769.399 953.743 -800.035 0 0 0 0.5 
882 2 2 3.33915 2.9145 0.233616 -6 0 0 -190.018 8.82663 -9.75191 450.238 385.519 -39.6603 0 0 0 0.5 
872 2 2 3.83199 3.8701 0.0853513 -4 0 0 -96.7529 5.85245 -24.3195 371.483 -367.911 -194.341 0 0 0 0.5 
819 2 2 4.24777 2.72985 0.89071 -10 0 1 -205.279 6.54258 5.14059 2110.68 -1983.88 -686.876 0 0 0 0.5 
264 1 1 1.49075 4.37783 0.4036 -1 0 0 -37.9052 -18.786 7.82655 -1133.82 -929.034 -354.753 0 0 0 0.5 
463 1 1 3.39339 0.19463 0.851807 44 1 1 -502.776 -2.70263 7.22117 457.552 -5013.92 3910.46 0 0 0 0.5 
555 2 2 3.80386 4.93493 1.47847 -6 0 0 22.1624 1.64045 4.65575 1510.05 -2403.19 -894.233 0 0 0 0.5 
86 1 1 0.604439 3.89979 1.47401 -12 0 1 -95.2279 -4.73707 -24.1924 -802.78 -1883.33 1143.24 0 0 0 0.5 
585 2 2 3.93818 1.61895 1.42923 -14 0 1 -257.393 -11.9299 -2.16058 -2685.63 1767.08 2052.28 0 0 0 0.5 
104 1 1 4.5317 4.69749 0.632994 -4 0 1 -15.261 1.02032 16.9955 1929.26 453.602 575.363 0 0 0 0.5 
400 1 1 4.62225 1.99967 0.659496 -18 0 0 -234.598 -9.32053 -17.8979 318.759 23.3795 -801.944 0 0 0 0.5 
636 2 2 4.86207 0.832839 0.368857 -26 0 1 -344.885 -8.3594 -2.31156 -3352.41 -343.872 -659.232 0 0 0 0.5 
392 1 1 4.803 3.8182 1.34181 -11 0 0 -90.6292 -16.909 -8.60525 -629.294 434.816 -1167.34 0 0 0 0.5 
984 2 2 1.78963 0.193408 2.85106 39 1 1 -421.574 -25.1521 38.0592 -2413.64 4061.9 -1366.64 0 0 0 0.5 
18 1 1 2.57834 4.19456 3.6581 -7 0 0 -89.8015 4.58559 5.69627 -865.162 1260.16 521.511 0 0 0 0.5 
430 1 1 1.76633 2.71172 3.07631 -8 0 0 -238.603 27.3439 0.265375 1607.96 -3176.24 -1278.12 0 0 0 0.5 
505 2 2 3.21771 0.0209181 2.77953 -19 0 0 -477.319 20.3331 20.894 -203.93 701.866 247.655 0 0 0 0.5 
629 2 2 2.33413 1.25081 2.22755 -31 0 0 -383.849 29.8667 31.9803 742.375 1390.63 545.078 0 0 0 0.5 
461 1 1 0.742837 2.62152 2.01505 54 1 0 -208.531 17.5662 5.9788 1690.56 -908.035 1572.58 0 0 0 0.5 
689 2 2 2.23508 3.16904 3.84971 -17 0 0 -153.641 -6.12598 -16.4486 740.768 928.573 291.198 0 0 0 0.5 
805 2 2 1.43392 1.70541 2.34324 -34 0 0 -295.644 12.239 -8.04747 1938.78 -239.225 -909.934 0 0 0 0.5 
606 2 2 0.575245 0.625897 2.65359 -22 0 0 -368.298 5.42431 11.4375 613.544 -879.677 -1040.98 0 0 0 0.5 
905 2 2 1.40453 3.52478 3.33428 -7 0 0 -96.3762 -2.31831 -35.7318 -1628.25 4334.47 3111.54 0 0 0 0.5 
784 2 2 2.5463 2.43702 3.25217 -31 0 1 -247.489 19.6742 -19.6108 1061.45 -2612.65 -335.721 0 0 0 0.5 
675 2 2 3.41971 4.27071 3.64108 -3 0 0 -65.9613 19.7974 -14.1777 -1608.42 -438.617 -2303.01 0 0 0 0.5 
697 2 2 2.10934 2.49382 2.32229 -15 0 0 -244.167 7.30837 2.96928 142.864 840.994 -443.147 0 0 0 0.5 
523 2 2 0.324608 2.00647 3.6992 -21 0 1 -230.684 -10.5842 -6.49647 -1525.49 2236.89 813.181 0 0 0 0.5 
703 2 2 4.17785 0.555479 2.28538 -44 0 1 -428.461 11.9952 9.72159 1609.94 -652.916 -1132.38 0 0 0 0.5 
142 1 1 0.683943 1.91489 2.51133 -21 0 0 -294.653 -4.32749 13.9309 3274.76 1118.09 2416 0 0 0 0.5 
159 1 1 1.48503 0.809019 2.4299 46 1 0 -361.165 -7.01243 4.37241 -622.095 287.653 -707.147 0 0 0 0.5 
667 2 2 0.998714 2.4307 3.29062 -38 0 0 -219.147 6.42892 2.55977 1770.41 -2099.19 873.414 0 0 0 0.5 
902 2 2 1.43598 1.32542 3.23188 28 1 0 -313.042 15.8918 -9.9064 2030.44 855.292 58.4076 0 0 0 0.5 
761 2 2 0.0847891 0.480806 3.65188 -33 0 0 -428.536 13.4038 32.0387 1917.73 286.785 -406.054 0 0 0 0.5 
212 1 1 2.62013 0.406728 2.10467 64 1 0 -459.283 7.64221 10.6031 -4627.04 3245.99 268.198 0 0 0 0.5 
428 1 1 2.06483 1.88345 3.83682 -11 0 0 -228.657 -28.034 -7.75373 370.144 450.182 -454.922 0 0 0 0.5 
204 1 1 1.52835 0.709139 3.73951 -55 0 0 -416.615 -3.44353 10.3977 515.574 -554.673 -154.744 0 0 0 0.5 
944 2 2 0.646708 1.37072 3.28794 -23 0 0 -312.835 -22.1003 -5.93511 -937.437 -1383.48 584.355 0 0 0 0.5 
886 2 2 4.81373 1.07159 2.9758 67 1 0 -366.087 -15.8422 22.4787 -473.048 323.995 -293.002 0 0 0 0.5 
101 1 1 2.96615 3.43808 3.35218 -4 0 0 -131.385 -2.01177 0.421987 1464.02 733.042 -1313.06 0 0 0 0.5 
151 1 1 2.7623 1.33084 3.14957 -14 0 0 -391.274 15.8999 3.99245 -1599.23 1725.1 -1844.4 0 0 0 0.5 
999 2 2 1.66136 4.96891 3.09245 -9 0 0 -0.0316082 -2.90603 -0.0557006 -94.0367 1246.07 -478.055 0 0 0 0.5 
416 1 1 0.219298 2.66144 3.01791 -15 0 0 -161.732 -4.02426 -14.7222 -2074.3 967.317 -243.096 0 0 0 0.5 
708 2 2 3.22587 0.830781 3.68421 -44 0 0 -415.996 34.6343 -7.57451 1357.46 151.04 1159.99 0 0 0 0.5 
600 2 2 4.04324 3.3612 3.0373 -3 0 1 -142.428 5.04801 -18.345 35.4365 -1109.24 2284.53 0 0 0 0.5 
954 2 2 3.5746 0.133718 3.56953 30 1 0 -451.546 17.3573 1.17418 895.286 -1545.99 1880.95 0 0 0 0.5 
731 2 2 1.70576 4.47173 2.29044 95 1 0 -36.1408 -19.6443 -0.992349 1093.92 -1309.69 -516.217 0 0 0 0.5 
772 2 2 2.6751 3.48409 2.43084 -12 0 1 -190.433 9.11273 -14.2446 318.079 -995.59 1301.49 0 0 0 0.5 
157 1 1 4.02958 3.78899 2.15623 -4 0 0 -91.7422 0.217385 27.5668 -35.4365 1109.24 -2284.53 0 0 0 0.5 
785 2 2 3.36666 2.21601 3.07107 69 1 0 -247.814 7.16613 -5.8548 1237.61 -333.41 -273.207 0 0 0 0.5 
249 1 1 3.65991 0.96642 2.78632 -29 0 1 -400.728 5.77552 26.6164 -1411.2 1119.67 1364.9 0 0 0 0.5 
279 1 1 2.76434 4.35575 2.43733 98 1 0 -45.2832 0.125342 -1.31776 119.407 744.495 -105.727 0 0 0 0.5 
62 1 1 0.652414 3.62756 2.62167 -15 0 0 -86.3586 -22.8467 -6.68344 304.809 -168.214 -21.4705 0 0 0 0.5 
95 1 1 0.557788 4.44452 2.25801 -3 0 0 -45.9278 2.78282 0.963738 1152.75 -1245.5 -732.16 0 0 0 0.5 
937 2 2 0.850404 4.29308 3.39256 -7 0 0 -74.4508 1.83334 -6.17323 1380 -1371.14 357.427 0 0 0 0.5 
457 1 1 0.442896 4.9205 3.00079 2 0 0 -9.65156 14.8647 3.52288 -500.232 2355.57 -988.794 0 0 0 0.5 
289 1 1 4.88702 0.121073 3.62082 -56 0 -1 -467.23 25.354 17.9726 -2789.51 3392.68 18.1373 0 0 0 0.5 
39 1 1 4.83496 1.94894 3.0088 -30 0 0 -298.791 8.85131 23.8633 886.136 1651.75 -1357.42 0 0 0 0.5 
889 2 2 1.77033 4.77107 3.99551 1 0 0 -22.1412 0.641062 -16.7659 260.52 -894.398 -800.799 0 0 0 0.5 
465 1 1 4.86194 4.73073 2.59658 6 0 0 16.7352 -10.8921 -32.2708 -209.147 48.4263 -258.79 0 0 0 0.5 
35 1 1 0.611238 0.0682907 2.00214 -35 0 1 -405.606 -23.3879 12.8916 16.6522 -153.618 190.254 0 0 0 0.5 
973 2 2 0.554218 1.43415 4.26286 -11 0 0 -271.524 -18.9768 5.32815 171.235 604.896 -1550.01 0 0 0 0.5 
648 2 2 0.635735 0.388891 5.91371 44 1 0 -464.541 20.2861 7.97115 -38.4617 602.235 3623.31 0 0 0 0.5 
411 1 1 0.717773 2.36834 4.50117 -14 0 0 -232.681 -0.964313 4.41609 1270.53 -2734.26 969.71 0 0 0 0.5 
374 1 1 4.52591 3.77 5.55217 -3 0 0 -91.2336 -9.3868 26.8027 -62.1675 -1461.8 727.549 0 0 0 0.5 
498 1 1 0.68619 1.22788 5.0514 78 1 0 -317.398 1.03629 -1.1457 -10.6012 23.035 1575.82 0 0 0 0.5 
396 1 1 2.23392 3.50818 5.93606 -7 0 0 -115.07 -10.9473 -1.14892 592.386 -1344.71 508.471 0 0 0 0.5 
262 1 1 0.95762 1.36843 5.90169 -42 0 0 -345.88 10.6092 -7.76638 1506.36 -1315.08 -1366.33 0 0 0 0.5 
616 2 2 2.70683 4.10904 5.05974 -2 0 0 -53.4495 11.1708 22.0707 717.834 838.646 2897.98 0 0 0 0.5 
767 2 2 2.18829 2.06984 5.00343 -18 0 0 -235.474 -18.7206 -2.25452 -1711.1 110.273 -1627.54 0 0 0 0.5 
586 2 2 1.22349 0.454637 4.4343 40 1 0 -389.541 -14.6105 39.8839 -103.332 3749.24 679.94 0 0 0 0.5 
201 1 1 2.6277 2.17956 5.95248 -26 0 0 -227.74 2.20108 9.83921 1486.01 -1745.81 888.89 0 0 0 0.5 
725 2 2 1.61759 3.53913 4.26964 -3 0 0 -120.222 6.04494 0.594913 2596.98 -615.403 -625.539 0 0 0 0.5 
750 2 2 0.795629 2.0862 5.37674 -26 0 0 -267.305 25.6195 25.2167 1579.47 -2626.64 -3450.41 0 0 0 0.5 
243 1 1 1.90844 2.6393 5.62615 -13 0 0 -197.677 -2.34716 3.84943 463.614 1582.26 2144.38 0 0 0 0.5 
873 2 2 2.76906 1.52354 5.22258 -13 0 0 -259.146 -32.257 5.38546 -323.094 -228.819 227.835 0 0 0 0.5 
418 1 1 0.345292 0.530164 5.3216 -17 0 0 -416.074 -1.56213 -15.5883 1602.91 -425.171 -3986.45 0 0 0 0.5 
522 2 2 1.63718 3.89273 5.27027 -5 0 0 -87.9607 18.4452 -3.51873 32.3092 323.782 1312.16 0 0 0 0.5 
240 1 1 1.60168 1.35441 4.64435 -36 0 0 -293.689 -9.34539 16.6244 -117.648 -977.711 -31.2152 0 0 0 0.5 
271 1 1 4.68124 2.62791 4.96273 -45 0 0 -223.68 6.27456 19.9395 374.443 -162.005 428.035 0 0 0 0.5 
370 1 1 4.7508 4.19587 4.11747 -2 0 0 -58.9826 3.65353 -15.9242 -283.646 725.531 -1022.58 0 0 0 0.5 
743 2 2 3.64457 3.48084 4.17687 -16 0 0 -168.596 24.2975 -20.5939 663.317 -658.584 104.552 0 0 0 0.5 
679 2 2 1.24031 2.88158 5.03672 -5 0 0 -138.29 -13.3504 0.132283 -3295.97 -725.986 -279.789 0 0 0 0.5 
383 1 1 1.94449 3.36674 5.06727 -7 0 0 -127.893 13.5386 1.87277 385.158 -1169.07 1124.23 0 0 0 0.5 
956 2 2 2.28436 2.92429 4.74423 -25 0 0 -178.536 -3.60076 -6.88916 -910.497 -898.682 24.5347 0 0 0 0.5 
611 2 2 2.1721 4.4201 4.55681 -3 0 0 -43.5811 -5.65385 -3.69737 87.0721 619.09 616.226 0 0 0 0.5 
67 1 1 2.67458 0.895113 4.43459 61 1 0 -398.049 18.0011 -6.75965 -740.016 86.355 1007.27 0 0 0 0.5 
510 2 2 3.48282 1.33592 5.70547 -13 0 0 -262.091 -24.764 -15.2872 -900.996 1948.44 1781.8 0 0 0 0.5 
646 2 2 1.53928 2.40029 4.22641 -10 0 0 -225.14 12.5613 11.2417 1808.63 -1258.91 -2508.14 0 0 0 0.5 
366 1 1 0.238178 4.14083 5.15463 -4 0 0 -49.1774 4.80197 -14.7607 192.359 1060.96 1578.02 0 0 0 0.5 
451 1 1 3.86419 4.32052 4.40768 3 0 0 -63.6129 6.27926 -6.47087 -134.414 439.155 -910.591 0 0 0 0.5 
7 1 1 3.24995 3.80373 5.90232 -6 0 0 -132.138 14.002 -5.32203 1191.72 742.416 727.595 0 0 0 0.5 
69 1 1 0.520886 2.9777 5.68774 -16 0 0 -142.593 -18.1448 -16.138 -749.062 2424.19 2481.12 0 0 0 0.5 
369 1 1 0.512832 3.26485 4.84519 -11 0 0 -140.722 -5.03033 -11.7131 -593.744 1672.58 -1634.53 0 0 0 0.5 
764 2 2 2.86877 2.53407 4.41849 -31 0 1 -220.754 5.92887 -9.52762 2974.99 -1725.32 -1569.84 0 0 0 0.5 
340 1 1 1.15643 4.57057 4.79619 -5 0 0 -23.8335 -2.25986 -3.04274 -1848.81 356.693 -660.131 0 0 0 0.5 
948 2 2 4.1029 2.87813 4.30163 44 1 0 -200.584 -15.283 -15.6944 616.12 -1140.59 -158.409 0 0 0 0.5 
816 2 2 1.24368 4.47382 5.76588 -5 0 0 -47.2708 10.3014 13.4932 2239.7 -107.459 -2134.33 0 0 0 0.5 
507 2 2 3.1821 1.76327 4.05375 -22 0 0 -261.091 -18.9132 -14.284 -2590.49 -181.266 -840.536 0 0 0 0.5 
678 2 2 0.390908 4.27729 4.25459 -4 0 0 -39.394 -0.576056 -5.14532 -1000.54 1274.72 218.31 0 0 0 0.5 
513 2 2 4.13615 1.70152 4.2877 -19 0 0 -306.867 7.7745 -32.4291 2777.24 -122.772 1305.41 0 0 0 0.5 
408 1 1 4.10205 4.39674 5.24013 -6 0 0 -55.3982 15.4019 -19.4645 555.514 480.036 34.5312 0 0 0 0.5 
291 1 1 3.24131 2.97061 5.24054 -16 0 0 -211.028 13.0764 3.10932 0 0 0 0 0 0 0.5 
719 2 2 2.27238 0.059344 5.01704 38 1 0 -477.108 22.9379 -4.8349 -249.355 1198.45 -267.897 0 0 0 0.5 
509 2 2 4.05986 2.99394 5.89352 -25 0 0 -191.378 10.2083 3.89949 494.344 777.303 -352.946 0 0 0 0.5 
939 2 2 0.976647 3.77579 4.18396 1 0 0 -80.3236 -14.6618 -9.3605 -2574.92 -961.886 -774.152 0 0 0 0.5 
869 2 2 0.109338 2.79419 4.00824 -18 0 0 -175.746 16.4978 -18.4118 842.56 -628.476 -2698.99 0 0 0 0.5 
424 1 1 3.85971 4.56132 5.88029 3 0 0 -15.6279 -15.0356 34.1462 -1368.74 -2783.31 185.436 0 0 0 0.5 
117 1 1 4.83725 1.50669 4.92419 -19 0 0 -299.197 6.80561 -28.9213 857.895 -869.755 533.258 0 0 0 0.5 
716 2 2 4.68297 1.55172 5.90168 -30 0 0 -283.943 3.84115 -11.3023 -1175.2 2625.49 -794.047 0 0 0 0.5 
364 1 1 2.89219 3.56999 4.47107 -6 0 0 -171.898 13.5699 -2.52199 -931.128 -1518.82 -1269.55 0 0 0 0.5 
79 1 1 4.0732 0.621276 5.43451 -10 0 0 -350.071 -15.9791 -6.89734 -3802.83 -39.4646 -1244.3 0 0 0 0.5 
216 1 1 3.97202 0.56609 4.44585 -30 0 0 -410.301 7.59302 -1.3802 -7.47157 -4.07523 -73.0089 0 0 0 0.5 
900 2 2 4.0845 1.827 5.25016 -11 0 0 -288.83 16.8614 -16.3029 -653.124 819.004 -604.193 0 0 0 0.5 
584 2 2 4.81449 0.725879 5.53918 -12 0 0 -350.744 11.6878 -4.34285 973.893 -711.91 -711.27 0 0 0 0.5 
259 1 1 1.33337 0.975233 6.36765 -27 0 -1 -375.222 -10.7679 -8.78922 876.069 -1387.8 -411.36 0 0 0 0.5 
802 2 2 2.37266 3.7889 7.84725 -6 0 0 -101.617 -1.51575 21.9836 -692.22 1245.42 1222.99 0 0 0 0.5 
448 1 1 1.77069 3.89913 7.28735 -3 0 0 -70.4293 -1.04615 4.84535 87.9002 -1839.04 -2894.63 0 0 0 0.5 
832 2 2 4.70385 3.03294 7.87911 -12 0 -1 -209.669 19.5404 -11.2151 -57.1637 344.306 -168.771 0 0 0 0.5 
908 2 2 2.70759 1.10256 7.77038 -20 0 0 -355.161 -3.34129 16.423 3632.8 -484.387 -403.489 0 0 0 0.5 
863 2 2 0.615269 2.67028 6.56809 -17 0 0 -196.802 -14.6725 13.1473 -1359.04 -142.346 -561.185 0 0 0 0.5 
569 2 2 1.11702 1.57735 6.88884 76 1 -1 -294.662 -1.36136 22.0484 1366.26 602.943 822.993 0 0 0 0.5 
565 2 2 1.46877 2.4175 6.42493 -9 0 0 -234.237 -8.47642 -2.96974 396.074 1630.72 -1382.14 0 0 0 0.5 
265 1 1 1.1011 1.77827 7.78659 -12 0 0 -263.065 -9.64662 23.0801 -65.8998 883.43 935.259 0 0 0 0.5 
502 2 2 1.72414 0.494898 6.87907 -29 0 0 -416.125 -16.9964 6.56464 887.931 -1170.08 399.563 0 0 0 0.5 
862 2 2 1.92021 2.75712 7.44897 -29 0 0 -197.526 -2.11755 19.1526 -1206.51 -413.695 -20.4112 0 0 0 0.5 
918 2 2 2.00237 1.73989 6.5596 -8 0 0 -291.036 7.82148 -9.61789 2024.39 -2285.27 -1078.53 0 0 0 0.5 
492 1 1 1.02009 0.220496 7.84225 -58 0 0 -493.982 3.22003 7.59488 -116.906 2845.78 377.769 0 0 0 0.5 
251 1 1 1.40027 3.21274 6.82983 -6 0 0 -165.18 -1.94698 12.8716 3306.25 -814.93 458.641 0 0 0 0.5 
352 1 1 0.400443 1.76621 6.42947 -9 0 0 -279.724 -6.75851 9.49715 -3605.8 1989.73 1258.45 0 0 0 0.5 
467 1 1 1.99103 1.43337 7.40704 69 1 0 -314.316 -1.82275 -9.12504 -1772.66 805.826 -651.26 0 0 0 0.5 
329 1 1 0.633116 0.714559 7.16569 -20 0 0 -428.185 12.3297 -19.2618 2771.3 327.134 -1245.15 0 0 0 0.5 
406 1 1 4.84252 1.58201 6.95671 -22 0 0 -307.87 1.83604 14.5047 -778.869 149.122 -1527.96 0 0 0 0.5 
924 2 2 3.87289 2.91379 6.95089 -14 0 0 -177.295 -16.0987 16.2464 -1.91266 -1898.81 -898.463 0 0 0 0.5 
992 2 2 1.93218 0.309049 7.82891 -47 0 0 -488.991 10.098 7.65191 615.349 -32.5034 711.323 0 0 0 0.5 
929 2 2 3.55496 3.65705 6.99514 -4 0 0 -126.018 25.3817 20.4836 1353.57 700.848 673.592 0 0 0 0.5 
187 1 1 2.85769 1.76143 7.04824 -25 0 0 -304.968 -2.389 -8.86999 -307.723 -1648.04 1789.46 0 0 0 0.5 
232 1 1 1.02951 2.7546 7.90734 -11 0 0 -196.26 14.1317 -0.138441 2276.58 -250.198 -29.8094 0 0 0 0.5 
608 2 2 2.1069 4.1481 6.48651 -4 0 0 -88.7546 10.7037 -4.66471 -155.894 -663.718 -1980.65 0 0 0 0.5 
343 1 1 1.05959 3.89464 7.52577 -7 0 0 -76.7013 -14.5612 6.01177 -360.304 -358.485 -191.327 0 0 0 0.5 
225 1 1 0.574027 3.33897 6.90561 -11 0 0 -106.507 -0.664152 11.7115 -2865.56 824.72 -581.337 0 0 0 0.5 
229 1 1 0.246904 2.5988 7.88767 -15 0 0 -188.044 -5.48413 8.24334 -1849.49 -143.939 397.721 0 0 0 0.5 
47 1 1 1.22966 3.70613 6.23212 -24 0 0 -97.8415 -6.67057 -12.7602 -439.815 434.585 -1006.96 0 0 0 0.5 
263 1 1 3.976 4.55212 6.82917 -9 0 0 -44.696 5.5888 19.2431 -2003.52 2725.05 2015.99 0 0 0 0.5 
347 1 1 2.93909 4.84751 6.72894 2 0 0 -7.80539 -5.5688 -4.97563 901.858 281.361 460.019 0 0 0 0.5 
890 2 2 0.0720023 3.61644 6.1189 1 0 0 -75.3909 1.60734 -14.2211 164.787 827.404 31.3244 0 0 0 0.5 
351 1 1 0.191804 3.89179 7.42807 -5 0 0 -83.1572 -27.0842 12.6672 -214.901 356.578 718.166 0 0 0 0.5 
222 1 1 3.25707 1.24176 6.50344 79 1 0 -313.382 -20.4548 -10.5574 -649.519 -2341.32 1324.9 0 0 0 0.5 
384 1 1 3.85757 1.5579 7.23154 -23 0 0 -329.961 0.758715 -8.28479 -130.89 955.897 929.471 0 0 0 0.5 
476 1 1 1.57857 4.74759 7.67105 5 0 0 -31.6772 -9.31393 -11.6983 -809.727 1722.05 2616.76 0 0 0 0.5 
241 1 1 3.69242 2.26589 7.87539 68 1 0 -300.464 23.3708 18.4321 -41.0568 -971.659 -796.232 0 0 0 0.5 
668 2 2 3.19518 2.93728 6.25156 -8 0 0 -195.315 -7.69811 21.5584 -1281.99 2245.19 -835.285 0 0 0 0.5 
951 2 2 2.77113 3.73953 6.71398 -4 0 0 -124.785 -10.2728 18.5669 388.948 -1131.96 -499.637 0 0 0 0.5 
348 1 1 0.376551 4.60085 6.13243 -4 0 0 2.89276 1.56046 3.22607 -2955.37 -1724.83 318.141 0 0 0 0.5 
235 1 1 4.5841 2.30391 6.45934 -15 0 0 -240.484 21.5015 -10.6878 -476.803 231.279 -158.611 0 0 0 0.5 
927 2 2 3.36811 4.84146 7.63053 2 0 0 -31.1707 11.9239 12.9492 5.33352 -1005.31 221.88 0 0 0 0.5 
860 2 2 0.102748 4.66789 7.07066 3 0 0 -17.7718 -7.30987 -6.76234 2056.78 -1043.97 2055.33 0 0 0 0.5 
135 1 1 3.11908 4.11452 7.99194 -13 0 -1 -105.198 15.4657 32.0869 654.758 -1121.71 -399.105 0 0 0 0.5 
326 1 1 1.74896 4.71441 6.73568 6 0 0 -28.0169 20.5539 20.7392 2590.48 496.556 321.702 0 0 0 0.5 
272 1 1 3.73244 0.391306 6.91639 -45 0 -1 -408.412 -1.94267 10.5489 466.918 1766.05 1482.55 0 0 0 0.5 
260 1 1 3.6924 2.13929 6.42005 -45 0 0 -258.457 -17.7565 -11.7528 1688.59 -628.724 1079.37 0 0 0 0.5 
148 1 1 4.48615 3.91005 6.68656 -9 0 0 -111.071 2.7331 1.60048 -1261.55 -297.489 -2446.05 0 0 0 0.5 
876 2 2 2.84422 2.56359 7.25718 -6 0 0 -227.915 11.5336 -31.3099 1477.72 -918.959 -306.315 0 0 0 0.5 
839 2 2 2.79367 3.28275 7.63112 -19 0 0 -159.993 1.92301 -0.428007 3379.99 -237.667 57.9514 0 0 0 0.5 
4 1 1 2.88723 0.570159 7.10595 -54 0 -1 -416.662 -23.6102 0.189137 -34.8003 1391.02 -1684.23 0 0 0 0.5 
745 2 2 1.82544 4.18516 8.3092 5 0 0 -70.19 -3.78584 30.5472 -1438.9 2586.84 1226.5 0 0 0 0.5 
402 1 1 2.32258 0.00386021 8.68813 -49 0 0 -480.689 4.56657 -5.23329 400.502 865.809 711.94 0 0 0 0.5 
777 2 2 2.33497 0.198358 9.65774 -38 0 -1 -443.497 -1.64036 7.71321 886.569 -245.162 -358.1 0 0 0 0.5 
372 1 1 2.58691 0.891779 8.69761 -19 0 0 -389.588 -1.13264 24.6237 -938.491 -304.854 1928.05 0 0 0 0.5 
335 1 1 0.199361 2.76971 9.17211 -22 0 0 -234.921 -0.540766 -13.2323 2635.62 -3452.79 -863.015 0 0 0 0.5 
820 2 2 3.22928 2.45237 9.4006 -20 0 -1 -256.175 25.2847 11.4241 -575.784 664.863 -952.002 0 0 0 0.5 
619 2 2 2.31025 2.77005 8.3622 -5 0 0 -203.528 -5.12058 -5.37092 757.763 857.462 2218.19 0 0 0 0.5 
34 1 1 1.34003 0.995733 8.99176 58 1 0 -379.533 -4.52147 -12.9457 971.967 -2685.68 -680.655 0 0 0 0.5 
205 1 1 0.914374 0.0371033 8.82821 -54 0 -1 -483.867 -19.866 2.29979 859.763 -1345.72 -1601.06 0 0 0 0.5 
597 2 2 3.65669 1.61917 9.54124 -14 0 0 -320.892 4.42925 13.6067 289.404 1350.8 -627.01 0 0 0 0.5 
480 1 1 2.3296 2.12464 9.09901 -14 0 0 -258.717 -3.39046 7.89164 -3193.84 1127.89 705.005 0 0 0 0.5 
845 2 2 4.63226 4.81884 9.02616 -14 0 0 -58.9104 21.2936 -2.68661 69.8403 505.003 452.12 0 0 0 0.5 
323 1 1 0.0794287 1.18086 8.3931 -20 0 -1 -395.498 23.0933 -6.69519 2095.7 -2154.12 1558.34 0 0 0 0.5 
609 2 2 2.58372 3.74998 9.2415 -4 0 -1 -72.2281 -8.32602 -10.331 195.141 -1183.1 464.618 0 0 0 0.5 
762 2 2 0.647176 0.509256 9.49325 -40 0 -1 -414.47 -8.8558 2.1973 -875.612 2067.7 462.94 0 0 0 0.5 
380 1 1 0.793362 2.25649 9.32886 -14 0 0 -252.918 15.9163 4.78643 1362.66 -311.597 351.059 0 0 0 0.5 
640 2 2 1.58342 0.433994 9.67938 -33 0 0 -442.928 -16.963 9.53606 1850.74 -1283.5 -1789.17 0 0 0 0.5 
760 2 2 1.67042 2.30429 9.74056 -15 0 0 -258.967 10.3748 -8.26572 619.424 -1004.49 484.089 0 0 0 0.5 
982 2 2 2.33268 4.56717 9.08082 -4 0 -1 -34.2303 12.9019 5.81845 552.678 333.455 -3.8101 0 0 0 0.5 
533 2 2 2.75924 1.36924 9.75072 70 1 -1 -323.83 -8.69469 10.534 281.928 -981.188 -1765.98 0 0 0 0.5 
790 2 2 0.276334 0.461471 8.23305 -28 0 0 -479.786 -11.9156 1.71494 -1589.84 -1034.57 467.323 0 0 0 0.5 
775 2 2 1.98542 1.44794 8.32917 -38 0 -1 -317.033 3.28757 1.86019 -3501.65 2559.09 171.246 0 0 0 0.5 
195 1 1 3.38956 0.373913 8.44169 -29 0 0 -481.125 0.124676 -16.4231 1273.26 479.243 -2237.27 0 0 0 0.5 
134 1 1 1.45454 3.10133 9.91097 -13 0 0 -193.527 21.569 -9.59963 728.101 1191.42 -56.823 0 0 0 0.5 
66 1 1 2.38862 3.22235 9.83759 -9 0 0 -184.771 -0.634056 16.947 442.153 293.989 -308.382 0 0 0 0.5 
563 2 2 4.36827 3.73558 8.91012 -4 0 0 -113.083 6.88577 3.41038 2682.66 -664.71 -129.896 0 0 0 0.5 
776 2 2 0.83888 1.46866 9.26788 -26 0 0 -352.285 4.32719 -15.1419 -1707.97 658.606 69.0178 0 0 0 0.5 
581 2 2 4.09252 4.6982 9.69616 4 0 0 -51.3156 0.201709 -1.56676 -1698.56 538.76 -1128.99 0 0 0 0.5 
310 1 1 1.8095 3.29345 8.54259 -8 0 0 -168.852 13.0161 9.30499 787.277 -267.912 502.995 0 0 0 0.5 
865 2 2 4.1107 2.38226 9.90241 -19 0 -1 -235.416 13.3562 -4.76582 762.396 -2465.17 -1465.1 0 0 0 0.5 
562 2 2 1.84122 1.4184 9.75108 34 1 0 -333.849 -12.73 -3.6814 -196.989 -500.248 6.24797 0 0 0 0.5 
995 2 2 3.12279 1.88409 8.78024 -26 0 0 -322.602 15.3369 7.33251 2769.8 209.908 -779.634 0 0 0 0.5 
376 1 1 4.74679 0.354057 9.63241 -20 0 -1 -415.597 -12.5243 -30.1946 -4896.42 -1005.85 4725.19 0 0 0 0.5 
119 1 1 0.822165 4.66646 8.91773 -5 0 -1 -32.7839 -11.6783 1.91118 365.959 43.3755 65.2092 0 0 0 0.5 
359 1 1 0.847365 3.99501 9.53114 -6 0 -1 -68.2223 -6.30118 9.19178 14.4554 -152.746 1156.63 0 0 0 0.5 
612 2 2 1.60024 4.96544 8.79902 5 0 0 -26.5038 25.9677 1.98544 1046.99 -732.954 849.613 0 0 0 0.5 
672 2 2 4.12859 4.40063 8.25685 -14 0 -1 -73.6766 -4.35558 -4.61226 -705.549 662.143 -645.945 0 0 0 0.5 
592 2 2 3.63739 3.75262 8.97655 1 0 -1 -106.038 -18.1841 -2.06403 -3098.2 72.2479 281.595 0 0 0 0.5 
749 2 2 3.15388 0.216673 9.36282 -69 0 0 -455.053 11.9533 -7.9771 1385.68 44.8926 -217.832 0 0 0 0.5 
223 1 1 0.652235 4.18573 8.23206 -11 0 -1 -80.8749 5.50049 -5.03919 -831.699 22.3426 501.977 0 0 0 0.5 
120 1 1 3.58973 1.26177 8.61606 -34 0 -1 -361.902 -0.587526 -4.03941 1375.78 -2254.56 318.835 0 0 0 0.5 
30 1 1 3.46997 4.78013 8.89508 -3 0 0 -48.7191 -5.20455 27.1009 72.1149 -39.4967 -73.3108 0 0 0 0.5 
110 1 1 0.892075 3.4666 8.76245 -5 0 0 -125.702 -15.403 6.63843 -2701.48 161.213 397.138 0 0 0 0.5 
573 2 2 2.72979 2.04248 8.0035 -11 0 0 -306.768 8.03089 -12.6248 1761.39 -2459.23 -2588.78 0 0 0 0.5 
935 2 2 4.21029 2.65411 8.69156 -7 0 0 -195.754 -6.81734 12.5351 -2374.48 1192.89 1171.49 0 0 0 0.5 
127 1 1 4.21216 0.960471 9.7191 -18 0 0 -347.772 -9.12715 6.51304 -2174.09 1795.66 82.6691 0 0 0 0.5 
857 2 2 0.902786 4.8785 9.96519 3 0 -1 -14.9253 3.07073 4.5054 -1139.64 205.645 -716.991 0 0 0 0.5 
596 2 2 4.87078 1.90099 9.30288 -20 0 0 -308.616 10.0719 11.8816 -1615.57 1377.31 -718.26 0 0 0 0.5 
317 1 1 4.83038 4.35246 9.86092 -10 0 0 -50.0624 8.38924 -2.86115 1523.47 -272.403 -8.32902 0 0 0 0.5 
958 2 2 4.90344 1.02804 8.57795 43 1 0 -392.871 -8.0496 31.677 -323.396 146.075 300.155 0 0 0 0.5 
11 1 1 4.96003 2.27746 8.32166 -13 0 -1 -250.498 -3.65469 -4.72841 2360.96 -722.493 -396.373 0 0 0 0.5 
969 2 2 0.00493798 7.55318 0.982764 26 0 0 255.086 0.280637 -10.4586 -1021.69 765.468 194.797 0 0 0 0.5 
885 2 2 4.15533 5.93647 1.39109 3 0 0 65.2781 6.3947 -13.5253 -1473.38 844.06 -499.621 0 0 0 0.5 
815 2 2 0.538962 8.88056 1.67586 23 0 0 421.837 -4.6215 -9.75204 -3445.47 1631.68 485.083 0 0 0 0.5 
782 2 2 4.58739 8.88742 0.18619 37 0 0 375.868 2.49377 20.373 2340.24 -287.613 1458.58 0 0 0 0.5 
203 1 1 0.672484 9.70488 0.23496 -33 -1 0 484.725 -16.8458 -5.04309 2504.72 -1463.38 -398.581 0 0 0 0.5 
489 1 1 4.02482 9.98948 0.496487 28 0 0 490.344 10.4021 -12.9326 1262.52 -710.284 158.713 0 0 0 0.5 
160 1 1 2.57412 7.10156 0.973064 26 0 0 178.389 6.64332 7.68571 381.815 -84.2733 -2453.27 0 0 0 0.5 
949 2 2 3.80871 9.29213 1.17673 37 0 1 433.294 19.1471 -2.22827 -1016.51 4872.01 -3208.35 0 0 0 0.5 
712 2 2 3.40951 8.33312 1.68156 26 0 0 313.202 3.0594 3.99351 -655.504 1235.53 -1691.52 0 0 0 0.5 
244 1 1 4.15608 6.89765 1.96715 -88 -1 0 177.82 -19.5074 -8.30877 639.86 -274.551 -1973.64 0 0 0 0.5 
113 1 1 3.2115 6.25869 0.396575 5 0 0 114.296 0.663665 -10.0732 -469.404 -565.699 227.516 0 0 0 0.5 
541 2 2 4.19497 7.84094 1.76379 20 0 0 234.434 -0.787822 -0.793389 2922.84 -2632.76 568.262 0 0 0 0.5 
694 2 2 3.77127 8.95039 0.306037 -62 -1 1 379.876 -19.3484 -9.87171 3555.85 -2015.54 131.353 0 0 0 0.5 
859 2 2 0.274303 8.23054 0.161392 -29 -1 1 340.274 4.15492 -14.4097 -1151.2 2477.84 431.588 0 0 0 0.5 
512 2 2 3.24293 7.95171 1.02811 3 0 0 275.319 -7.88142 18.0738 2393.72 -1714.11 48.8885 0 0 0 0.5 
81 1 1 2.08787 6.69336 1.94209 10 0 1 153.819 -8.06127 33.355 1557.61 -3004.92 295.886 0 0 0 0.5 
880 2 2 4.68274 5.47949 1.62924 18 0 0 33.5838 13.4436 11.5323 3222.43 -1236.45 -639.85 0 0 0 0.5 
665 2 2 0.577463 6.74597 0.0599095 3 0 1 162.826 -12.5742 6.33719 -880.73 3263.95 510.56 0 0 0 0.5 
981 2 2 3.27468 6.94317 1.65357 19 0 0 169.013 -4.87288 -24.7981 969.358 -365.227 617.815 0 0 0 0.5 
230 1 1 1.06801 8.72046 0.4975 41 0 1 364.336 21.5829 -5.55281 -1434.31 -616.889 -826.703 0 0 0 0.5 
851 2 2 2.10741 9.44212 0.0521229 -30 -1 1 477.26 -10.8676 -7.37144 -1030.52 2432.6 -1566.95 0 0 0 0.5 
109 1 1 2.11497 5.79397 1.96634 3 0 0 79.766 -18.3115 39.9834 -517.826 -472.918 543.905 0 0 0 0.5 
791 2 2 0.627493 7.01607 1.96861 9 0 0 218.404 4.41375 -2.02935 -1822.35 1260.15 -75.2337 0 0 0 0.5 
199 1 1 2.25156 8.78388 1.40484 -75 -1 0 351.512 5.08711 9.29833 -2056.42 122.151 1210.61 0 0 0 0.5 
808 2 2 1.90256 9.27562 1.94552 29 0 0 386.227 25.8149 20.7233 50.3384 -1849.59 1954.71 0 0 0 0.5 
897 2 2 1.28327 6.35629 1.69434 8 0 0 157.592 -24.4404 31.5408 1135.28 -4234.26 2197.09 0 0 0 0.5 
575 2 2 0.701658 7.64617 0.217145 51 0 0 299.462 -11.7114 -13.8196 1980.33 -2650.44 95.9276 0 0 0 0.5 
419 1 1 1.85988 7.91355 1.57093 10 0 0 289.459 17.1273 4.3352 2288.63 24.3961 539.314 0 0 0 0.5 
248 1 1 2.24557 8.69619 0.263496 -67 -1 1 365.925 -10.2354 -11.0936 -1307.81 642.955 240.25 0 0 0 0.5 
833 2 2 0.630585 7.08375 0.883602 11 0 0 243.269 -12.2314 5.83038 486.328 1283.84 -748.293 0 0 0 0.5 
781 2 2 1.5675 7.91638 0.719653 34 0 1 307.801 -15.3453 -17.7295 -161.784 394.673 314.102 0 0 0 0.5 
92 1 1 0.440338 5.84962 0.457661 2 0 1 54.9507 16.886 -4.88263 2219.55 -2902.51 136.098 0 0 0 0.5 
610 2 2 1.5739 6.47042 0.524081 10 0 0 148.346 -5.44933 -14.2363 -1134.28 662.674 -1755.97 0 0 0 0.5 
923 2 2 4.0131 6.03861 0.183555 10 0 0 124.635 -17.4886 2.84581 -1159.41 1849.84 834.481 0 0 0 0.5 
82 1 1 3.82871 6.5326 1.00679 9 0 0 121.166 26.2819 -37.1934 1167.19 1302.74 -1078.12 0 0 0 0.5 
486 1 1 1.2859 8.53645 1.37095 31 0 1 349.926 14.9827 15.4721 2536.14 -293.964 -4565.23 0 0 0 0.5 
242 1 1 3.06861 9.2284 0.75126 -44 -1 1 432.129 -18.4317 -1.6501 -50.7944 1137.36 323.355 0 0 0 0.5 
763 2 2 0.946876 6.52223 1.19611 3 0 1 196.517 -36.953 -5.12697 -2234.09 -1127.86 666.775 0 0 0 0.5 
103 1 1 2.48363 5.18051 0.537914 -1 0 0 27.6382 -15.4688 15.8563 466.778 528.84 1175.72 0 0 0 0.5 