# vtk DataFile Version 4.2
Generated by LIGGGHTS
ASCII
DATASET POLYDATA
POINTS 1000 float
4.34772 1.40676 0.526683 1.82471 1.93938 0.74228 4.20238 4.04031 0.698157 
3.11713 3.35663 0.409711 0.712406 1.79698 1.73861 0.512047 1.7514 0.0469502 
3.13012 2.31586 1.09165 1.15283 2.27498 0.9375 4.15737 0.434594 0.692021 
1.43628 3.30636 1.13745 2.0053 1.24521 0.418452 0.33535 2.4215 0.429235 
2.36729 3.99112 0.352583 0.538552 3.053 1.88557 1.59669 0.673823 1.1767 
1.07854 3.40673 0.123446 2.61678 3.03845 1.22582 4.36329 4.01792 1.99428 
3.05436 1.2228 1.58837 0.480263 2.48595 1.3246 1.56529 1.51808 1.67832 
2.06517 3.0618 0.461917 3.18058 3.77921 1.70709 1.99362 0.37976 0.240585 
0.430736 4.95351 1.73469 3.58956 2.35582 1.85117 3.51384 0.600327 1.37626 
2.53622 2.45619 0.00336202 1.60279 4.2802 1.28889 0.482455 3.19209 0.878869 
2.87353 1.58411 0.269288 1.1979 4.47763 0.0366303 4.58554 4.85331 1.39904 
4.3698 2.54947 0.281052 0.806177 4.95583 0.56813 3.74928 4.49904 1.2894 
0.868352 4.31331 1.86803 3.82951 3.32235 1.35556 4.32291 2.3324 1.23563 
0.594575 4.02937 0.455927 0.2515 4.13512 1.18253 3.4663 2.51747 0.284663 
4.89207 1.81074 1.63476 3.39069 3.069 3.27035 2.70391 3.64115 2.44773 
4.16743 2.99845 2.6521 4.13971 0.545326 3.68666 4.35713 4.85716 3.30402 
2.59523 2.76518 3.23771 0.335059 1.02832 2.20874 2.60772 4.62839 2.36927 
0.0951715 2.10449 2.28173 1.60949 0.0206165 3.87012 3.75457 1.48375 2.89627 
1.77996 4.10773 3.18294 1.46454 1.86718 3.39725 4.85253 0.560767 3.35737 
1.01984 2.14887 2.61557 4.09679 3.81131 2.89022 1.66785 0.713354 2.24738 
3.1401 1.79042 3.89982 4.81659 2.9374 3.47889 1.68105 3.96954 2.14626 
2.69631 3.89877 3.35422 0.5177 2.06355 3.43355 2.61161 1.996 3.0686 
1.83478 1.61806 2.56487 0.618632 2.89641 2.85139 0.172463 0.361736 2.79855 
1.95404 2.50885 2.06327 1.84004 4.90345 3.65892 3.24718 2.98042 2.29424 
3.99154 0.595367 2.85219 0.924603 4.79392 2.66421 2.98331 1.65282 2.41418 
4.71017 1.3458 3.07627 3.53769 4.59547 2.62473 0.269732 4.44465 3.71293 
3.63446 2.32219 3.30553 3.60021 3.9003 3.63846 3.14487 1.05414 3.92371 
1.45861 3.12167 2.06902 0.924469 3.8286 2.66685 0.0373243 3.61458 2.80843 
4.54279 4.87458 2.43615 4.95543 2.60721 2.45682 2.17858 1.42071 4.88965 
2.60266 2.34889 4.9651 1.85127 2.6371 5.8166 0.0458224 1.18019 5.43566 
0.358643 2.54044 4.47824 2.11184 3.50837 5.03512 2.46428 3.29986 4.03934 
1.61175 1.80876 4.28092 1.13256 0.967677 5.55349 3.62902 2.53459 4.55533 
2.31347 2.77415 4.76696 0.00105341 1.06971 4.49561 1.56215 3.31418 4.04621 
2.04284 0.892663 5.82556 2.1441 0.390081 4.99929 1.62381 0.798536 4.29758 
3.90563 4.09945 4.63771 3.97014 0.513572 5.65433 1.39147 2.06872 5.09896 
1.01941 2.13511 5.78651 1.98674 4.48695 5.96929 3.95587 2.62642 5.68703 
0.410932 2.64913 5.79686 1.21272 3.63585 5.23137 1.42447 4.56922 5.25961 
4.0829 4.50141 5.8824 3.89252 1.05965 4.97844 0.5532 4.47358 5.71932 
4.39352 2.25705 4.049 3.21993 3.12063 4.24839 3.09151 0.19656 4.84911 
2.8107 0.659643 5.47807 2.84392 4.27372 5.35318 0.0559692 3.39288 5.52886 
4.49151 2.78045 5.10854 1.14808 4.90515 4.42894 0.326829 4.74544 4.85935 
3.89698 1.87747 5.46442 1.07368 4.00898 4.25212 3.51942 3.02929 5.39899 
2.84121 3.35241 5.62165 4.56091 0.403629 4.44544 3.62583 4.6902 5.08363 
2.97813 3.9174 4.58143 4.50327 0.0425591 5.26259 3.05992 1.77001 5.15694 
3.70002 0.776869 4.13235 3.74635 1.66485 4.55735 3.71903 1.18768 5.90218 
4.261 3.4406 4.87186 4.62029 1.61885 4.34871 4.89078 4.49104 4.08189 
2.4403 2.17002 4.00214 0.670686 1.27554 7.7331 4.59954 4.43359 7.88904 
0.392462 1.90147 6.97696 1.21711 0.191296 6.42925 0.473409 1.07976 6.34159 
2.29122 1.29833 6.77861 1.47915 0.554921 7.17671 1.87757 3.12094 6.56866 
2.71879 2.98865 6.79522 1.96515 0.106053 6.27717 2.5445 4.11579 7.16713 
0.626158 0.604814 7.21504 1.21638 2.28096 6.65216 1.31501 3.22279 7.35339 
2.34801 2.14447 6.44451 1.7702 4.08781 7.77742 0.547396 2.09687 7.85094 
1.7007 1.78533 7.12401 2.09914 3.08648 7.45423 3.14522 4.43576 6.22649 
3.89509 3.5329 7.27426 1.40121 3.79382 6.55674 2.30858 2.27744 7.51545 
2.8666 0.852143 6.29753 1.37258 1.09695 6.49915 3.33696 3.88548 6.90513 
1.85815 4.6214 6.91093 0.185635 4.57695 7.8338 4.16957 1.72064 7.46878 
0.474441 2.87718 7.27101 4.70566 3.9348 6.14831 3.16084 1.26961 7.49583 
3.68972 1.05384 6.77795 0.533043 4.79086 6.61893 1.27847 4.9808 6.21949 
4.6626 1.86271 6.65506 3.54636 3.26331 6.29825 0.762592 3.55278 6.03161 
0.946443 3.75145 7.98272 3.14539 1.9664 6.08185 4.50997 0.987988 6.40236 
0.170411 3.65734 7.72013 1.04837 4.54012 7.33934 3.92566 2.73642 6.64544 
3.06634 2.15596 7.06586 3.39333 0.209254 6.64749 0.52418 3.82327 6.87255 
4.24735 0.802018 7.62789 4.28458 4.91474 7.0765 4.37142 2.75648 7.4816 
4.41982 0.0864541 6.58832 4.59073 2.66018 6.23554 1.06346 2.64789 9.66185 
1.44113 1.45133 8.44366 0.0446073 0.758453 8.44504 2.16505 1.70686 9.56002 
1.79832 0.814976 9.31186 1.84809 2.91029 9.08544 4.20746 1.01472 8.62885 
0.892241 1.74219 8.93764 0.74852 0.151891 9.70439 2.5147 3.23934 8.25497 
0.203402 0.921659 9.42037 4.42449 3.86228 9.80625 1.28169 1.6055 9.83313 
1.49213 2.34838 8.04926 4.61231 1.76018 9.58636 2.18678 1.56669 8.55159 
3.79116 0.175175 8.23907 4.71836 0.431819 8.31065 1.56267 4.05541 9.48089 
4.08338 3.30987 8.19381 0.950332 2.90598 8.23648 3.93643 0.370566 9.19696 
0.793493 0.567082 8.83519 4.25495 3.18569 9.1232 2.38427 2.37264 8.8711 
0.360059 2.46457 9.07876 2.09697 4.26824 8.75681 1.38799 3.38697 8.974 
1.30733 0.723108 8.0242 3.88424 4.51566 9.75266 2.9752 2.19981 8.11771 
0.0873176 2.54529 8.27509 2.09434 4.94947 8.18689 3.26283 0.921353 8.95233 
0.633937 3.39979 8.81474 4.2945 2.42458 9.33435 0.219273 2.93573 9.75748 
0.353989 4.65639 8.82987 4.57527 1.90475 8.70977 3.7566 3.8856 8.92124 
0.506175 3.83957 9.50129 3.38465 2.22378 9.00692 4.55316 4.14386 8.87484 
2.6668 4.19115 8.13484 1.19781 4.76898 9.16997 2.34081 4.98002 9.36229 
4.80018 1.13434 9.85442 3.715 1.66211 9.85452 1.11892 4.70231 8.24468 
3.46982 4.83722 8.7072 3.73231 1.65612 8.32663 4.75774 2.7716 8.39404 
4.21057 6.54673 1.8404 0.391433 8.31366 0.285922 1.57392 9.80693 1.58487 
3.25709 9.56236 1.31203 4.64122 5.90462 1.52389 2.89099 6.6843 0.0711782 
2.10368 9.91691 0.976161 4.34669 8.77672 1.25059 3.99887 7.80177 0.415904 
2.59074 9.84407 1.70467 0.638604 9.04639 1.03758 2.86722 5.19694 1.60325 
4.10861 5.04148 0.546837 -0.0656007 9.66941 0.88686 2.99267 8.2781 0.713884 
4.04125 9.5059 0.794604 3.66519 5.28337 1.87477 4.15828 6.92176 0.240032 
0.857472 9.61981 0.444133 4.67839 5.90324 0.330229 1.77784 5.8034 0.281152 
2.68848 6.85618 1.01776 2.58597 7.61307 1.14858 1.2605 8.35293 1.57332 
0.381899 8.33755 1.70346 -0.0402608 5.32464 0.638605 0.261767 6.76058 1.1837 
0.662584 7.67487 0.917629 0.370415 5.66996 1.80589 1.63946 8.11414 0.072381 
2.18053 5.19386 0.14125 0.0276693 6.26503 0.450143 0.833966 7.3583 1.72619 
2.14029 6.4419 1.98432 1.67561 5.45455 1.97396 1.70934 7.32352 0.751066 
1.99872 7.92762 1.38994 1.72543 5.04263 0.948002 4.27664 7.33487 1.41635 
1.6369 5.90356 1.20636 3.50217 7.8532 1.32637 0.419332 5.75563 0.0300979 
1.23921 8.55729 0.666303 1.07479 6.43001 0.888402 2.41204 5.85057 1.35978 
0.970886 6.42531 1.88777 3.01034 6.05651 0.668139 2.12379 8.78548 0.868989 
2.04722 6.84478 0.238843 3.09228 9.6768 0.500296 3.01009 5.02801 0.525383 
3.18527 8.90197 0.127481 3.25574 6.62464 1.77905 3.37895 9.12112 1.79427 
3.85441 8.60213 0.45649 3.88905 5.89742 0.838428 4.90371 9.55827 0.436783 
2.89391 7.88899 2.04339 0.832216 9.33798 3.56965 2.3141 7.18187 3.92065 
2.63237 7.73113 3.20215 3.68801 5.1505 3.84132 2.82218 8.5369 3.56824 
0.189541 9.83994 3.32333 3.51659 8.56781 2.90784 0.897748 9.2643 2.6304 
0.0573054 8.92642 2.89226 2.80217 6.87628 3.02097 3.44052 7.40879 2.31215 
3.99554 8.67584 3.77807 2.58683 6.08753 2.59035 4.24914 8.93747 2.63767 
2.50987 9.35936 3.98017 0.652758 9.99293 2.25364 3.86012 9.23072 2.02628 
3.94525 6.37256 3.86401 2.82811 8.53906 2.11691 1.63784 8.90868 2.80451 
0.514641 7.89433 3.8921 1.65285 8.35472 3.49787 4.24099 9.89292 2.63946 
1.21099 6.79346 2.71963 0.40498 5.71979 2.76153 -0.0261855 7.07496 3.57471 
0.985829 7.26687 3.44369 1.37515 7.82733 2.68836 0.329599 6.30917 3.42671 
3.82038 7.71468 3.62626 2.69083 9.54218 2.42765 1.92567 5.17834 2.65925 
1.89295 8.46655 2.07916 4.15699 9.73941 3.90488 0.592081 7.51079 2.37272 
3.20737 9.90474 3.47209 1.65277 5.69473 3.36565 1.83893 7.26837 2.19906 
4.30211 9.39875 3.34073 4.12356 7.94352 2.71716 1.19266 5.77993 2.72091 
2.15686 8.17399 2.80046 0.412714 7.84951 2.9976 2.87796 9.05803 2.94366 
1.72655 6.49291 3.66005 4.71246 6.76542 2.79544 4.83393 8.4526 3.53603 
4.87801 6.30237 3.65005 2.19175 9.92539 4.34447 1.33747 8.74586 4.07292 
2.26229 7.07695 5.89576 2.75413 7.98013 4.25955 2.90852 8.92021 5.9096 
0.0509684 8.1858 5.02882 1.64084 9.72467 5.43357 3.3568 9.7487 5.91449 
2.71395 8.95248 5.20259 3.81276 5.52138 5.28203 0.832906 9.27324 5.1059 
2.76263 8.91304 4.29904 2.74305 6.67736 4.59059 0.759906 8.16184 5.66719 
3.67599 6.4483 4.92828 1.42974 7.81447 4.21532 1.43878 8.83876 5.07926 
4.37678 5.62192 4.26284 2.73892 7.58674 5.17678 2.72459 6.48462 5.4962 
3.42944 8.87375 4.54791 3.55065 9.87898 4.39384 4.3784 7.74983 4.29305 
0.633008 8.78855 4.3254 -0.0193684 9.55674 5.30304 0.333653 8.74056 5.89761 
2.51205 9.77932 5.68456 0.141472 7.18097 5.40454 2.17866 9.29075 4.89553 
1.36676 5.57661 5.44268 0.140914 6.27804 4.3708 -0.0249398 5.81665 5.40023 
1.0081 6.31563 5.76875 1.83827 6.55355 5.14943 3.6891 8.98763 5.3551 
1.63943 5.79383 4.51138 2.0502 5.13975 4.69088 4.8658 6.14522 5.71144 
0.394087 7.21994 4.47285 0.979682 6.12653 4.0939 1.75555 7.72411 5.5952 
4.39181 7.24179 5.34232 1.56302 8.17031 5.07483 1.53771 8.98491 5.97872 
4.453 8.18456 5.67059 0.796224 8.05842 4.7612 0.713191 6.01292 4.98139 
2.81279 7.74266 6.32306 1.46863 9.39793 6.8756 0.733509 8.45709 6.80336 
3.0236 5.41311 6.12476 2.63892 9.97408 7.46048 3.44853 5.76115 7.30334 
[...]
POINT_DATA 1000
FIELD FieldData 7
id 1 1000 int
96 431 119 903 373 800 995 647 425 
380 775 318 66 807 385 130 905 933 
267 513 127 62 86 142 731 280 777 
832 677 354 562 531 621 805 802 473 
415 770 559 310 627 820 461 725 555 
600 297 404 689 32 208 919 836 147 
254 895 814 623 682 416 659 667 342 
392 901 371 653 785 975 487 999 101 
554 457 519 10 6 389 493 465 151 
697 517 974 427 756 428 510 327 750 
411 863 410 962 497 523 369 409 257 
584 25 918 714 648 201 705 326 890 
243 347 408 217 163 445 548 827 454 
973 522 366 250 456 858 751 364 245 
396 722 511 358 761 654 954 304 944 
764 902 961 900 23 626 951 387 314 
569 303 956 924 911 734 79 383 966 
187 448 260 237 241 299 846 374 876 
572 771 737 65 288 516 860 439 908 
852 564 529 216 717 854 403 7 262 
835 861 229 220 968 47 573 49 661 
379 716 27 766 580 566 17 258 195 
754 41 565 921 359 899 339 52 89 
120 207 795 929 865 958 790 308 776 
819 822 139 492 532 56 467 475 99 
11 406 618 53 495 563 223 533 840 
643 317 87 842 762 990 116 335 232 
665 301 196 108 883 589 376 423 604 
633 798 144 783 323 812 212 90 165 
713 315 849 632 859 690 984 166 407 
350 605 230 574 885 528 330 104 162 
781 103 357 739 64 838 552 904 817 
576 452 723 649 463 599 850 833 172 
252 322 360 541 75 945 471 478 417 
959 614 210 520 81 386 433 590 887 
35 26 496 184 542 853 55 691 629 
491 917 684 268 712 405 286 421 429 
518 84 976 507 884 512 401 450 620 
553 194 483 341 48 469 153 543 59 
464 988 724 657 715 332 477 188 539 
173 711 436 472 143 137 683 550 693 
615 277 122 710 24 324 748 831 290 
910 158 527 946 474 953 546 340 381 
164 913 931 14 664 481 669 971 742 
638 287 150 769 801 2 107 524 837 
247 28 306 601 181 502 45 355 735 
874 848 336 348 321 660 73 320 997 
816 395 912 508 140 261 927 957 977 
701 183 76 444 238 752 353 367 993 
834 274 168 424 155 468 394 964 20 
610 630 393 441 113 470 642 34 537 
489 851 702 673 843 459 414 560 447 
182 70 906 612 363 872 706 115 825 
757 77 397 484 544 13 998 501 281 
923 575 640 305 591 74 680 650 159 
319 619 530 609 868 755 587 400 106 
674 760 272 480 598 506 898 579 596 
228 637 597 1000 787 100 102 758 882 
91 928 388 95 772 886 61 871 920 
749 203 138 582 293 36 864 279 78 
16 983 118 255 40 538 275 932 161 
636 12 937 743 240 943 298 804 889 
485 316 18 606 157 759 881 773 167 
784 169 774 307 729 779 365 948 434 
266 109 391 361 382 112 514 678 644 
828 346 121 218 231 907 803 117 451 
494 696 15 583 646 730 747 585 939 
283 418 420 873 291 21 658 488 178 
613 437 249 69 586 909 94 430 236 
806 129 80 668 235 568 200 259 271 
204 214 509 549 708 616 503 206 869 
198 875 893 256 594 149 679 19 767 
675 39 521 823 270 226 263 282 313 
227 830 38 916 225 811 251 862 110 
205 234 278 670 123 740 33 888 498 
557 688 352 126 135 611 965 449 813 
146 551 460 4 141 818 829 446 384 
329 955 896 608 741 171 930 476 284 
727 826 662 745 372 42 526 233 809 
30 703 312 877 368 786 265 9 224 
43 970 351 128 845 935 950 269 343 
581 399 721 134 413 592 656 264 442 
97 567 276 789 765 67 148 857 672 
490 839 46 311 738 796 426 699 5 
160 114 453 763 815 285 631 337 37 
462 692 83 570 545 866 292 273 980 
791 788 362 88 435 879 199 85 663 
63 175 244 71 525 981 622 179 248 
54 709 176 390 515 328 685 378 82 
602 625 808 733 960 938 994 458 792 
309 131 936 186 455 289 641 221 915 
486 202 349 22 72 193 617 213 914 
593 949 133 880 505 940 136 419 794 
686 595 466 922 145 68 370 156 810 
841 334 698 780 700 978 536 744 925 
558 967 189 31 57 736 728 878 209 
191 222 855 534 719 333 197 540 412 
799 170 603 154 556 504 952 443 676 
300 338 44 440 331 941 577 867 746 
192 897 671 111 98 934 821 926 1 
991 824 29 356 174 398 720 588 645 
105 695 185 215 987 51 152 479 870 
296 651 797 375 253 93 942 547 972 
295 847 652 211 432 666 345 561 778 
635 894 844 124 681 628 8 707 246 
985 50 132 177 180 996 499 856 294 
125 694 982 377 634 500 58 402 793 
782 578 992 239 438 607 219 989 242 
768 190 302 639 947 986 535 624 892 
687 422 344 753 60 718 571 704 325 
726 732 963 891 969 92 655 3 979 
482 
type 1 1000 int
1 1 1 2 1 2 2 2 1 
1 2 1 1 2 1 1 2 2 
1 2 1 1 1 1 2 1 2 
2 2 1 2 2 2 2 2 1 
1 2 2 1 2 2 1 2 2 
2 1 1 2 1 1 2 2 1 
1 2 2 2 2 1 2 2 1 
1 2 1 2 2 2 1 2 1 
2 1 2 1 1 1 1 1 1 
2 2 2 1 2 1 2 1 2 
1 2 1 2 1 2 1 1 1 
2 1 2 2 2 1 2 1 2 
1 1 1 1 1 1 2 2 1 
2 2 1 1 1 2 2 1 1 
1 2 2 1 2 2 2 1 2 
2 2 2 2 1 2 2 1 1 
2 1 2 2 2 2 1 1 2 
1 1 1 1 1 1 2 1 2 
2 2 2 1 1 2 2 1 2 
2 2 2 1 2 2 1 1 1 
2 2 1 1 2 1 2 1 2 
1 2 1 2 2 2 1 1 1 
2 1 2 2 1 2 1 1 1 
1 1 2 2 2 2 2 1 2 
2 2 1 1 2 1 1 1 1 
1 1 2 1 1 2 1 2 2 
2 1 1 2 2 2 1 1 1 
2 1 1 1 2 2 1 1 2 
2 2 1 2 1 2 1 1 1 
2 1 2 2 2 2 2 1 1 
1 2 1 2 2 2 1 1 1 
2 1 1 2 1 2 2 2 2 
2 1 2 2 1 2 2 2 1 
1 1 1 2 1 2 1 1 1 
2 2 1 2 1 1 1 2 2 
1 1 1 1 2 2 1 2 2 
1 2 2 1 2 1 1 1 1 
2 1 2 2 2 2 1 1 2 
2 1 1 1 1 1 1 2 1 
1 2 2 2 2 1 1 1 2 
1 2 1 1 1 1 2 2 2 
2 1 1 2 1 1 2 2 1 
2 1 2 2 1 2 2 1 1 
1 2 2 1 2 1 2 2 2 
2 1 1 2 2 1 1 2 2 
1 1 1 2 1 2 1 1 2 
2 2 1 1 1 2 1 1 2 
2 1 2 2 1 1 2 2 2 
2 1 1 1 1 2 1 1 2 
2 1 1 1 1 1 1 2 1 
2 2 1 1 1 1 2 1 2 
1 2 2 2 2 1 1 2 1 
1 1 2 2 1 2 2 1 2 
2 1 1 1 2 1 2 2 1 
2 2 2 1 2 1 2 2 1 
1 2 2 2 2 2 2 1 1 
2 2 1 1 2 2 2 2 2 
1 2 2 2 2 1 1 2 2 
1 2 1 1 2 2 1 2 2 
2 1 1 2 1 1 2 1 1 
1 2 1 1 1 2 1 2 1 
2 1 2 2 1 2 1 2 2 
1 1 1 2 1 2 2 2 1 
2 1 2 1 2 2 1 2 1 
1 1 1 1 1 1 2 2 2 
2 1 1 1 1 2 2 1 1 
1 2 1 2 2 2 2 2 2 
1 1 1 2 1 1 2 1 1 
2 1 1 1 2 2 1 1 1 
2 1 1 2 1 2 1 1 1 
1 1 2 2 2 2 2 1 2 
1 2 2 1 2 1 2 1 2 
2 1 2 2 1 1 1 1 1 
1 2 1 2 1 2 1 2 1 
1 1 1 2 1 2 1 2 1 
2 2 1 1 1 2 2 1 2 
1 2 1 1 1 2 2 1 1 
1 2 2 2 2 1 2 1 1 
2 2 2 2 1 1 2 1 2 
1 2 1 2 1 2 1 1 1 
1 2 1 1 2 2 2 1 1 
2 1 2 1 1 2 2 1 1 
1 2 1 2 2 1 1 2 2 
1 2 1 1 2 2 1 2 1 
1 1 1 2 2 1 2 1 1 
1 2 1 2 2 2 1 1 2 
2 2 1 1 1 2 1 1 2 
1 1 1 1 2 2 2 1 1 
1 2 1 1 2 1 2 1 1 
2 2 2 2 2 2 2 1 2 
1 1 2 1 1 1 2 1 2 
1 1 1 1 1 1 2 1 2 
2 2 1 2 2 2 1 1 2 
2 2 1 2 1 1 1 1 2 
2 1 2 2 2 2 2 2 2 
2 2 1 1 1 2 2 2 1 
1 1 2 2 2 1 1 2 1 
2 1 2 1 2 2 2 1 2 
1 1 1 1 1 2 2 2 2 
1 2 2 1 1 2 2 2 1 
2 2 1 1 1 1 2 2 2 
1 2 1 1 2 1 1 1 2 
1 2 2 1 1 1 2 2 2 
1 2 2 1 1 2 1 2 2 
2 2 2 1 2 2 1 2 1 
2 1 1 1 1 2 1 2 1 
1 2 2 1 2 1 1 1 2 
2 2 2 1 1 2 1 2 1 
2 1 1 2 2 2 2 2 2 
2 1 1 2 1 2 2 2 1 
2 2 2 2 2 1 2 1 2 
1 
i 3 1000 int
-15 0 1 -28 0 0 -6 0 0 
-11 0 0 -22 0 0 76 1 0 
-31 0 1 -23 0 0 -36 0 0 
-18 0 1 -44 0 0 -16 0 1 
-12 0 1 -13 0 0 -75 0 0 
-10 0 0 -10 0 0 -3 0 0 
-56 0 1 -24 0 0 -25 0 1 
-18 0 0 -14 0 1 -28 0 0 
114 1 0 -31 0 0 -47 0 0 
-16 0 0 -9 0 1 -10 0 1 
47 1 1 -21 0 0 2 0 0 
-40 0 0 -7 0 1 2 0 0 
3 0 0 -26 0 0 -58 0 1 
-10 0 1 -3 0 0 -25 0 0 
69 1 0 -6 0 0 -7 0 0 
-6 0 1 50 1 0 9 0 0 
-20 0 0 77 1 0 4 0 0 
-5 0 0 58 1 0 -49 0 0 
6 0 0 -47 0 0 -38 0 1 
-17 0 1 -5 0 0 -20 0 0 
-11 0 0 -42 0 0 -9 0 1 
-13 0 0 -28 0 0 -14 0 0 
75 1 0 85 1 0 50 1 1 
-39 0 0 -9 0 0 -7 0 0 
-20 0 0 2 0 0 -13 0 0 
-31 0 1 -7 0 0 -17 0 0 
58 1 0 5 0 0 -20 0 0 
-19 0 0 -18 0 0 120 1 1 
0 0 0 -12 0 1 -17 0 0 
-18 0 0 -1 0 0 -32 0 0 
-19 0 0 -20 0 0 -1 0 0 
-6 0 0 62 1 0 -26 0 1 
-14 0 0 105 1 0 -7 0 0 
-20 0 0 -41 0 0 -15 0 0 
103 1 0 55 1 0 -31 0 0 
-2 0 0 5 0 0 -2 0 0 
-16 0 0 1 0 0 -6 0 0 
-11 0 0 48 1 0 1 0 0 
-34 0 0 -13 0 0 51 1 0 
-18 0 0 -6 0 0 -5 0 0 
-9 0 0 -2 0 0 -2 0 0 
59 1 0 -8 0 0 -16 0 0 
-9 0 0 -43 0 0 -13 0 -1 
-7 0 0 -42 0 0 -44 0 1 
42 1 0 -23 0 0 -30 0 0 
-35 0 1 41 1 0 4 0 0 
-16 0 0 -26 0 0 4 0 -1 
-7 0 0 -45 0 -1 -22 0 0 
89 1 -1 29 1 0 -28 0 0 
-18 0 0 -69 0 -1 -17 0 0 
-18 0 0 -10 0 0 -1 0 0 
-30 0 0 -5 0 0 -50 0 0 
-11 0 0 84 1 0 -14 0 0 
-6 0 0 -5 0 0 -11 0 0 
-21 0 0 -33 0 -1 -7 0 0 
-1 0 0 7 0 -1 -58 0 0 
1 0 0 -8 0 0 -27 0 0 
-46 0 0 -2 0 0 -5 0 0 
-37 0 0 -30 0 0 -10 0 0 
4 0 -1 -9 0 0 -49 0 0 
-6 0 0 1 0 0 -19 0 0 
72 1 0 64 1 0 -26 0 0 
-18 0 0 9 0 0 -11 0 -1 
-24 0 0 -35 0 0 -29 0 0 
-18 0 0 58 1 0 66 1 0 
-39 0 0 -27 0 0 -37 0 0 
-24 0 0 -50 0 -1 -13 0 0 
-27 0 0 -8 0 -1 -35 0 -1 
-12 0 0 87 1 0 -23 0 0 
-42 0 -1 51 1 1 -42 0 -1 
-6 0 0 -23 0 -1 55 1 0 
-38 0 0 -6 0 0 -32 0 0 
-14 0 0 -6 0 0 -11 0 0 
-68 0 0 25 0 -1 -14 0 0 
84 1 0 13 0 0 -17 0 -1 
-17 0 -1 -28 0 0 -8 0 0 
5 0 0 -22 0 0 -6 0 0 
-12 0 -1 84 1 -1 -7 0 0 
-26 0 0 -10 0 0 6 0 0 
-27 0 0 -48 0 -1 1 0 -1 
-4 0 0 -27 0 0 -15 0 0 
6 0 1 44 0 0 82 0 0 
-30 -1 1 8 0 0 18 0 1 
-29 -1 0 -48 -1 0 15 0 1 
-44 -1 1 -48 -1 0 -9 0 0 
-13 0 1 -29 -1 0 19 0 1 
75 0 0 4 0 0 34 0 0 
-60 -1 1 4 0 1 -10 0 1 
14 0 0 -42 -1 1 8 0 0 
48 0 1 6 0 0 16 0 0 
15 0 1 7 0 0 48 0 1 
-4 0 1 5 0 0 6 0 0 
13 0 0 -3 0 1 29 0 0 
39 0 1 -1 0 0 -57 -1 1 
4 0 1 30 0 0 -1 0 1 
27 0 0 15 0 0 0 0 0 
44 0 0 9 0 0 21 0 0 
-9 0 1 55 0 1 3 0 0 
33 0 1 14 0 0 -55 -1 0 
60 0 1 7 0 0 -42 -1 1 
25 0 0 20 0 1 16 0 0 
21 0 0 14 0 0 18 0 0 
45 0 0 25 0 1 44 0 0 
27 0 0 13 0 1 17 0 0 
41 0 -1 5 0 0 27 0 0 
-44 -1 1 51 0 0 60 0 1 
24 0 0 -80 -1 1 25 0 0 
25 0 0 24 0 0 -39 -1 0 
18 0 0 12 0 0 33 0 0 
11 0 0 32 0 0 -4 0 0 
42 0 0 44 0 0 -15 0 0 
-41 -1 0 48 0 1 27 0 0 
-29 -1 0 25 0 0 8 0 0 
30 0 0 7 0 0 0 0 0 
-84 -1 1 -79 -1 0 27 0 0 
15 0 0 28 0 0 41 0 0 
15 0 0 -39 -1 0 21 0 0 
4 0 0 27 0 0 -70 -1 0 
9 0 0 61 0 0 -41 -1 0 
21 0 0 11 0 0 -41 -1 0 
44 0 0 23 0 0 15 0 0 
13 0 0 13 0 0 -70 -1 0 
0 0 0 24 0 0 19 0 0 
56 0 0 -62 -1 1 22 0 0 
38 0 0 60 0 -1 21 0 0 
39 0 -1 26 0 0 51 0 0 
-14 0 0 4 0 0 1 0 0 
12 0 0 19 0 0 15 0 0 
-2 0 0 -6 0 0 8 0 0 
16 0 0 2 0 0 5 0 0 
5 0 0 10 0 0 35 0 -1 
-89 -1 0 27 0 0 16 0 -1 
2 0 -1 39 0 0 30 0 -1 
20 0 0 -78 -1 -1 3 0 0 
-50 -1 0 -13 0 0 -57 -1 0 
-47 -1 0 6 0 0 49 0 -1 
14 0 0 16 0 0 -39 -1 0 
42 0 0 24 0 0 18 0 0 
25 0 -1 -58 -1 1 35 0 0 
-4 0 0 13 0 -1 26 0 0 
23 0 0 3 0 0 9 0 0 
-5 0 0 7 0 0 17 0 -1 
-72 -1 0 53 0 0 -3 0 0 
3 0 0 30 0 -1 26 0 0 
14 0 0 13 0 -1 26 0 0 
12 0 0 -62 -1 0 8 0 -1 
39 0 0 31 0 -1 13 0 0 
11 0 0 -45 -1 -1 2 0 0 
3 0 0 4 0 0 12 0 0 
22 0 -1 22 0 -1 -76 -1 -1 
13 0 -1 21 0 0 -8 0 -1 
14 0 0 8 0 -1 28 0 -1 
-61 -1 0 69 0 0 38 0 0 
37 0 -1 -42 -1 0 58 0 0 
32 0 -1 8 0 0 1 0 0 
34 0 -1 17 0 0 23 0 0 
36 0 -1 21 0 0 16 0 -1 
5 0 0 2 0 -1 -5 0 -1 
31 0 0 15 0 -1 39 0 -1 
46 0 0 46 0 0 20 0 -1 
23 0 0 -4 0 0 -25 0 -1 
-69 -1 0 10 0 0 19 0 -1 
12 0 -1 56 0 -1 -43 -1 0 
27 0 -1 -56 -1 0 22 0 0 
-30 0 0 -8 0 0 59 1 0 
-1 0 0 -9 0 1 -10 0 1 
-7 0 0 -22 0 1 -30 0 0 
-17 0 1 -25 0 0 -15 0 0 
-6 0 0 -20 0 1 -53 0 0 
-20 0 1 -11 0 1 -22 0 0 
-19 0 0 -13 0 0 -26 0 1 
-45 0 1 -18 0 1 -21 0 1 
-31 0 0 -27 0 1 -5 0 0 
-1 0 0 -23 0 0 -9 0 0 
0 0 0 -6 0 0 -41 0 1 
-5 0 0 -17 0 1 80 1 0 
-62 0 1 -9 0 0 -44 0 1 
-78 0 1 -44 0 0 -10 0 1 
10 0 0 -44 0 0 -45 0 0 
-15 0 1 117 1 0 8 0 1 
-45 0 0 13 0 0 59 1 1 
-15 0 1 -6 0 1 76 1 0 
-13 0 0 -7 0 0 -4 0 1 
-33 0 1 -40 0 0 -9 0 0 
-19 0 0 -43 0 0 -13 0 0 
-46 0 0 -65 0 0 0 0 0 
-36 0 1 -43 0 0 -9 0 0 
-31 0 0 -7 0 0 -15 0 0 
-1 0 0 -10 0 0 46 1 0 
-36 0 1 43 1 0 -23 0 1 
56 1 0 54 1 1 -7 0 0 
-59 0 0 59 1 0 -29 0 0 
-53 0 0 3 0 0 -3 0 0 
-10 0 0 -30 0 0 -2 0 0 
-20 0 0 -5 0 0 98 1 0 
-19 0 1 55 1 0 56 1 0 
19 0 0 -27 0 1 -11 0 0 
42 1 0 -26 0 0 1 0 0 
5 0 0 9 0 0 -30 0 1 
-22 0 1 -15 0 0 -57 0 0 
-64 0 1 -21 0 1 -3 0 0 
-55 0 0 -26 0 0 8 0 0 
-20 0 0 -21 0 0 -55 0 0 
-6 0 0 -49 0 1 8 0 0 
-11 0 0 -49 0 0 -36 0 1 
-21 0 0 51 1 0 0 0 0 
-17 0 0 -12 0 0 -35 0 0 
-43 0 0 -43 0 0 -6 0 0 
-13 0 0 -20 0 0 -18 0 0 
-65 0 0 -36 0 -1 -49 0 0 
-63 0 0 3 0 0 -29 0 0 
-69 0 0 -51 0 0 -4 0 0 
-19 0 0 -27 0 0 -20 0 0 
-6 0 0 20 0 0 3 0 0 
-16 0 0 -27 0 0 -4 0 0 
-10 0 0 -29 0 0 -25 0 0 
-5 0 0 -37 0 0 3 0 0 
74 1 -1 -29 0 0 -32 0 0 
-10 0 0 55 1 -1 -36 0 0 
-27 0 0 42 1 -1 -36 0 0 
-24 0 -1 -14 0 0 -2 0 0 
-10 0 0 -32 0 0 -9 0 0 
-64 0 -1 -29 0 0 65 1 -1 
-2 0 0 -30 0 0 -29 0 0 
72 1 0 89 1 0 90 1 0 
37 1 0 7 0 0 -15 0 0 
42 1 -1 -14 0 -1 -5 0 0 
-4 0 -1 -2 0 0 73 1 0 
-4 0 0 2 0 0 0 0 0 
-63 0 -1 8 0 0 48 1 0 
1 0 0 -13 0 0 -28 0 0 
-28 0 0 6 0 0 -1 0 -1 
-7 0 0 -63 0 0 -2 0 -1 
-9 0 0 3 0 0 -60 0 0 
-35 0 0 62 1 -1 -10 0 0 
3 0 0 -27 0 0 -35 0 0 
-34 0 0 -19 0 0 53 1 -1 
-5 0 0 -53 0 0 0 0 0 
72 1 0 -17 0 -1 -40 0 1 
-19 0 0 73 1 -1 -44 0 0 
-27 0 0 70 1 -1 -8 0 0 
4 0 0 -15 0 0 -11 0 0 
9 0 -1 -49 0 0 -10 0 0 
2 0 0 -36 0 -1 55 1 0 
-18 0 0 -28 0 -1 -2 0 -1 
-30 0 0 -3 0 -1 4 0 -1 
-3 0 0 -3 0 0 -42 0 0 
-42 0 -1 56 1 -1 72 1 0 
-11 0 0 2 0 -1 -16 0 -1 
-45 0 -1 -24 0 0 54 1 0 
2 0 0 75 1 0 4 0 -1 
26 0 0 13 0 0 4 0 0 
30 0 0 -86 -1 0 13 0 0 
4 0 1 32 0 0 49 0 0 
8 0 0 53 0 0 -92 -1 0 
60 0 0 41 0 0 40 0 1 
-47 -1 1 52 0 0 3 0 0 
-91 -1 0 -46 -1 1 41 0 1 
13 0 0 20 0 0 -12 0 0 
14 0 1 3 0 0 58 0 1 
-87 -1 0 38 0 1 19 0 1 
25 0 0 12 0 0 -105 -1 0 
3 0 1 -46 -1 0 22 0 0 
4 0 0 39 0 0 -80 -1 1 
1 0 1 37 0 1 15 0 1 
12 0 0 -61 -1 0 -1 0 0 
12 0 1 -33 -1 1 11 0 0 
40 0 0 5 0 0 37 0 0 
68 0 0 51 0 1 8 0 0 
20 0 0 9 0 0 24 0 0 
18 0 0 21 0 0 3 0 0 
21 0 0 4 0 0 -66 -1 -1 
-9 0 0 26 0 0 10 0 0 
38 0 1 36 0 0 15 0 0 
29 0 0 40 0 0 48 0 0 
28 0 1 50 0 0 -6 0 0 
9 0 1 44 0 1 36 0 1 
19 0 0 -30 -1 0 17 0 0 
-16 0 0 16 0 0 44 0 0 
15 0 0 30 0 1 24 0 0 
13 0 0 48 0 0 30 0 0 
-3 0 0 23 0 0 30 0 0 
28 0 0 10 0 0 15 0 0 
-80 -1 0 21 0 0 12 0 0 
-68 -1 0 33 0 0 1 0 0 
9 0 0 47 0 -1 33 0 0 
40 0 0 46 0 0 -67 -1 1 
14 0 0 38 0 0 -64 -1 0 
40 0 0 91 0 0 -69 -1 0 
15 0 0 49 0 0 7 0 0 
21 0 0 -69 -1 0 -85 -1 0 
59 0 0 36 0 0 43 0 0 
2 0 0 33 0 0 6 0 0 
17 0 0 16 0 0 45 0 -1 
40 0 -1 11 0 0 14 0 -1 
12 0 0 3 0 0 -8 0 0 
52 0 -1 -24 0 0 2 0 0 
15 0 0 10 0 0 4 0 0 
12 0 0 5 0 0 12 0 0 
56 0 0 11 0 0 -68 -1 -1 
33 0 0 1 0 0 20 0 0 
11 0 0 27 0 -1 17 0 0 
2 0 0 4 0 0 24 0 0 
19 0 0 21 0 0 4 0 0 
16 0 0 27 0 0 7 0 0 
-4 0 0 26 0 0 3 0 0 
18 0 -1 21 0 -1 73 0 -1 
25 0 -1 -60 -1 0 17 0 -1 
8 0 0 55 0 0 19 0 -1 
30 0 0 0 0 0 6 0 0 
33 0 0 9 0 0 23 0 0 
35 0 0 28 0 0 -71 -1 1 
-54 -1 0 2 0 0 24 0 0 
52 0 0 0 0 0 7 0 0 
1 0 0 -108 -1 -1 75 0 0 
18 0 0 3 0 0 40 0 0 
30 0 0 11 0 0 6 0 -1 
7 0 0 -50 -1 0 25 0 0 
-59 -1 0 -76 -1 0 -4 0 -1 
-71 -1 1 33 0 -1 -1 0 0 
25 0 -1 -59 -1 0 47 0 -1 
44 0 -1 23 0 -1 -57 -1 0 
-66 -1 0 18 0 -1 9 0 0 
7 0 -1 31 0 0 -58 -1 0 
-43 -1 -2 -18 0 0 44 0 0 
31 0 0 14 0 0 28 0 0 
51 0 0 15 0 -1 24 0 -1 
29 0 0 -94 -1 -1 4 0 0 
37 0 0 2 0 0 -41 -1 0 
6 0 0 59 0 -1 26 0 -1 
48 0 0 -78 -1 1 27 0 0 
7 0 -1 30 0 -1 3 0 0 
-78 -1 0 37 0 0 32 0 0 
18 0 0 
v 3 1000 double
-356.98565049 -0.30755324779 34.386762306 -279.02147569 13.682491305 9.0147235948 -56.486437173 -12.406556929 -6.8653189674 
-187.78841003 24.958536427 5.0283437406 -300.89063982 -5.3389481018 -1.0640924675 -337.75101993 -15.62518889 3.49955892 
-214.63044094 -35.024182204 -5.2627137824 -282.25627406 10.920316491 9.5026424808 -445.9819957 4.7851516261 4.550022077 
-138.05223164 -2.6874202611 1.034461629 -329.38835426 -24.211672721 -10.495698484 -271.42676024 5.7713285278 4.3098407122 
-88.066794792 -1.538165512 7.5107288734 -191.24695837 36.920298639 19.184851039 -389.16183838 -8.2023618092 -6.621542193 
-166.94153197 19.150413973 11.599002096 -179.07910073 8.702647456 15.977451781 -95.658726381 4.1134635742 -0.24286241083 
-346.2837439 5.1622321954 -27.386678814 -276.0323133 8.7417973488 2.899142175 -328.17560761 5.1105277933 12.928843335 
-155.66982756 -5.9874850381 -24.421614601 -124.7998558 15.067763791 -7.389075273 -387.88480754 -35.270202343 -27.643316994 
-23.537473511 5.0159190801 1.7454545481 -211.37405305 -12.602287933 4.6882745787 -429.80526951 -11.946065802 7.4551865751 
-247.54626015 4.2500555082 -0.49580927658 -75.132489198 -1.7523559111 -5.7426614329 -149.53729489 12.645927905 11.807686839 
-328.70923812 -8.4105293211 -0.46901981391 -94.20807128 25.549515323 24.181612256 -10.385436677 5.8434574377 -0.12227236025 
-236.9071502 6.9835949334 -11.99287982 -0.80453152971 2.2805058583 11.464976228 -22.424982972 -13.517624764 0.32333369917 
-68.858953498 -6.3216243655 3.0598859704 -127.9848288 -13.193619605 -11.845861403 -236.99085419 3.0375757506 -15.370377426 
-107.8931951 -3.5144009126 11.748119763 -76.351742269 -9.1645826829 14.018912136 -237.63449029 -6.0693026736 -10.538898996 
-268.59427892 -23.986318317 18.769459937 -172.73154815 29.833876732 -12.849624932 -125.92755619 3.2321784231 7.8402940396 
-168.98657009 -6.0206513059 -7.6053728506 -415.65688495 2.0603495115 -5.406729026 11.649026976 1.6375449595 -11.406040339 
-162.42414187 4.5765387557 -13.596987453 -369.56718563 6.7635696646 -1.130646333 0.40437820649 -12.375845495 -12.010896167 
-282.47385486 8.1815186913 10.834273294 -423.42715817 -26.374113264 -32.284673905 -290.49581853 -4.1068978139 -0.5143960956 
-81.28515684 -6.4005518576 -5.8806227202 -267.8211241 -3.717237749 -6.4077419316 -428.48949274 -9.728611318 -9.5796811276 
-269.72798404 0.38448634944 -12.201547102 -89.695830244 14.270150269 8.6483251289 -369.43082958 -22.408149915 6.8355357017 
-279.20967667 15.812774637 -8.889926673 -173.73066529 1.8445967502 -5.5473716151 -102.31121425 27.184345148 18.003908439 
-74.215416275 5.606202663 11.589437862 -237.21895358 -9.1281081392 15.804719712 -280.92318339 -18.511122807 7.704034253 
-281.73801943 -0.08273617897 0.051300275267 -192.87854544 4.3325358401 14.82486845 -495.71172351 4.803364176 -14.669662458 
-199.0619336 -20.515875559 18.288013185 34.487290533 -25.804760769 20.246247486 -173.54701518 0.046650240263 5.0661152394 
-336.98534787 -20.102880575 -25.286247819 -5.3146675709 -0.38208880799 15.510703724 -294.8923451 -7.7059088464 -11.977282781 
-354.13855999 31.805885556 -8.9683163219 -3.6466958616 -3.8908653857 13.331430071 -39.664089737 -5.8920018034 15.150585375 
-251.40865623 5.4393694253 9.0563921253 -74.356464162 9.3601246696 31.32685176 -364.15279011 -22.420461175 -8.8147470888 
-195.47840245 15.182668601 19.220866176 -102.3929405 6.3643789972 20.605442086 -98.529787935 -16.778880675 7.3350994431 
-35.092933501 25.801999383 0.73226842836 -180.37441002 -8.7472375823 -11.73637146 -290.54417413 -13.671860637 15.406381161 
-221.46498464 -13.036401158 19.192729603 -201.07981045 4.8694015146 -31.808228712 -358.58153315 4.2322634004 0.40563797294 
-239.58540912 20.60649925 10.247676076 -103.17501852 13.634364171 18.381360354 -119.91445282 -2.9436252964 -4.946849022 
-270.8693331 -17.286676988 -12.655248926 -351.54675887 -5.0629742847 0.25082787354 -226.69678445 -5.3094791177 4.8495405197 
-186.8914796 2.2387244911 3.4033198487 -369.5344733 4.2161145455 5.4042546649 -105.61684486 -30.272790075 3.5075768451 
-361.48146857 9.6006356456 4.1428662298 -392.3417461 8.4816000611 -3.739315702 -361.63574028 6.5610672479 -3.881337281 
-103.38654499 16.837070969 -20.495102316 -412.11222551 -17.201439556 17.77055089 -260.25076054 4.4301845289 -27.29116901 
-198.51495679 -33.670938342 2.0833660935 -23.453104904 3.8897883329 -19.539390797 -146.90748809 -17.44933117 22.007332744 
-173.79707273 -7.0239139729 -0.55812588264 -106.08328469 -2.4640772909 -18.877366193 -17.315915482 -4.9732335803 -16.965604843 
-54.50425388 4.5141182958 -0.027332768471 -353.61416877 -10.318808222 10.778469127 -7.8331659694 -2.0967981168 1.1844368378 
-257.25106462 20.892409344 -3.3065498761 -156.16224492 11.426462643 -9.8106568427 -460.18761022 2.4284105094 7.3487217806 
-402.7249396 31.759999547 -5.0087496801 -38.418826844 -8.6033421598 -4.726727689 -104.91414018 -7.610762824 -27.329829478 
-181.00819418 -26.237112914 -34.874178084 0.40160216675 6.3098572079 -6.2724712813 10.153925361 -24.657169363 7.1171692989 
-260.72508342 5.2262752089 -10.894233794 -73.725164599 -11.671258714 -2.809789495 -124.00985179 2.9459440989 -23.467075603 
-120.2390759 -2.6372236638 28.923859313 -466.57382326 28.867451318 22.762021197 -41.336930056 17.032887381 -11.613736259 
-117.08150058 8.3708671392 -4.8518311129 -453.37888109 -25.449565975 4.3118545279 -267.74363611 -30.861372736 -11.011414493 
-366.48810471 -9.5031194096 30.292328125 -281.65650245 -0.26617096206 -23.695568631 -344.44896482 3.0093370004 3.1097359418 
-138.88300962 3.3275489223 -2.3860663379 -307.2591346 -11.547503467 15.530847372 -6.1754154383 -19.216401098 1.7701459761 
-277.37028426 11.265694152 13.190016879 -369.87284245 2.9050055956 25.318571157 -4.0338312407 -22.460088016 1.7862342476 
-212.81729159 -38.615980469 -11.311887675 -515.29523953 8.3192367418 -2.0795143441 -351.17068469 -12.712292231 -10.281243389 