ITEM: TIMESTEP
36500
ITEM: NUMBER OF ATOMS
1000
ITEM: BOX BOUNDS xy xz yz pp pp pp
0 10 0
0 10 0
-0 10 0
ITEM: ATOMS id type type x y z ix iy iz vx vy vz fx fy fz omegax omegay omegaz radius 
924 2 2 2.67794 4.41899 1.82846 -49 0 1 -25.3432 -29.4425 -21.1113 -1127.75 -1838.78 -131.868 0 0 0 0.5 
481 1 1 4.18236 4.04078 0.663605 73 0 0 -88.3705 10.9743 -18.0413 -2041.99 186.68 -560.115 0 0 0 0.5 
483 1 1 0.308888 0.602048 0.878691 144 1 0 -436.148 3.65247 -20.0234 -357.861 435.891 -350.891 0 0 0 0.5 
766 2 2 4.52809 4.70465 1.67349 -67 0 1 -68.073 10.9588 10.7945 91.4545 1022.16 -1215.19 0 0 0 0.5 
322 1 1 0.209627 2.38644 0.851095 114 1 0 -269.227 4.68948 12.5769 -374.538 1132.56 -1063.84 0 0 0 0.5 
446 1 1 1.24775 3.37798 0.57934 -43 0 1 -118.869 -0.130837 24.771 1768.86 -218.113 1206.74 0 0 0 0.5 
159 1 1 2.33649 2.46441 0.0757955 211 1 0 -234.89 17.7538 16.8175 2281.99 -118.089 -522.738 0 0 0 0.5 
762 2 2 1.54952 0.0282327 1.20792 -109 0 1 -475.402 9.71028 -4.9732 232.145 2076.24 -1794.42 0 0 0 0.5 
465 1 1 3.77907 3.03853 0.876193 -19 0 1 -196.931 17.564 21.7532 880.703 -779.462 -188.903 0 0 0 0.5 
871 2 2 4.32693 3.65416 1.43483 -9 0 0 -148.967 3.71176 18.2245 -2304.6 1195.06 -1000.6 0 0 0 0.5 
25 1 1 0.585958 1.58754 1.19076 -118 0 0 -376.593 8.81512 -20.1652 2262.5 -3665.24 3572.31 0 0 0 0.5 
80 1 1 0.271706 1.82298 0.326534 -45 0 1 -311.136 3.87246 -4.16101 668.969 1306.66 -1670.54 0 0 0 0.5 
527 2 2 2.04957 3.14639 1.46965 11 0 0 -161.53 -16.5786 -21.4156 390.754 1959.01 -2534.13 0 0 0 0.5 
1000 2 2 1.47194 2.72052 0.173247 -91 0 0 -181.844 -28.5977 16.7995 -4072.87 -71.0732 890.616 0 0 0 0.5 
137 1 1 1.27706 0.394221 0.334278 -167 0 0 -481.165 21.0613 -2.31796 -2229.46 1218.38 107.136 0 0 0 0.5 
526 2 2 2.44406 0.406548 1.24979 -113 0 1 -455.443 8.1184 22.3385 -526.058 -3004.98 2663.94 0 0 0 0.5 
270 1 1 0.870579 0.255153 1.47949 -88 0 1 -469.828 -1.82796 12.0602 -1726.99 2001.46 -41.7305 0 0 0 0.5 
941 2 2 2.27277 1.73211 1.14275 -22 0 0 -325 12.3106 8.34513 -707.5 -31.1074 -943.603 0 0 0 0.5 
968 2 2 3.7984 2.16352 0.756591 215 1 1 -250.205 -14.1757 -12.4284 -3171.37 2104.3 -805.013 0 0 0 0.5 
750 2 2 2.30616 0.906036 0.713128 -119 0 1 -359.014 -10.8523 -8.22161 -85.9294 2849.4 -200.879 0 0 0 0.5 
760 2 2 2.45312 3.79066 0.882138 -52 0 1 -53.9395 -13.522 -30.8698 -2736.85 65.7044 2772.12 0 0 0 0.5 
644 2 2 2.2636 4.57655 1.23434 289 1 1 -11.0433 -9.15225 -34.588 540.548 2074.89 -1029.78 0 0 0 0.5 
755 2 2 1.00615 4.56537 0.563073 -45 0 0 -31.7545 -1.61364 20.7677 1888.67 -3237.43 -119.161 0 0 0 0.5 
162 1 1 3.07858 2.15227 0.18248 142 1 0 -234.26 23.6727 -17.593 1227.74 -382.99 -911.074 0 0 0 0.5 
288 1 1 3.73104 2.5896 1.55427 -27 0 -1 -223.382 -8.87906 6.00397 -448.834 -1049.88 -682.273 0 0 0 0.5 
18 1 1 4.49298 3.00837 0.280488 -43 0 1 -170.504 -4.04924 14.7378 4.20602 706.015 1878.94 0 0 0 0.5 
106 1 1 2.88562 3.14763 0.479833 -54 0 0 -152.373 -8.96293 -25.9891 -30.4044 -3357.55 -2169.78 0 0 0 0.5 
90 1 1 2.30275 4.91491 0.462949 53 0 0 35.4994 -11.3771 -58.6472 -1127.59 -723.628 -1112.5 0 0 0 0.5 
603 2 2 0.0396496 3.01764 0.999726 184 1 0 -207.298 18.118 5.38721 3275.6 -1405.3 1048.45 0 0 0 0.5 
765 2 2 0.483302 4.20924 1.33044 210 1 0 -38.4386 -6.61211 9.36388 1298.57 -1875.38 -1457.78 0 0 0 0.5 
4 1 1 3.28342 0.855417 0.110835 -149 0 0 -376.34 -25.2516 -10.1192 494.393 -1327.5 105.19 0 0 0 0.5 
181 1 1 4.02605 0.644734 0.683317 106 1 0 -373.65 -21.7601 -20.5344 -4147.37 1967.09 -34.2907 0 0 0 0.5 
710 2 2 1.56159 4.73904 1.59521 96 0 0 13.9487 -8.73654 7.69848 -1827.9 423.092 939.621 0 0 0 0.5 
252 1 1 3.01659 1.51183 0.360163 144 1 1 -345.556 -15.5524 6.02358 -2065 2037.95 -981.103 0 0 0 0.5 
828 2 2 4.55231 2.46483 1.65161 -47 0 1 -250.319 12.9237 -16.027 2213.35 2739.96 894.107 0 0 0 0.5 
400 1 1 2.80047 1.28097 1.57477 -122 0 0 -335.248 -25.082 6.90592 81.5631 -1239.78 136.167 0 0 0 0.5 
380 1 1 3.74588 4.98961 0.601614 -44 0 1 51.3002 -32.5765 2.88191 336.506 -1466.88 874.819 0 0 0 0.5 
812 2 2 3.01719 2.43416 1.05171 34 0 1 -220.129 -24.5341 -1.92642 -1633.88 1839.91 -301.944 0 0 0 0.5 
616 2 2 3.71974 3.3895 0.105604 -31 0 1 -155.797 19.3146 -4.11408 39.0926 716.873 521.609 0 0 0 0.5 
842 2 2 0.433729 0.950931 1.95932 -114 0 1 -460.451 10.1527 -12.0939 -964.232 120.733 -83.875 0 0 0 0.5 
259 1 1 3.6835 0.687518 1.63675 -132 0 -1 -426.838 -15.6598 -7.19996 -912.032 -601.92 151.128 0 0 0 0.5 
250 1 1 0.670231 3.74848 0.451007 -49 0 1 -125.214 0.860528 14.9977 1674.16 -729.173 1635.5 0 0 0 0.5 
503 2 2 2.99208 0.0353577 0.0652363 -4 1 0 -538.859 15.1113 -21.0239 -75.5516 -335.589 -55.0465 0 0 0 0.5 
401 1 1 -0.037998 4.28769 0.20843 55 0 0 -58.4214 -12.3183 32.5923 -2865.95 939.402 -1272.75 0 0 0 0.5 
725 2 2 4.3469 4.78245 0.0355208 -36 0 0 31.3292 -26.0093 -22.0374 -4187.79 2548.26 -3458.74 0 0 0 0.5 
246 1 1 4.81129 0.300895 0.654549 184 1 1 -445.225 -0.186395 8.34578 158.413 -1040.97 -1457.05 0 0 0 0.5 
947 2 2 3.03256 2.73379 1.87553 2 0 1 -218.442 -0.0875065 -9.24104 326.413 589.243 -1120.49 0 0 0 0.5 
592 2 2 3.3845 3.61465 1.65464 -26 0 0 -155.113 -6.46227 4.5729 -312.205 -504.4 116.436 0 0 0 0.5 
23 1 1 3.52042 1.33927 1.05192 -119 0 1 -339.479 1.97888 -8.46612 1172.22 796.371 485.05 0 0 0 0.5 
413 1 1 3.49463 4.44538 1.94238 -40 0 0 -50.725 1.48591 4.42487 2874.45 -1267.68 -679.072 0 0 0 0.5 
67 1 1 4.59339 1.89946 0.848307 225 1 1 -347.346 18.8402 -2.69706 3913.95 43.0764 228.948 0 0 0 0.5 
421 1 1 4.95462 1.68717 1.75134 169 1 0 -345.35 -2.58667 0.946588 439.517 -411.918 -472.816 0 0 0 0.5 
952 2 2 2.09969 2.33506 2.85098 14 0 0 -249.824 -7.61049 -7.00445 -649.946 -79.1452 -537.502 0 0 0 0.5 
190 1 1 0.921755 3.40333 3.11406 -39 0 1 -165.827 -2.55618 4.748 0 0 0 0 0 0 0.5 
354 1 1 2.20294 2.39703 3.76433 -46 0 1 -264.75 -7.16839 -4.89747 -2064.24 1126.11 -75.3807 0 0 0 0.5 
75 1 1 4.31892 3.90846 3.29369 191 1 1 -152.003 10.851 -9.12177 0 0 0 0 0 0 0.5 
43 1 1 4.68775 0.514127 3.87851 -109 0 0 -435.147 -21.2049 6.24354 -1877.44 -1400.06 1897.52 0 0 0 0.5 
747 2 2 2.12537 0.961886 3.88736 -181 0 0 -388.164 4.96275 -18.7863 -890.349 1923.18 -1658.5 0 0 0 0.5 
361 1 1 4.41814 1.99546 3.39506 -50 0 0 -317.049 10.1478 3.39831 2701.46 2409.46 1868.65 0 0 0 0.5 
269 1 1 2.40342 0.169413 3.6472 -141 0 0 -442.35 -23.3124 -3.59723 -2562.02 -770.31 19.2345 0 0 0 0.5 
486 1 1 1.99436 3.38463 2.60087 176 1 1 -172.341 -2.31013 -3.62954 -2018.32 181.144 -713.62 0 0 0 0.5 
22 1 1 0.369675 1.83512 2.16706 132 1 0 -348.239 18.2722 -4.39839 806.383 -914.575 -538.078 0 0 0 0.5 
746 2 2 2.46795 2.91745 2.18068 -30 0 0 -198.908 -13.3744 5.44318 -2869.91 1141.27 -184.476 0 0 0 0.5 
795 2 2 0.209316 2.64422 2.7236 -82 0 0 -250.634 9.8392 -2.79998 -754.042 -2609.68 267.425 0 0 0 0.5 
769 2 2 0.545466 1.22379 2.95206 -31 0 1 -372.685 -1.34515 11.8094 2302.87 -1912.12 -850.465 0 0 0 0.5 
967 2 2 4.42976 0.362679 2.9577 166 1 -1 -458.173 -20.8618 5.73534 -23.2604 -83.4908 513.737 0 0 0 0.5 
480 1 1 4.73543 1.54482 2.62412 -100 0 2 -376.691 -14.9386 -8.94442 -614.518 -318.365 255.41 0 0 0 0.5 
809 2 2 1.25901 2.04365 2.03289 164 1 0 -359.746 25.3024 -18.5424 1193.95 -33.0733 -827.528 0 0 0 0.5 
247 1 1 0.215197 1.8714 3.57879 -159 0 0 -322.354 13.6855 -21.5396 314.885 951.613 97.3649 0 0 0 0.5 
78 1 1 1.20329 1.02208 3.76797 -9 0 1 -402.5 -7.91843 -10.2734 92.882 174.677 -441.638 0 0 0 0.5 
254 1 1 2.35437 3.16089 3.36506 -1 0 0 -175.406 6.49809 -0.413198 -1851.04 -63.4353 1439.77 0 0 0 0.5 
583 2 2 2.20317 0.759986 2.90305 -118 0 1 -405.651 -8.85121 -10.6489 -1075.53 -92.878 803.313 0 0 0 0.5 
948 2 2 1.1275 0.668979 2.35006 219 1 0 -449.872 11.7338 3.83036 879.921 284.759 736.206 0 0 0 0.5 
975 2 2 1.45911 1.36959 2.88691 179 1 1 -383.188 24.848 -6.07719 396.458 -564.83 -134.201 0 0 0 0.5 
265 1 1 2.69254 4.98431 3.24226 -63 0 1 -11.7903 3.2465 28.6487 -24.7659 -2100.89 1348.94 0 0 0 0.5 
416 1 1 1.15864 2.431 2.89785 -91 0 0 -251.745 -3.68272 1.75417 -483.31 339.515 673.612 0 0 0 0.5 
785 2 2 3.63325 1.81367 3.94768 270 1 1 -315.461 11.1094 7.98908 1888.08 -185.067 -943.136 0 0 0 0.5 
908 2 2 0.966252 3.57794 2.03897 -77 0 1 -160.444 2.82639 -2.02331 1734.41 -3184.78 -617.242 0 0 0 0.5 
860 2 2 3.43234 4.79655 2.77741 -27 0 1 -54.3504 2.62207 -7.64351 2242.6 -2162.58 302.76 0 0 0 0.5 
626 2 2 3.82679 2.78187 2.28876 -53 0 -1 -237.132 31.8175 19.8123 -1836.04 1858.93 -164.51 0 0 0 0.5 
593 2 2 3.279 3.71909 3.88165 23 0 1 -70.3023 -26.8639 13.1633 -3086.79 7.36013 -923.327 0 0 0 0.5 
541 2 2 0.0348092 3.54627 2.35083 166 1 0 -152.75 -11.2913 20.0074 970.463 18.7288 1009.48 0 0 0 0.5 
999 2 2 0.549988 4.42197 2.18801 -39 0 0 -60.3775 -12.8178 -10.7336 -1271.53 4739.41 2101.6 0 0 0 0.5 
180 1 1 3.08686 1.01513 3.44034 8 0 0 -395.705 -12.7765 27.804 128.789 -539.151 1192.86 0 0 0 0.5 
699 2 2 2.89344 4.18398 3.40989 32 0 -1 -32.0508 -14.9698 -8.2426 61.1575 112.266 -1422.53 0 0 0 0.5 
955 2 2 1.6597 4.47619 3.94813 12 0 1 -22.6672 -23.9103 7.15631 -2058.15 908.247 -192.007 0 0 0 0.5 
803 2 2 2.5849 4.26639 2.57614 188 1 0 -86.2869 18.0019 -0.158992 -140.549 4135.64 -481.112 0 0 0 0.5 
542 2 2 3.0393 0.234226 3.20609 -200 0 1 -480.305 -2.14075 -10.1308 1188.64 540.314 -2310.84 0 0 0 0.5 
153 1 1 1.88808 4.17751 3.07138 26 0 0 -43.5527 -17.3782 -3.48786 -2729.72 1438.67 2639.72 0 0 0 0.5 
647 2 2 3.84211 2.16238 2.90032 -89 0 0 -290.503 -0.798751 -5.71003 1075.75 -310.059 -534.897 0 0 0 0.5 
243 1 1 0.650408 4.70618 2.86849 -59 0 0 17.2825 -8.99223 23.6769 567.539 -1020.98 -901.789 0 0 0 0.5 
984 2 2 4.42174 0.50158 2.0568 171 1 1 -429.972 -7.33072 0.460114 -3542.29 1566.57 2347.91 0 0 0 0.5 
767 2 2 3.69533 1.66224 2.02443 -96 0 1 -378.325 15.4027 -7.19285 0 0 0 0 0 0 0.5 
606 2 2 2.74666 2.25226 3.62105 -127 0 -1 -250.131 7.26912 -29.3092 1751.24 1590.37 -339.725 0 0 0 0.5 
742 2 2 3.64116 4.99998 3.6326 3 0 -1 -57.9506 26.1139 -8.84616 1038.19 612.389 2312.34 0 0 0 0.5 
350 1 1 3.18571 3.03939 3.27538 161 1 0 -193.261 -2.96498 -1.71241 2267.82 -956.055 -688.789 0 0 0 0.5 
691 2 2 2.98557 3.70581 2.60495 160 1 0 -161.276 -9.63875 -25.9317 2553.62 -3785.87 -366.581 0 0 0 0.5 
794 2 2 2.71993 1.48138 2.3956 9 0 0 -393.724 19.5039 5.32307 -471.553 1915.15 644.934 0 0 0 0.5 
744 2 2 2.98341 2.32366 2.62684 141 1 0 -249.371 3.29275 1.49056 -357.053 -1193.45 152.074 0 0 0 0.5 
930 2 2 3.07334 1.70707 3.18148 -34 0 0 -289.925 -16.0385 -11.8152 954.708 -1323.19 -1216.55 0 0 0 0.5 
358 1 1 2.98198 0.728417 2.41982 -51 0 0 -424.601 -4.64578 -20.0804 1376.84 -276.454 -823.37 0 0 0 0.5 
835 2 2 4.70116 2.56481 2.61047 -43 0 1 -289.463 15.8544 -5.87997 2173.88 -2296.65 -496.117 0 0 0 0.5 
267 1 1 4.76317 1.38081 3.74002 -141 0 0 -348.591 -26.205 11.6271 361.033 20.9549 294.607 0 0 0 0.5 
833 2 2 4.8625 3.39592 2.16396 -7 0 0 -161.243 3.92803 35.3738 155.778 791.087 289.794 0 0 0 0.5 
568 2 2 4.84684 2.85234 3.47665 -63 0 0 -201.315 10.6522 -48.6642 6.87312 -951.587 1366.96 0 0 0 0.5 
980 2 2 1.65534 0.801107 4.86752 146 1 1 -438.138 -5.24568 -26.6312 -802.255 2510.73 -1704.53 0 0 0 0.5 
433 1 1 2.4908 4.46424 5.44526 179 1 -1 -49.9361 13.8493 -21.088 1076.82 -1757.24 -1069.84 0 0 0 0.5 
185 1 1 1.58657 3.38839 5.62865 12 0 0 -147.238 -4.35712 -0.344793 -735.466 1559.37 -189.322 0 0 0 0.5 
572 2 2 1.94112 3.24917 4.75162 -80 0 0 -160.817 -12.854 19.7267 -52.2551 680.395 -1312.37 0 0 0 0.5 
575 2 2 1.02914 0.913113 5.32127 132 1 -1 -422.348 -31.9487 -1.72985 -2348.41 -722.143 -152.246 0 0 0 0.5 
456 1 1 0.585231 0.136737 4.19938 -58 0 0 -475.161 3.53006 -15.7505 -4126.11 1593.54 -417.238 0 0 0 0.5 
741 2 2 2.19747 2.37288 4.73447 -106 0 0 -278.279 19.9205 15.4732 -1386.65 -2663.71 -239.256 0 0 0 0.5 
896 2 2 3.90483 3.57023 4.26965 -11 0 -1 -125.082 -0.704503 14.4833 3296.11 372.499 1657.59 0 0 0 0.5 
778 2 2 2.88562 2.0247 4.26344 -145 0 1 -304.464 -3.8349 17.0884 933.658 -1032.13 -113.273 0 0 0 0.5 
611 2 2 2.50655 3.73002 5.69811 -40 0 0 -138.993 -3.5514 -2.48407 -1557.16 -146.267 -435.426 0 0 0 0.5 
10 1 1 2.43454 0.305424 4.51725 -148 0 1 -492.484 0.944979 -21.0917 2481.38 -2368.52 2053.32 0 0 0 0.5 
93 1 1 2.12655 0.48102 5.3216 119 1 -1 -447.208 -7.36084 18.6678 780.094 -506.601 43.9996 0 0 0 0.5 
619 2 2 0.96775 1.5321 5.46175 -60 0 1 -326.305 9.4451 2.72941 595.222 1089.02 -2053.41 0 0 0 0.5 
514 2 2 0.0572304 0.586336 5.28913 -76 0 0 -416.53 14.6603 9.99625 222.33 -425.928 125.878 0 0 0 0.5 
229 1 1 1.42434 0.429731 5.92373 -118 0 0 -435.111 4.50887 30.7904 1210.41 -150.359 1692.34 0 0 0 0.5 
913 2 2 4.33246 2.88636 4.10877 -10 0 0 -188.328 -19.1537 -3.03881 -3589.56 1392.83 -3076.28 0 0 0 0.5 
346 1 1 1.60393 2.53587 4.13403 205 1 0 -263.946 5.54556 -5.54992 -2137.18 182.058 -834.981 0 0 0 0.5 
292 1 1 1.37145 3.49336 4.254 -286 -1 -1 -158.235 3.04414 4.37761 -1336.59 1818.35 -698.56 0 0 0 0.5 
258 1 1 0.413099 2.34013 4.83334 -105 0 1 -233.991 -12.2714 -7.30042 -416.406 -55.7036 -468.96 0 0 0 0.5 
987 2 2 1.8749 1.86898 5.47945 166 1 0 -301.607 -17.1883 -6.14122 -277.005 514.661 223.83 0 0 0 0.5 
172 1 1 2.01772 1.52214 4.55482 -164 0 0 -338.575 9.04361 -2.26665 -324.006 -454.577 88.5998 0 0 0 0.5 
308 1 1 3.69383 1.2598 4.60672 -70 0 1 -406.378 -7.22916 21.1404 -1880.62 -252.953 -1145.4 0 0 0 0.5 
640 2 2 1.09633 2.51604 5.5497 -117 0 0 -225.733 -4.47647 -0.233123 -404.95 -575.407 609.33 0 0 0 0.5 
7 1 1 1.21867 2.1087 4.76223 -63 0 0 -231.409 -26.1077 -9.6257 480.662 -1259.73 1003.18 0 0 0 0.5 
895 2 2 4.19754 4.52975 4.14288 -79 0 0 -56.8691 -4.75298 8.45676 3151.5 -1127.27 -1830.73 0 0 0 0.5 
182 1 1 1.74463 4.0318 5.03454 52 0 -1 -52.7514 -9.54936 -3.99414 764.748 -279.985 1801.17 0 0 0 0.5 
82 1 1 2.4298 4.35579 4.02092 43 0 -1 -17.513 -14.9196 20.511 1039.74 216.785 1486.4 0 0 0 0.5 
951 2 2 2.74204 3.24177 4.60932 -39 0 0 -157.389 13.6045 -39.5061 721.218 403.849 -937.783 0 0 0 0.5 
120 1 1 4.31683 0.992853 4.97378 -143 0 -1 -400.987 0.66331 15.1024 -1970.4 961.666 1264.24 0 0 0 0.5 
217 1 1 3.72104 2.04398 5.07722 -56 0 0 -319.651 4.17712 8.42436 -347.774 2774.01 -531.34 0 0 0 0.5 
193 1 1 4.21273 0.208042 4.69354 171 1 0 -480.204 -7.4039 -8.54054 1250.19 87.3089 1588.41 0 0 0 0.5 
823 2 2 3.25472 0.0376432 4.83119 206 1 -1 -493.338 3.91832 1.21721 1373.62 301.814 -690.108 0 0 0 0.5 
653 2 2 0.122278 3.1328 4.53643 239 1 0 -192.025 16.253 -8.23364 436.271 43.464 200.344 0 0 0 0.5 
1 1 1 3.12166 1.26744 5.45725 -192 0 -1 -391.375 -3.2651 -1.67452 -2188 616.913 2524.09 0 0 0 0.5 
631 2 2 2.75964 4.93466 4.72143 33 0 0 13.5003 17.1236 -2.27135 -831.894 908.308 -690.97 0 0 0 0.5 
666 2 2 3.57106 4.83882 5.30542 20 0 0 -41.075 -2.21467 -16.6853 1737.63 -493.994 658.611 0 0 0 0.5 
970 2 2 2.90471 0.411541 5.8867 197 1 -1 -449.312 -33.658 -0.66308 1721.61 113.391 -1147.83 0 0 0 0.5 
816 2 2 0.157959 4.35356 5.02313 -7 0 0 -32.2328 -14.6952 -3.72634 1562.79 -1143.16 212.107 0 0 0 0.5 
102 1 1 2.58692 2.26117 5.80741 -9 0 -1 -297.595 18.7052 4.08639 -876.934 -746.733 -1027.8 0 0 0 0.5 
284 1 1 0.0160599 4.03047 4.23308 -97 0 0 -144.706 15.111 -29.2852 4115 -202.006 1811.75 0 0 0 0.5 
251 1 1 4.10103 0.0777854 5.77687 -62 0 0 -501.759 -7.10678 -4.12024 -1291.44 -745.596 1622.07 0 0 0 0.5 
620 2 2 0.132098 3.64027 5.79723 -17 0 0 -142.221 9.88139 -15.5304 1566.02 188.846 670.598 0 0 0 0.5 
838 2 2 3.31181 4.47938 4.45303 5 0 1 -7.94863 -7.19341 -4.69416 -1671.67 -1857.56 -938.367 0 0 0 0.5 
191 1 1 3.65023 0.624481 5.61335 137 1 0 -460.888 14.0869 -11.0275 2917.96 -405.693 -953.38 0 0 0 0.5 
488 1 1 3.85822 2.99002 5.21017 -114 0 1 -207.459 13.463 -1.79066 -2889.07 -714.085 1512.96 0 0 0 0.5 
464 1 1 1.43356 4.67602 4.81824 23 0 0 8.78566 4.19059 22.3122 -1248.03 2399.36 -774.077 0 0 0 0.5 
24 1 1 2.84249 1.9745 5.08501 164 1 -1 -316.373 0.15273 9.19817 514.909 558.299 336.574 0 0 0 0.5 
544 2 2 3.09525 2.8955 5.22306 2 0 0 -200.915 -14.7172 -1.58813 -2115.34 -1388.48 187.374 0 0 0 0.5 
64 1 1 3.74789 3.91903 5.0284 49 0 -1 -33.329 -8.01101 33.4237 -447 2907.72 878.216 0 0 0 0.5 
763 2 2 3.71063 0.472875 4.05828 73 1 1 -442.418 -7.3401 -2.63811 -2010.84 660.714 -1187.48 0 0 0 0.5 
781 2 2 4.58124 1.78778 5.33762 159 1 0 -372.981 -6.49483 21.3535 1098.71 83.0607 -60.0575 0 0 0 0.5 
783 2 2 4.55292 2.54647 4.95126 -63 0 1 -305.302 20.4495 -8.154 3152.65 -2332.73 1809.26 0 0 0 0.5 
204 1 1 4.56011 3.04819 5.58887 -139 0 1 -217.159 35.737 45.6129 577.22 -215.091 -445.73 0 0 0 0.5 
694 2 2 0.46231 0.307746 7.70568 -201 0 0 -470.509 -15.3684 -25.8542 225.863 179.71 -1365.39 0 0 0 0.5 
524 2 2 2.07116 2.44238 7.45544 -62 0 1 -258.882 -8.30993 5.05445 -1057.59 94.1787 1538.16 0 0 0 0.5 
922 2 2 1.74157 2.79785 6.19898 35 0 0 -208.022 -9.87204 -10.4653 -3196.55 -375.027 452.925 0 0 0 0.5 
126 1 1 3.41499 1.01322 7.20608 175 1 -1 -355.091 2.39648 -9.31382 -66.6621 -86.8969 308.882 0 0 0 0.5 
438 1 1 3.9836 4.13212 7.37949 14 0 -1 -95.9548 9.67526 -2.61979 1498.51 -389.063 428.876 0 0 0 0.5 
95 1 1 2.02166 4.19366 7.74704 -18 0 0 -60.6011 -12.4861 19.4759 -1682.71 -364.806 1441.03 0 0 0 0.5 
509 2 2 2.05874 1.12456 6.85117 -102 0 0 -371.775 -7.57715 39.3521 1792.69 1094.01 237.633 0 0 0 0.5 
761 2 2 1.35748 0.458977 7.73543 -128 0 0 -463.235 -1.52869 10.69 -840.79 616.229 2144.93 0 0 0 0.5 
706 2 2 3.59389 4.5665 6.90353 63 0 0 -82.9085 18.7935 -3.91274 165.549 713.3 76.6313 0 0 0 0.5 
861 2 2 0.755131 1.68159 7.7625 -45 0 0 -347.57 6.416 -20.3689 741.152 1869.38 1622.73 0 0 0 0.5 
748 2 2 2.33404 2.60257 6.40857 189 1 -1 -221.812 20.0677 10.0717 2783.84 358.951 2265.27 0 0 0 0.5 
521 2 2 0.935609 1.16833 6.95889 -74 0 0 -318.614 -20.8369 2.08685 -481.665 2225.87 -1685.8 0 0 0 0.5 
211 1 1 4.69178 1.93685 6.12501 147 1 0 -319.017 15.3995 23.1358 683.451 4467.51 335.616 0 0 0 0.5 
142 1 1 2.19765 3.16579 7.03554 -94 0 -1 -176.707 15.611 6.97267 3063.75 -161.281 2318.64 0 0 0 0.5 
375 1 1 0.843759 1.82243 6.2223 161 1 -1 -291.722 -8.47973 -2.202 -1066.34 826.776 -72.6196 0 0 0 0.5 
260 1 1 0.395626 2.25978 6.71538 -121 0 0 -251.355 1.39006 7.3219 -709.336 484.047 1776.09 0 0 0 0.5 
201 1 1 1.12383 2.60283 7.79355 -72 0 0 -208.032 -6.42663 -1.03844 -682.916 -1821.04 -777.237 0 0 0 0.5 
378 1 1 1.12003 0.234375 6.86374 -147 0 0 -452.147 -5.30282 12.1202 -668.841 -1700.14 -1623.8 0 0 0 0.5 
74 1 1 1.72392 1.57289 7.50064 7 0 0 -346.013 -9.99134 24.8056 601.745 1913.44 1702.54 0 0 0 0.5 
650 2 2 1.22323 2.16605 7.01635 -43 0 0 -245.298 -1.44942 -22.0375 140.416 1127.92 -835.031 0 0 0 0.5 
61 1 1 2.37319 1.9293 6.70821 -127 0 0 -303.824 -6.17369 18.9974 -743.962 -1505.34 -3650.29 0 0 0 0.5 
167 1 1 0.626048 0.666908 6.23451 167 1 -1 -445.355 -1.47372 -5.23084 -1014.74 1243.91 1232.94 0 0 0 0.5 
355 1 1 1.9612 0.340885 7.21746 132 1 0 -450.126 12.7635 21.6205 1179.81 -961.988 974.543 0 0 0 0.5 
262 1 1 2.34848 0.730784 6.2851 -162 0 0 -426.504 2.7908 -2.52387 -1047.27 -169.72 -321.621 0 0 0 0.5 
157 1 1 1.27498 3.191 7.07045 -54 0 0 -132.465 -6.70051 -15.402 -3285.95 -291.523 715.271 0 0 0 0.5 
163 1 1 1.57176 1.48957 6.29761 161 1 0 -307.318 -18.7927 -12.8707 341.004 -565.963 -206.281 0 0 0 0.5 
452 1 1 2.07941 3.84111 6.62506 27 0 0 -116.963 29.0792 -3.51754 -53.5508 1308.8 -736.932 0 0 0 0.5 
956 2 2 4.80645 1.2339 7.61688 -86 0 0 -348.419 1.22563 6.65909 -663.299 1490.97 2039.6 0 0 0 0.5 
352 1 1 4.56123 0.593852 6.52658 -83 0 0 -373.704 -26.7376 -0.317303 -4585.97 2114.77 1031.73 0 0 0 0.5 
743 2 2 3.91278 3.25665 7.51915 -59 0 0 -196.02 16.8641 4.09089 -2147.66 2158.16 710.164 0 0 0 0.5 
671 2 2 0.131169 3.25327 7.10383 -22 0 0 -99.7376 -8.37854 -41.4591 481.274 -86.9341 -420.021 0 0 0 0.5 
609 2 2 1.27996 4.06656 6.23451 -42 0 0 -130.532 14.1754 -11.6029 -301.366 310.066 140.217 0 0 0 0.5 
550 2 2 2.21285 4.92526 6.00744 52 0 0 -11.9108 14.4587 -3.68035 -697.858 628.25 -743.679 0 0 0 0.5 
487 1 1 2.72283 1.67328 7.52912 -118 0 -1 -342.052 1.34921 -0.74215 1056.1 200.12 1526.43 0 0 0 0.5 
961 2 2 3.58629 3.34966 6.71464 -10 0 0 -145.977 0.558796 -1.91937 379.666 319.42 -373.8 0 0 0 0.5 
415 1 1 0.169737 4.57137 7.34436 -2 0 -1 -24.6673 -11.9417 -9.46897 548.551 -1900.89 -523.714 0 0 0 0.5 
132 1 1 2.88753 2.50875 7.87182 54 0 0 -240.253 17.8799 -8.87041 -253.076 -431.666 -707.784 0 0 0 0.5 
780 2 2 3.19956 1.96636 6.16139 -147 0 0 -307.609 -0.655131 34.8417 1749.68 -1840.26 -878.336 0 0 0 0.5 
16 1 1 4.44232 1.50772 6.82671 -111 0 0 -327.651 -15.0402 -0.277011 1267.06 -3735.4 215.097 0 0 0 0.5 
119 1 1 2.46112 4.86221 6.89627 0 0 0 -36.0023 12.4491 3.35381 1243.23 -43.5635 267.13 0 0 0 0.5 
478 1 1 3.06595 3.30365 6.02727 -13 0 1 -139.385 -10.2885 6.61749 176.633 -855.618 -195.783 0 0 0 0.5 
582 2 2 2.89049 4.73275 7.69169 -7 0 -1 -59.5984 4.29671 32.6879 -5.03042 -837.689 -309.13 0 0 0 0.5 
281 1 1 2.89609 3.79645 7.51327 -6 0 -1 -113.518 -8.85661 1.65156 2160.81 -485.678 -401.197 0 0 0 0.5 
460 1 1 0.210555 4.33869 6.27924 -18 0 0 -53.3619 -0.462344 17.6138 1291.37 -875.064 -126.763 0 0 0 0.5 
169 1 1 4.25305 0.225863 7.42539 211 1 0 -465.624 3.74765 7.45296 -2809.24 2261.25 -2999.99 0 0 0 0.5 
399 1 1 0.102929 2.81947 6.12672 -120 0 -1 -233.591 3.04777 0.849803 -486.734 596.603 -830.963 0 0 0 0.5 
502 2 2 0.0201748 2.49404 7.87442 -130 0 0 -165.205 -29.4076 -14.4985 492.01 -562.591 -1240.64 0 0 0 0.5 
974 2 2 3.06817 4.83045 6.3065 322 1 0 -44.3442 12.2822 -21.4009 1864.21 -50.6096 -847.257 0 0 0 0.5 
139 1 1 0.91502 4.1038 7.54702 -34 0 0 -78.4343 -6.26442 -15.1264 2181.71 -397.397 -190.415 0 0 0 0.5 
283 1 1 3.9133 2.31387 6.8151 -142 0 0 -213.197 -23.0249 -11.7408 -2904.51 4070.14 -1866.77 0 0 0 0.5 
927 2 2 1.77971 4.87606 7.3092 23 0 0 -25.2443 -1.85105 21.3319 519.061 -206.232 653.171 0 0 0 0.5 
40 1 1 4.13276 1.87607 7.61349 -33 0 0 -321.082 11.1155 8.589 -554.648 28.5355 1476.82 0 0 0 0.5 
635 2 2 4.06193 4.95438 6.10155 -282 -1 0 -59.3975 27.9648 4.23782 -694.354 902.546 -679.006 0 0 0 0.5 
222 1 1 4.52557 2.79788 7.28597 225 1 0 -228.844 10.1744 -6.17784 822.34 -573.733 -764.75 0 0 0 0.5 
5 1 1 4.49687 4.36042 6.51489 29 0 -1 -75.898 15.2511 14.081 601.287 -360.045 589.108 0 0 0 0.5 
529 2 2 4.59389 3.5349 6.58048 -18 0 0 -157.671 -15.7022 14.1421 -585.114 -409.76 -93.3892 0 0 0 0.5 
65 1 1 4.99356 0.430511 7.39742 -59 0 0 -439.25 13.9451 2.12295 1343.02 -550.717 881.103 0 0 0 0.5 
108 1 1 2.06598 0.839129 9.81593 -155 0 0 -389.553 -17.497 20.8773 -161.66 -468.589 376.68 0 0 0 0.5 
954 2 2 0.646758 0.200481 9.38434 179 1 -1 -514.221 17.3851 2.98242 -132.638 4332.74 20.1977 0 0 0 0.5 
425 1 1 1.23275 0.959572 9.58777 -136 0 0 -369.48 -13.4539 -22.0389 -1216.01 -2542.05 -3366.18 0 0 0 0.5 
787 2 2 0.682752 2.96897 8.80019 -57 0 0 -189.377 -5.80966 1.52888 1191.67 76.0384 1513.71 0 0 0 0.5 
887 2 2 0.963784 1.35842 8.62663 137 1 -1 -371.464 -3.999 10.6606 -48.0456 -3024.25 -1652.41 0 0 0 0.5 
393 1 1 0.118975 1.28955 8.42084 82 1 -1 -370.151 7.66468 -30.961 -662.997 2309.7 -1466.31 0 0 0 0.5 
590 2 2 1.26291 3.4183 8.01861 -18 0 -1 -127.002 -4.12056 -9.23545 -672.35 327.811 -1483.1 0 0 0 0.5 
291 1 1 1.72747 1.05456 8.34958 -109 0 0 -387.102 -7.06691 -7.47166 1827.18 -967.41 928.102 0 0 0 0.5 
373 1 1 1.52824 0.241605 8.88309 -139 0 -1 -528.231 11.5882 7.56243 -196.381 927.644 -293.179 0 0 0 0.5 
408 1 1 4.01419 3.3641 8.71537 -15 0 -1 -180.567 -0.452774 -9.05177 -411.039 386.857 107.234 0 0 0 0.5 
639 2 2 2.18781 1.50255 9.07611 73 1 0 -379.913 -16.8806 -10.5792 -1471.97 3904.65 -1471.45 0 0 0 0.5 
652 2 2 2.1796 1.94138 8.33465 -29 0 0 -326.441 0.168435 -49.3418 -3943.95 -605.133 -603.405 0 0 0 0.5 
804 2 2 0.53827 0.475737 8.58921 -152 0 -1 -454.295 8.60608 -22.0101 1194.66 1207.73 1009.57 0 0 0 0.5 
290 1 1 0.565117 1.87911 9.2824 170 1 0 -299.088 1.02859 4.00144 699.032 419.001 1828.63 0 0 0 0.5 
983 2 2 1.72871 2.79543 9.39129 8 0 -1 -221.937 13.7762 -2.89623 -1285.27 2183.5 226.456 0 0 0 0.5 
424 1 1 3.88057 4.06119 8.24681 -22 0 0 -138.97 31.9572 -1.57201 119.83 526.27 543.798 0 0 0 0.5 
130 1 1 2.10005 1.93001 9.59172 -46 0 -1 -325.84 -7.70786 22.4026 -1474.07 1113.3 977.803 0 0 0 0.5 
199 1 1 3.22166 0.761207 8.10189 -217 0 -1 -414.859 -9.68709 -9.02611 855.271 -1159.06 -789.643 0 0 0 0.5 
314 1 1 0.837538 2.20978 8.52515 -86 0 0 -271.208 5.17459 -2.25677 315.083 -1564.25 -1600.52 0 0 0 0.5 
35 1 1 2.13612 2.45303 8.81627 -129 0 1 -236.579 6.65027 -6.77565 1309.91 -2398.26 1721.36 0 0 0 0.5 
573 2 2 0.667594 1.29716 9.95935 -105 0 0 -340.185 -17.8603 10.6062 74.2046 -717.773 640.068 0 0 0 0.5 
241 1 1 2.0163 3.04149 8.22661 280 1 1 -198.851 17.0457 -1.77723 4113.73 -1090.62 -91.4148 0 0 0 0.5 
155 1 1 2.71359 3.77831 9.52136 40 0 0 -126.022 8.54048 14.0948 -688.074 -86.4631 159.156 0 0 0 0.5 
33 1 1 4.28778 2.3131 8.49556 228 1 0 -278.775 -18.3794 14.7431 -1187.56 -1327.52 874.024 0 0 0 0.5 
863 2 2 3.95562 2.15858 9.65531 -53 0 0 -263.241 -30.3327 0.246485 -118.874 -2088.28 347.672 0 0 0 0.5 
214 1 1 0.631097 3.33295 9.53324 -18 0 -1 -128.794 -15.3244 12.9107 1300.06 -770.195 1451.42 0 0 0 0.5 
366 1 1 3.67588 3.89923 9.29878 -11 0 0 -140.846 21.8993 13.237 363.413 1145.55 -692.54 0 0 0 0.5 
608 2 2 0.360605 4.40943 8.9124 -44 0 0 -62.0055 -18.6948 -19.1814 -252.335 -2272.75 -653.503 0 0 0 0.5 
293 1 1 2.92479 1.75666 9.42047 -135 0 0 -334.364 7.29617 -2.62384 -181.633 -3139.72 -1867.8 0 0 0 0.5 
72 1 1 2.56556 0.882462 9.21139 167 1 0 -430.521 -11.5023 -14.5489 642.477 434.848 -271.712 0 0 0 0.5 
656 2 2 4.15971 1.16899 9.85622 -97 0 0 -387.809 11.7906 -15.4653 -1158.27 -323.559 349.436 0 0 0 0.5 
210 1 1 4.34921 1.44313 8.46185 140 1 -1 -355.28 -26.2812 1.7992 -3192.91 2371.24 870.085 0 0 0 0.5 
225 1 1 2.27013 0.104474 8.39547 -99 0 0 -525.343 27.8097 -11.2036 473.235 -671.59 199.833 0 0 0 0.5 
586 2 2 0.342338 3.58285 8.24676 219 1 0 -85.7723 -25.0128 -23.3078 -2751.84 2795.26 -735.617 0 0 0 0.5 
341 1 1 0.465884 4.09528 9.70963 15 0 -1 -74.7324 7.8834 -7.42247 1188.52 1142.61 -822.659 0 0 0 0.5 
383 1 1 3.25878 2.34509 8.73797 -73 0 0 -258.199 -22.8005 -14.7878 934.839 -1110.76 2041.92 0 0 0 0.5 
372 1 1 3.15017 0.643409 9.21433 -125 0 0 -431.648 8.04657 1.10976 1665.33 1789.49 623.879 0 0 0 0.5 
249 1 1 2.99006 4.69039 8.68505 -76 0 1 -37.6456 19.7065 25.4474 1095.65 -2154.54 -1280.18 0 0 0 0.5 
42 1 1 2.95206 3.11544 8.61499 -83 0 0 -211.45 5.79086 13.2611 -481.399 -986.52 -66.7987 0 0 0 0.5 
186 1 1 3.5413 2.8346 9.46337 149 1 -1 -195.655 -4.28748 -6.86846 -1471.97 1492.42 -1419.82 0 0 0 0.5 
208 1 1 4.45735 3.17255 9.38611 -26 0 0 -191.136 3.60742 8.91076 -2025.87 -566.693 1070.58 0 0 0 0.5 
321 1 1 1.23964 4.85335 8.31461 -8 0 -1 -24.1074 -0.348851 -14.3591 1831.79 -1121.94 266.126 0 0 0 0.5 
623 2 2 2.15536 4.89945 8.51574 -54 0 0 -47.6539 1.46183 3.09371 871.571 254.48 203.192 0 0 0 0.5 
138 1 1 1.63552 4.52745 9.86415 -49 0 0 -66.8773 -10.9646 -16.1172 2802.48 384.436 2213.77 0 0 0 0.5 
374 1 1 1.0722 4.71917 9.27181 -25 0 0 -61.759 7.65337 -12.6281 2364.61 -983.601 -2344.35 0 0 0 0.5 
890 2 2 4.05307 2.83955 8.07633 -35 0 -1 -223.234 -9.26237 -6.11369 -807.61 -555.739 93.8545 0 0 0 0.5 
533 2 2 2.74972 1.50685 8.3896 260 1 -1 -362.527 -1.37528 3.70924 3194.15 -1405.19 905.036 0 0 0 0.5 
912 2 2 2.9413 3.87915 8.50724 12 0 -1 -127.722 8.90923 2.72694 -410.261 1460.83 -408.5 0 0 0 0.5 
45 1 1 3.45982 0.0741946 8.93328 92 1 0 -522.613 -6.73783 5.04955 186.363 -3203.83 -2373.42 0 0 0 0.5 
318 1 1 1.13782 3.99274 8.65631 -81 0 0 -83.0047 -9.78986 14.367 1171.15 -901.542 -1174.26 0 0 0 0.5 
233 1 1 4.83192 2.20022 9.8016 -103 0 0 -270.861 -3.12358 4.42047 -3353.08 2470.82 -2270.47 0 0 0 0.5 
84 1 1 4.82919 4.75766 8.79924 115 0 0 -36.3724 16.6129 -6.54563 295.256 -2066.29 228.366 0 0 0 0.5 
697 2 2 0.439363 4.99589 8.26702 -25 0 -1 4.7952 -17.1051 -11.7937 23.8629 -1196.74 1120.82 0 0 0 0.5 
168 1 1 4.94591 0.779617 8.38178 48 1 0 -425.25 -3.20223 33.8624 900.863 -3554.59 -666.696 0 0 0 0.5 
701 2 2 1.57865 9.85048 0.349959 84 0 0 480.426 -3.83139 -14.2717 -854.568 -1425.08 -1373.01 0 0 0 0.5 
381 1 1 0.700875 5.95761 0.657621 41 0 1 92.405 23.7638 17.4244 1079.46 -500.159 -824.387 0 0 0 0.5 
273 1 1 0.997581 8.86166 0.683559 -174 -1 2 376.592 9.44245 14.3232 1739.72 -1506.15 -1404.07 0 0 0 0.5 
928 2 2 4.1855 6.98549 0.876461 13 0 0 194.3 3.79192 13.7441 4601.19 -2987.96 -708.662 0 0 0 0.5 
692 2 2 1.30395 8.69928 1.91519 160 0 0 380.904 -10.0092 -26.9974 -575.635 -737.516 -893.097 0 0 0 0.5 
534 2 2 3.65782 7.01266 0.0744264 42 0 1 188.122 2.64959 -12.4102 856.27 2318.08 -1819.15 0 0 0 0.5 
477 1 1 4.87649 7.50804 1.97562 112 0 0 292.375 -19.8923 16.446 2552.96 -926.452 216.84 0 0 0 0.5 
578 2 2 2.99628 7.69018 0.534802 103 0 0 284.108 -2.29303 -17.1787 -814.114 700.915 477.293 0 0 0 0.5 
563 2 2 3.25127 5.65502 0.630849 32 0 1 91.8506 -15.5233 3.72447 -428.74 1110.91 275.729 0 0 0 0.5 
227 1 1 4.47422 9.31632 1.96419 -118 -1 1 448.65 1.58517 1.69178 448.719 1942.29 -1298.56 0 0 0 0.5 
916 2 2 1.91464 9.59194 1.53427 -97 -1 0 475.033 7.78725 22.099 3124.03 -949.403 924.115 0 0 0 0.5 
670 2 2 0.643512 9.48876 0.566383 -71 -1 1 450.005 24.0552 1.99802 -1348.05 2789.92 540.705 0 0 0 0.5 
387 1 1 2.87252 7.37211 1.94502 -180 -1 0 284.066 -16.6613 -17.5304 -4242.14 -29.6864 1.92696 0 0 0 0.5 
996 2 2 4.49362 9.56038 0.0945467 -67 -1 0 441.03 8.254 8.92211 -2502.07 440.753 859.737 0 0 0 0.5 
894 2 2 3.54745 5.27391 1.69565 10 0 0 32.961 2.68337 -3.25556 1540.99 -1220.52 583.926 0 0 0 0.5 
202 1 1 0.0385284 8.01304 0.0854011 99 0 0 315.443 1.94589 22.3756 2576.09 -2724.24 460.501 0 0 0 0.5 
931 2 2 2.53573 5.17658 1.93079 30 0 0 37.416 -5.40131 -17.3662 508.003 694.198 114.833 0 0 0 0.5 
545 2 2 4.34903 7.88278 1.55446 115 0 -1 296.648 -12.0084 -3.54538 -432.749 636.719 -641.12 0 0 0 0.5 
962 2 2 0.34945 9.07285 1.38052 -130 -1 0 436.366 -10.366 0.875755 -1687.05 2080.05 2787.73 0 0 0 0.5 
802 2 2 0.973811 9.4605 1.9272 35 0 1 438.185 9.45503 -2.9016 1037.66 370.191 2917.94 0 0 0 0.5 
118 1 1 0.128951 8.48623 0.819023 159 0 1 364.729 10.0879 18.2725 435.353 1398.7 -202.522 0 0 0 0.5 
883 2 2 2.87689 6.43569 0.765665 2 0 0 166.101 23.8611 -14.3493 698.879 339.885 23.5462 0 0 0 0.5 
414 1 1 4.51037 8.50863 0.917299 127 0 0 354.421 0.94981 -6.95295 -1810.1 44.0895 742.529 0 0 0 0.5 