ITEM: TIMESTEP
30000
ITEM: NUMBER OF ATOMS
1000
ITEM: BOX BOUNDS xy xz yz pp pp pp
0 10 0
0 10 0
-0 10 0
ITEM: ATOMS id type type x y z ix iy iz vx vy vz fx fy fz omegax omegay omegaz radius 
186 1 1 3.44167 0.588364 1.32893 100 1 0 -429.483 6.80737 1.30233 2023.24 -809.925 -1313.13 0 0 0 0.5 
542 2 2 1.15519 0.212648 1.94641 -169 0 1 -488.277 9.41299 11.6242 2063.26 1884.57 312.798 0 0 0 0.5 
190 1 1 2.93683 3.35439 1.45523 -29 0 1 -148.297 -7.99231 -12.2183 -1388.73 -1065.09 -1288.83 0 0 0 0.5 
566 2 2 1.5691 3.02042 0.918542 195 1 1 -222.209 21.6973 8.38216 342.534 -1132.8 -1385.13 0 0 0 0.5 
923 2 2 2.14875 0.768733 1.05119 107 1 0 -414.547 7.71124 39.1442 445.175 2011.21 1798.34 0 0 0 0.5 
541 2 2 4.48541 3.06268 1.93466 108 1 0 -140.121 2.08238 -6.54678 -1583.54 -351.614 -937.163 0 0 0 0.5 
38 1 1 3.20038 1.98816 0.135831 -67 0 1 -307.503 -6.15049 6.30111 -520.324 866.938 3065.04 0 0 0 0.5 
157 1 1 4.13735 3.77775 0.889651 -44 0 1 -136.438 -3.68842 -10.3519 -1738.48 -2236.48 -50.9734 0 0 0 0.5 
597 2 2 0.387332 1.7074 1.57459 -69 0 1 -345.955 3.71871 4.9337 4043.44 126.628 -281.053 0 0 0 0.5 
603 2 2 3.62608 1.45461 0.802187 141 1 0 -322.168 -10.8713 -9.1735 -385.371 -673.659 2939.85 0 0 0 0.5 
783 2 2 2.563 1.71175 0.749014 -39 0 1 -320.002 -24.1647 17.9209 277.068 1051.88 287.899 0 0 0 0.5 
935 2 2 1.6629 1.66475 0.288044 -40 0 1 -325.189 9.653 1.60002 391.412 1246.7 2031.73 0 0 0 0.5 
731 2 2 1.01419 1.18068 1.45465 235 1 0 -365.732 -13.1356 16.295 -141.291 -530.651 1052.57 0 0 0 0.5 
766 2 2 1.68878 3.35183 0.122804 -62 0 1 -180.86 20.2978 -4.81725 -2297.37 2239.04 53.9275 0 0 0 0.5 
645 2 2 1.53829 0.955393 0.824945 71 1 0 -406.704 -3.44125 -3.3086 -961.619 509.68 -1712.13 0 0 0 0.5 
908 2 2 0.63132 2.53418 1.10191 -64 0 1 -252.952 14.5377 6.52389 -3411.17 -422.017 1223.81 0 0 0 0.5 
954 2 2 0.441635 1.32103 0.701072 145 1 0 -347.227 -18.2682 -12.3732 2494.82 -728.782 -1.87175 0 0 0 0.5 
826 2 2 1.37006 3.37382 1.72354 195 1 0 -181.009 22.7087 18.0174 1094.5 -2827.71 -1571.23 0 0 0 0.5 
424 1 1 1.23434 2.30626 0.449302 -9 0 1 -298.324 21.7913 -9.76317 3712.93 2999.4 469.412 0 0 0 0.5 
450 1 1 0.365781 2.16772 0.219639 88 1 0 -243.765 0.86856 -1.35435 -4010.93 598.185 -2.30462 0 0 0 0.5 
408 1 1 4.27612 4.49878 1.32429 -6 0 0 -69.9492 1.16724 -0.540351 -1033.63 -527.205 -1788.31 0 0 0 0.5 
486 1 1 1.53262 2.25909 1.35642 127 1 1 -287.721 -8.87899 -9.97021 1528.03 -540.887 919.532 0 0 0 0.5 
765 2 2 2.48613 3.25471 0.605622 156 1 0 -210.166 22.5245 3.66775 1036.82 -1727.53 2010.68 0 0 0 0.5 
990 2 2 1.95964 3.99092 1.12945 7 0 0 -90.3158 6.03501 8.63941 214.537 72.3974 -279.617 0 0 0 0.5 
9 1 1 0.147688 4.05169 1.70624 189 1 0 -61.5977 -26.7333 -12.2406 -3.56644 28.8163 0.990284 0 0 0 0.5 
768 2 2 2.5571 2.52548 1.24045 -109 0 -1 -268.686 4.53544 29.2467 -419.932 1995.88 -2282.06 0 0 0 0.5 
32 1 1 2.5747 0.0507859 0.697414 155 1 0 -537.598 8.01984 24.581 1389.49 -2308.2 -2856.47 0 0 0 0.5 
531 2 2 3.67496 3.06517 1.69333 -53 0 0 -152.844 -19.6712 8.63384 214.501 -421.641 654.422 0 0 0 0.5 
999 2 2 4.50332 2.70032 1.02258 -32 0 0 -258.084 17.2457 1.59795 1522.5 -185.81 -349.713 0 0 0 0.5 
181 1 1 1.25139 0.0377105 0.500226 69 1 0 -543.307 -0.668438 30.3428 164.221 -466.784 -238.461 0 0 0 0.5 
138 1 1 3.55962 3.7469 0.0520704 -41 0 1 -159.097 10.5205 -9.26845 -3219.83 -52.2366 -1112.06 0 0 0 0.5 
582 2 2 0.356253 3.30079 0.175896 4 0 0 -134.663 -11.7982 23.3338 -1153.26 -197.867 1279.01 0 0 0 0.5 
881 2 2 3.35321 4.08282 0.812871 -12 0 0 -102.883 13.7199 9.65344 -1067.49 -1324.08 34.8036 0 0 0 0.5 
149 1 1 2.88181 4.17881 1.55609 -8 0 0 -95.895 9.87725 4.23682 -1454.4 605.476 890.69 0 0 0 0.5 
316 1 1 1.17365 0.702039 0.00772941 -92 0 0 -406.07 5.10116 1.30141 1247.83 -3028.26 -799.577 0 0 0 0.5 
944 2 2 -0.0163584 4.08565 0.361294 -76 0 1 -89.5969 18.347 20.7358 -797.113 17.4474 1237.17 0 0 0 0.5 
347 1 1 0.0376594 4.9407 1.73679 -11 0 0 -23.265 -1.53028 -10.1022 -200.92 64.5552 668.544 0 0 0 0.5 
769 2 2 2.88885 1.88173 1.81677 -10 0 1 -319.175 0.761727 18.1846 695.364 -1349.31 1207.97 0 0 0 0.5 
318 1 1 3.99218 2.25778 0.327589 -65 0 1 -308.46 23.7556 26.8377 2278.14 -3391.93 -1442.47 0 0 0 0.5 
159 1 1 2.74856 0.865827 1.77878 163 1 0 -394.746 -4.21196 15.8944 -1481 897.7 1970.89 0 0 0 0.5 
212 1 1 4.43494 0.149186 1.8988 157 1 0 -468.815 5.77362 3.65053 2105.62 -4453.85 -3171.96 0 0 0 0.5 
416 1 1 3.62881 2.95692 0.811882 -75 0 0 -244.228 -1.92331 1.06583 -1706.92 5445.5 1286.5 0 0 0 0.5 
369 1 1 2.53662 4.18563 0.377442 -37 0 1 -90.5072 10.8439 -7.02853 -253.094 1029.65 -89.1772 0 0 0 0.5 
548 2 2 4.79615 0.966638 0.944474 -85 0 1 -347.428 -12.712 9.10811 -2071.77 3551.71 1757.23 0 0 0 0.5 
341 1 1 4.75817 3.56746 1.21619 21 0 0 -150.589 10.6334 -6.87564 1663.63 -936.2 496.151 0 0 0 0.5 
222 1 1 4.87693 1.93346 0.710717 173 1 1 -294.919 -2.72338 -26.6145 -4168.65 1811.66 927.878 0 0 0 0.5 
819 2 2 0.828548 3.19186 3.72453 -45 0 1 -151.792 -9.20814 -12.8262 2105.68 -1674.34 274.077 0 0 0 0.5 
117 1 1 2.47291 0.292366 2.88325 -119 0 0 -452.834 14.7271 -27.9515 657.624 28.4707 -651.716 0 0 0 0.5 
557 2 2 0.240068 0.261497 2.27544 111 1 0 -471.098 14.6351 -10.4034 111.96 -84.8689 -1817.75 0 0 0 0.5 
323 1 1 3.68437 4.2202 2.07554 -170 -1 0 -90.8262 -2.41102 -7.4242 2269.51 -82.7676 -925.806 0 0 0 0.5 
584 2 2 1.12029 1.77666 2.21577 -58 0 1 -317.59 3.61492 7.25427 -886.418 -122.24 -694.142 0 0 0 0.5 
395 1 1 0.356342 0.256499 3.72299 75 1 0 -497.237 4.16141 4.66578 982.566 1184.55 1510.46 0 0 0 0.5 
378 1 1 0.893203 1.13812 3.82645 -116 0 0 -345.255 -22.2355 -9.39311 1415.36 2466.62 1326.85 0 0 0 0.5 
410 1 1 2.93381 2.05535 3.64619 -35 0 0 -240.4 0.960139 1.35092 -2193.64 1508.37 -1455.03 0 0 0 0.5 
380 1 1 3.86352 2.83726 2.84303 -41 0 1 -193.837 2.76953 9.48234 -1357.15 2660.45 -304.568 0 0 0 0.5 
137 1 1 0.165198 0.626716 3.15382 -138 0 0 -447.857 -1.60324 -33.8837 2157.53 -289.039 -156.152 0 0 0 0.5 
263 1 1 1.8702 0.706801 3.27459 -39 0 1 -454.614 8.22171 3.97581 -718.593 130.659 -200.806 0 0 0 0.5 
47 1 1 3.27423 0.39768 3.55464 -77 0 0 -435.393 -0.643067 -29.9568 -1965.62 3325 -370.433 0 0 0 0.5 
939 2 2 0.633752 3.04157 2.743 -36 0 0 -182.825 -11.9888 -16.102 -1370.28 583.756 3296.29 0 0 0 0.5 
770 2 2 1.85691 4.26539 3.43503 -44 0 0 -84.862 -0.712284 -6.0279 -202.536 39.339 -20.8186 0 0 0 0.5 
79 1 1 1.56326 1.08398 2.1621 -75 0 1 -353.384 -16.8361 20.4179 583.646 -3163.86 -176.896 0 0 0 0.5 
510 2 2 2.53607 4.0859 2.55589 -38 0 0 -98.8503 14.6913 8.99899 -672.822 -1341.45 -869.369 0 0 0 0.5 
214 1 1 2.02056 2.30928 2.14408 -5 0 0 -301.391 18.5944 10.6113 2945.14 91.6634 1048.93 0 0 0 0.5 
772 2 2 3.42016 4.04534 2.96569 -58 0 1 -94.3876 7.09568 -5.78081 -252.727 -304.002 -1214.87 0 0 0 0.5 
147 1 1 1.14826 2.58547 2.03865 -95 0 0 -273.063 17.3264 29.2525 747.882 -193.557 -4591.22 0 0 0 0.5 
333 1 1 2.30965 3.23376 2.10054 -11 0 0 -159.836 3.60402 -8.34851 -279.785 -100.485 1634.41 0 0 0 0.5 
633 2 2 0.286558 1.46027 2.94474 -122 0 1 -380.288 14.7434 4.89283 3570.07 -2365.64 518.5 0 0 0 0.5 
308 1 1 4.10308 1.25205 3.27586 -48 0 1 -329.093 -22.0474 -20.0855 68.9556 -854.799 404.545 0 0 0 0.5 
277 1 1 1.56968 2.37085 3.29911 -116 0 1 -217.765 -7.61728 -8.6079 -178.615 1159.71 -0.706179 0 0 0 0.5 
478 1 1 2.35285 2.85683 2.92824 -3 0 1 -179.22 -1.27858 21.5375 -896.49 -446.949 -117.241 0 0 0 0.5 
354 1 1 0.346967 2.11327 2.45853 -28 0 1 -309.799 40.157 -8.07425 -216.849 658.253 44.5539 0 0 0 0.5 
361 1 1 2.3734 1.89727 2.98378 -33 0 0 -248.479 -14.4489 -8.11068 -2822.06 2876.02 53.4186 0 0 0 0.5 
886 2 2 4.68927 4.48432 2.96385 211 1 0 -35.2739 -19.0884 29.0286 -2350.3 173.092 364.151 0 0 0 0.5 
110 1 1 3.99182 0.695559 2.46131 -48 0 1 -364.201 -18.3844 -13.9324 -2625.25 3500.52 2982.89 0 0 0 0.5 
445 1 1 4.1113 3.63744 2.58792 -20 0 0 -88.0084 -4.39724 2.529 326.549 -6.41313 1132.77 0 0 0 0.5 
725 2 2 3.09473 3.15301 3.59415 -31 0 0 -152.579 -13.6402 -8.14558 -1921.2 429.837 -651.31 0 0 0 0.5 
102 1 1 2.78085 4.08593 3.53001 -1 0 -1 -80.1754 0.148278 12.6789 -775.058 424.23 -349.421 0 0 0 0.5 
872 2 2 2.0814 4.99315 2.69014 -3 0 0 -6.76208 -5.66055 15.4762 0 0 0 0 0 0 0.5 
495 1 1 0.414229 3.8945 3.80513 -57 0 1 -85.0096 -11.7846 -9.94245 -806.19 1121.77 758.498 0 0 0 0.5 
370 1 1 0.688659 4.54557 3.02701 -17 0 0 -29.1444 -6.89653 -1.60195 2246.34 -906.685 124.702 0 0 0 0.5 
100 1 1 1.06283 3.97189 2.28606 -12 0 0 -88.2546 3.5826 5.1986 -1432.17 2787.93 2622.2 0 0 0 0.5 
895 2 2 3.95371 3.92623 3.62616 -74 0 0 -121.19 13.5996 10.6685 766.463 137.612 292.381 0 0 0 0.5 
807 2 2 2.91675 1.39663 2.73583 -48 0 0 -319.797 -17.8576 -7.62039 3131.94 -3099.76 -1450.8 0 0 0 0.5 
350 1 1 3.83785 2.93669 3.81718 110 1 0 -182.19 -5.06461 4.62998 1037.96 -2250.81 -1561.21 0 0 0 0.5 
905 2 2 4.96074 2.15201 2.96879 -38 0 0 -245.804 -24.7059 12.6035 2473.64 1216.67 1243.82 0 0 0 0.5 
496 1 1 0.202576 3.63613 2.8553 92 0 0 -146.941 23.2541 -19.0404 -557.875 1882.57 730.423 0 0 0 0.5 
533 2 2 4.33906 2.464 2.44338 220 1 0 -215.046 -19.8936 -15.8759 -795.943 -2749.25 -1608.65 0 0 0 0.5 
3 1 1 3.18619 4.96054 2.89131 50 0 0 -26.7985 22.1419 19.3485 -74.758 773.764 430.756 0 0 0 0.5 
647 2 2 3.81457 1.65458 2.43547 -72 0 0 -329.168 3.0823 -16.9576 1361.12 1071.09 139.697 0 0 0 0.5 
931 2 2 0.107248 4.60614 3.74841 28 0 0 -44.2327 7.80651 -4.56058 2084.01 1957.96 -311.037 0 0 0 0.5 
389 1 1 3.85566 2.15236 3.27977 -48 0 0 -240.573 -10.3125 -8.21324 -494.171 -361.889 1225.35 0 0 0 0.5 
446 1 1 4.61424 4.72236 2.15407 -36 0 1 -75.543 10.531 22.9897 2800.53 -1296.77 1172.96 0 0 0 0.5 
409 1 1 2.98909 4.86255 2.00812 244 1 1 -27.3248 23.9754 11.6438 1125.57 861.996 1527.18 0 0 0 0.5 
925 2 2 1.89083 1.84055 5.10302 76 1 0 -286.399 -6.3883 7.80362 -1309.36 -2048.77 578.048 0 0 0 0.5 
83 1 1 1.83397 0.309175 4.85013 123 1 0 -447.437 3.65573 -8.05112 491.295 -68.9713 -544.312 0 0 0 0.5 
437 1 1 4.11365 2.76112 4.7509 -82 0 0 -204.101 9.51929 5.09972 -525.825 2798.52 -1479.32 0 0 0 0.5 
742 2 2 4.21894 4.49138 5.43205 5 0 -1 -4.16937 15.0532 0.241121 1476.09 306.657 -1403.29 0 0 0 0.5 
22 1 1 0.268233 1.28833 5.03642 91 1 0 -407.526 18.1958 13.5717 0 0 0 0 0 0 0.5 
653 2 2 4.57023 2.82753 4.02096 187 1 0 -191.732 3.69477 -6.77549 3185.82 16.945 481.941 0 0 0 0.5 
439 1 1 1.33431 1.88395 4.23086 -33 0 0 -247.426 -10.0732 23.0169 -1799.74 -905.945 68.5609 0 0 0 0.5 
483 1 1 1.36521 1.06571 5.29978 104 1 0 -381.877 -7.31835 6.18634 -2009.63 2371.31 -1049.15 0 0 0 0.5 
635 2 2 2.50509 3.99208 5.78011 -213 -1 0 -50.912 -20.4079 -26.9908 -408.222 -1879.74 -2454.13 0 0 0 0.5 
609 2 2 1.86522 3.54823 5.19245 -36 0 0 -127.065 -10.1821 17.4436 -147.699 346.846 659.57 0 0 0 0.5 
744 2 2 0.920188 0.234791 5.04891 102 1 0 -464.139 -10.8274 0.510551 104.867 2131.27 1278.64 0 0 0 0.5 
896 2 2 2.8017 4.95243 5.09364 -9 0 -1 12.6865 5.90039 -21.1284 2833.74 970.566 -1473.08 0 0 0 0.5 
829 2 2 2.08599 0.795291 5.90832 -29 0 0 -410.955 12.6008 -12.9063 2171.87 -369.054 325.724 0 0 0 0.5 
271 1 1 2.57038 4.28739 4.39208 -49 0 0 -49.8923 3.39495 10.8935 1026.67 28.7622 653.668 0 0 0 0.5 
282 1 1 4.22495 0.0136432 5.88003 153 1 0 -432.486 -24.6768 -21.9448 137.733 1590.14 -777.051 0 0 0 0.5 
493 1 1 3.93408 0.228543 4.78094 158 1 0 -468.767 4.64326 -19.6651 -527.249 446.565 7.63919 0 0 0 0.5 
16 1 1 2.63196 3.39953 4.9718 -93 0 0 -121.707 -2.75364 -4.00496 -329.558 -51.4 -690.092 0 0 0 0.5 
844 2 2 3.21503 0.87073 4.46588 102 1 0 -382.443 -9.92623 -1.01742 450.136 -2982.11 521.308 0 0 0 0.5 
228 1 1 1.97282 2.55796 4.63009 -87 0 1 -212.086 4.99769 -4.1889 77.0701 280.521 -189.033 0 0 0 0.5 
251 1 1 0.360048 2.54693 5.36929 -39 0 0 -261.409 13.8211 -10.1921 1294.93 417.157 898.605 0 0 0 0.5 
78 1 1 2.29731 3.29434 4.12272 6 0 1 -136.591 -8.57387 0.694348 -920.642 -114.53 -174.889 0 0 0 0.5 
173 1 1 2.47446 1.87086 5.97167 119 1 0 -296.639 5.3964 23.6947 0 0 0 0 0 0 0.5 
284 1 1 1.76218 4.33047 4.68393 -91 0 0 -61.1625 -10.2567 -3.15995 651.239 -1660.83 1617.57 0 0 0 0.5 
460 1 1 1.06911 3.43678 5.67169 -11 0 0 -113.46 -9.51406 36.4657 -631.873 -88.4596 380.369 0 0 0 0.5 
741 2 2 4.6147 3.7436 4.28514 -95 0 0 -130.539 13.0846 10.9995 -3.39618 -275.448 824.894 0 0 0 0.5 
580 2 2 2.78789 0.260634 5.12136 133 1 0 -440.52 -2.28679 0.738657 -193.996 2354.63 -1186.02 0 0 0 0.5 
625 2 2 3.67398 1.71453 5.01841 -17 0 0 -277.595 -18.8678 9.85617 -78.5019 175.198 -232.586 0 0 0 0.5 
98 1 1 1.84053 1.14459 4.06026 -32 0 0 -349.366 -10.1529 22.7984 2156.52 -2742.17 -25.827 0 0 0 0.5 
206 1 1 3.53445 4.43371 4.55914 -55 0 1 -39.0058 9.14767 -3.47027 639.022 -2684.17 46.0705 0 0 0 0.5 
641 2 2 0.809193 2.34036 4.03068 -18 0 0 -240.587 -0.654767 6.71287 -1817.51 703.464 -376.481 0 0 0 0.5 
748 2 2 3.67325 1.66993 4.05143 144 1 -1 -302.527 -5.58578 2.51678 4387.53 -1594.12 -136.402 0 0 0 0.5 
821 2 2 4.08969 0.883277 5.73587 137 1 0 -397.742 8.51469 -7.81694 836.957 -2238.14 -300.352 0 0 0 0.5 
75 1 1 3.31662 3.35629 5.3243 139 1 1 -119.014 11.6702 -1.4846 -657.199 -1451.95 -915.912 0 0 0 0.5 
15 1 1 3.72614 1.79421 5.88957 -72 0 1 -325.451 -10.7271 19.611 -1311.2 2679.55 202.95 0 0 0 0.5 
325 1 1 4.77737 0.214777 4.4019 86 1 -1 -460.686 -1.46829 -13.1445 -56.2723 -98.2847 -297.24 0 0 0 0.5 
529 2 2 4.16465 3.66679 5.04814 -10 0 0 -117.127 6.37829 1.11003 -450.495 375.956 1077.59 0 0 0 0.5 
188 1 1 3.49434 3.56757 4.36845 20 0 0 -117.335 -12.917 0.193445 -1721.7 1545.43 947.007 0 0 0 0.5 
464 1 1 0.825145 4.40174 4.94691 22 0 0 -49.0971 16.9961 22.556 40.8215 144.71 -115.286 0 0 0 0.5 
33 1 1 2.86447 1.76796 4.53642 179 1 0 -276.023 -12.2679 0.161627 -2809.73 2455.8 1284.39 0 0 0 0.5 
792 2 2 3.371 4.49433 5.38923 139 1 0 -7.38444 -24.3881 20.2418 186.111 -991.872 -1760.42 0 0 0 0.5 
579 2 2 -0.0100879 3.05574 4.36367 -28 0 0 -196.563 14.1591 -18.4942 -627.345 -1658.95 1301.56 0 0 0 0.5 
220 1 1 2.9943 2.42208 5.22308 208 1 0 -195.303 -10.4958 -4.57412 608.248 2177.81 177.556 0 0 0 0.5 
862 2 2 1.00373 3.69308 4.47648 -33 0 0 -78.2644 -8.84763 15.3053 -363.953 -820.295 -1357.92 0 0 0 0.5 
514 2 2 3.93119 2.52495 5.46145 -56 0 0 -191 -15.1056 -10.7646 -518.947 -4013.06 806.204 0 0 0 0.5 
177 1 1 0.115678 4.61816 5.53359 53 0 0 -61.6832 22.7983 2.66675 -101.585 527.891 1672.22 0 0 0 0.5 
691 2 2 4.46147 1.94549 4.63992 111 1 0 -285.091 10.3617 -7.2478 1436.11 -2009.14 468.646 0 0 0 0.5 
660 2 2 4.50245 3.61339 5.94121 21 0 0 -122.51 -8.28781 -2.36824 478.715 -633.81 353.829 0 0 0 0.5 
501 2 2 4.63856 1.71995 5.59087 105 1 0 -323.359 5.72628 11.9048 553.811 1346.78 -2142.22 0 0 0 0.5 
662 2 2 4.71827 1.34424 4.04577 -51 0 1 -334.076 -16.0704 -15.4801 -156.885 460.372 906.336 0 0 0 0.5 
572 2 2 4.89025 2.55529 5.35252 -63 0 0 -195.933 9.58023 2.57813 -1378.84 -846.716 -351.609 0 0 0 0.5 
737 2 2 1.30239 2.75011 6.95221 -41 0 0 -208.222 -20.8894 -13.8338 465.235 -1029.72 -1020.55 0 0 0 0.5 
974 2 2 2.1063 3.45162 7.60463 262 1 0 -150.954 18.0454 -18.9217 1027.38 -116.625 86.0459 0 0 0 0.5 
762 2 2 2.01174 1.25902 7.69756 -86 0 0 -362.451 -6.43589 -1.90996 -2015.3 1219.4 -1414.89 0 0 0 0.5 
750 2 2 1.4285 0.24178 7.5887 -93 0 0 -455.671 2.96838 -6.31983 -557.415 -106.592 -2328.02 0 0 0 0.5 
810 2 2 3.14882 4.97346 6.06082 47 0 0 22.864 -11.856 5.59112 -484.777 -358.726 1462.81 0 0 0 0.5 
651 2 2 4.10474 3.63553 6.86088 28 0 -1 -124.264 -3.07293 -22.322 -1843.55 2366.21 -1350.92 0 0 0 0.5 
652 2 2 0.106772 1.99608 6.20181 -9 0 0 -276.847 -18.1242 -21.1934 3224.68 431.726 1137.36 0 0 0 0.5 
952 2 2 4.76382 3.02335 7.03933 31 0 0 -252.215 3.73178 -16.5769 5942.45 -1004.88 -2081.59 0 0 0 0.5 
771 2 2 0.482268 0.0607866 7.25211 -96 0 0 -469.413 10.4466 -6.14367 555.854 -763.232 -1558.02 0 0 0 0.5 
509 2 2 4.66787 0.944865 6.90798 -76 0 0 -422.812 -3.83896 -7.36031 -435.273 288.233 -231.206 0 0 0 0.5 
485 1 1 2.25151 2.73964 7.01324 -85 0 1 -210.438 -10.2385 -5.70507 649.282 -330.839 -231.963 0 0 0 0.5 
459 1 1 2.51155 4.46683 6.77956 20 0 0 -34.856 -12.3043 4.44341 -619.849 586.835 552.043 0 0 0 0.5 
454 1 1 1.88503 0.987885 6.82889 143 1 0 -402.361 -7.51009 4.59328 1369.8 -1648.53 1156.54 0 0 0 0.5 
399 1 1 3.77877 0.773009 6.68266 -97 0 -1 -414.01 -2.45569 -11.1722 769.324 -2157.71 -593.18 0 0 0 0.5 
105 1 1 0.655702 1.05476 6.91171 95 1 0 -386.09 -12.9517 2.37636 2259.88 -393.863 16.3748 0 0 0 0.5 
913 2 2 1.57089 3.79184 6.91496 -5 0 0 -157.191 9.39368 -24.5532 -226.224 143.753 -291.405 0 0 0 0.5 
577 2 2 0.609967 1.33411 7.79074 122 1 -1 -356.32 -0.282423 16.681 432.679 -381.993 -104.323 0 0 0 0.5 
626 2 2 1.46668 1.3847 6.21787 -33 0 -1 -347.485 10.8048 12.207 -3417.27 3006.26 -1685.35 0 0 0 0.5 
348 1 1 1.38308 3.86649 7.90044 -14 0 0 -153.208 11.6025 -10.8596 1344.32 357.307 2046.24 0 0 0 0.5 
338 1 1 2.51009 0.102307 7.54268 63 1 0 -504.329 10.5583 -19.5515 -776.85 1598.48 -1329.8 0 0 0 0.5 
620 2 2 0.262634 2.81443 6.64927 -3 0 0 -229.237 11.8837 -16.383 -224.171 -1177 -643.571 0 0 0 0.5 
665 2 2 0.39927 0.195084 6.28779 85 1 1 -503.704 34.8887 -4.65647 421.657 -337.354 644.116 0 0 0 0.5 
242 1 1 4.18474 4.38795 6.28457 -215 -1 0 -66.1332 20.9408 -3.99554 1394.35 -3345.39 510.268 0 0 0 0.5 
708 2 2 2.78224 0.986818 7.83432 -104 0 0 -404.059 -7.20601 -7.86066 977.898 -1257.39 436.983 0 0 0 0.5 
611 2 2 0.800157 3.2465 7.42316 -32 0 0 -167.749 1.29523 -2.57101 -470.926 423.897 817.015 0 0 0 0.5 
940 2 2 3.6837 2.99599 6.00527 19 0 -1 -137.999 7.92496 -24.0745 483.994 1737.15 1126.05 0 0 0 0.5 
544 2 2 1.97495 4.46554 6.04019 12 0 0 -21.5367 -6.61602 -1.69863 -646.69 424.637 -722.304 0 0 0 0.5 
192 1 1 0.432934 4.85122 7.21617 25 0 0 6.16999 7.73947 0.0975884 1271.02 148.103 -700.751 0 0 0 0.5 
658 2 2 4.34961 2.95094 7.93644 -34 0 0 -194.702 -9.39085 -51.3487 -2374.92 4497.24 3205.68 0 0 0 0.5 
845 2 2 0.56691 4.13907 7.56867 -25 0 0 -130.446 3.11487 17.469 -2027.85 -635.043 337.564 0 0 0 0.5 
352 1 1 3.83109 2.63497 6.47035 -65 0 0 -182.844 -4.68751 6.36989 -2792.69 1159.87 3508.7 0 0 0 0.5 
224 1 1 4.40779 0.0724009 7.50853 -114 0 0 -526.334 28.5557 -0.652506 156.988 1599.73 -386.776 0 0 0 0.5 
481 1 1 2.02172 4.89468 7.52694 73 0 -1 -12.009 -3.04758 16.5318 1233.06 -1763.73 1580.49 0 0 0 0.5 
618 2 2 2.53676 0.114824 6.00274 -51 0 1 -467.126 -7.30555 0.378421 777.103 -1376.03 -628.912 0 0 0 0.5 
104 1 1 3.12879 3.95934 6.17515 2 0 0 -57.3277 22.1796 6.20912 740.518 591.876 761.921 0 0 0 0.5 
321 1 1 0.0977248 3.94339 6.51896 0 0 -1 -132.399 12.0117 -1.58583 1015.9 170.744 193.086 0 0 0 0.5 
56 1 1 3.46229 2.13081 6.88282 -38 0 0 -316.76 4.82186 10.6885 1438.6 1889.3 -1546.75 0 0 0 0.5 
187 1 1 4.18305 4.40192 7.53746 -75 0 0 -61.317 8.38254 -6.69707 1233.48 95.2982 888.256 0 0 0 0.5 
863 2 2 2.44373 2.0476 7.94892 -36 0 0 -262.72 -35.5591 -15.8989 -247.271 -560.874 -362.508 0 0 0 0.5 
816 2 2 1.24416 4.76067 6.54458 -3 0 0 16.7406 -7.95722 -4.57334 675.763 -357.575 2456.42 0 0 0 0.5 
72 1 1 3.72887 0.0350834 7.0695 135 1 0 -529.066 -8.91622 26.6526 -1019.65 1193.88 359.372 0 0 0 0.5 
472 1 1 3.15322 4.28654 7.97164 15 0 0 -54.524 -1.21238 8.54705 239.794 1083.32 -1605.9 0 0 0 0.5 
827 2 2 3.26544 3.29644 6.44484 -40 0 0 -138.754 0.283137 28.0094 -3120.14 1946.96 -2007.16 0 0 0 0.5 
794 2 2 3.11854 1.05609 6.19848 34 0 0 -413.481 18.2773 -0.235508 -1017.39 436.213 -746.105 0 0 0 0.5 
640 2 2 3.11937 2.43808 7.94839 -101 0 0 -277.614 34.6332 6.16916 3840.48 876.789 -1252.82 0 0 0 0.5 
910 2 2 3.40892 4.34211 6.97999 -28 0 1 -47.5277 -5.43678 10.6612 -1549.25 1995.52 491.21 0 0 0 0.5 
343 1 1 3.46343 0.791854 7.74202 -33 0 0 -400.635 -13.6508 -11.2925 119.042 -2967.15 -965.658 0 0 0 0.5 
754 2 2 3.33937 2.9998 7.25854 -78 0 0 -228.482 15.0365 -7.33239 750.981 -606.081 2866.32 0 0 0 0.5 
703 2 2 3.47007 1.40933 7.10574 -123 0 0 -391.88 -0.365769 -8.34583 -703.353 -177.806 1465.25 0 0 0 0.5 
208 1 1 3.57784 1.87589 7.80887 -7 0 0 -292.921 -5.92028 20.2174 928.069 -1263.54 -939.834 0 0 0 0.5 
43 1 1 4.3331 2.05419 6.46793 -84 0 0 -296.557 5.46784 -6.77168 1870.76 -3556.12 2273.06 0 0 0 0.5 
586 2 2 0.798664 1.55122 9.83482 167 1 0 -287.839 -31.2403 -10.3371 -3289.73 2834.7 -1027.04 0 0 0 0.5 
536 2 2 4.21815 0.00633966 9.74537 -126 0 -1 -532.98 15.0737 7.16072 1328.8 -4532.96 1475.74 0 0 0 0.5 
141 1 1 2.13009 0.324081 8.29624 -30 0 0 -486.286 9.00559 -18.9457 -285.175 518.913 1303.93 0 0 0 0.5 
23 1 1 -0.00648923 0.754944 9.45686 -91 0 0 -383.888 -16.1678 -1.69161 1603.68 -467.73 100.84 0 0 0 0.5 
400 1 1 1.96007 0.859228 9.03836 -98 0 -1 -404.308 15.6957 8.85743 -4322.97 3327.6 901.121 0 0 0 0.5 
335 1 1 1.47789 2.49249 9.44408 -58 0 0 -210.911 -5.03642 1.82654 -984.234 -950.228 1537.86 0 0 0 0.5 
956 2 2 1.43761 2.81864 8.45428 -69 0 0 -184.971 -19.1264 -13.9312 -4723.17 1288.92 -141.541 0 0 0 0.5 
425 1 1 1.04071 0.408262 8.22065 -105 0 0 -432.751 7.17368 10.5756 -771.019 549.838 -346.429 0 0 0 0.5 
487 1 1 2.05592 1.10837 9.94184 -92 0 -1 -400.209 1.82855 7.07094 2339.16 -2832.6 -1134.9 0 0 0 0.5 
969 2 2 1.12019 0.0606138 9.49064 89 1 -1 -511.659 -12.9066 -0.582769 -491.752 -64.3228 -58.2437 0 0 0 0.5 
960 2 2 4.00947 1.44746 9.95231 147 1 0 -367.73 0.772241 3.09379 3159.83 -945.907 -2251.12 0 0 0 0.5 
476 1 1 0.237697 0.278288 8.00938 -43 0 0 -430.893 -19.8337 -8.53616 -2027.59 577.053 2359.54 0 0 0 0.5 
608 2 2 2.24684 3.33269 8.7939 -37 0 0 -188.09 21.5971 -5.02523 -183.333 -1649.48 358.48 0 0 0 0.5 
805 2 2 1.50813 1.45491 8.34106 -85 0 -1 -343.16 -1.34781 -1.71119 -1176.73 178.619 199.703 0 0 0 0.5 
995 2 2 1.07648 0.837265 9.03762 -103 0 0 -409.335 -7.22269 -10.4572 -195.058 2838.71 2257.63 0 0 0 0.5 
27 1 1 2.62888 0.40319 8.82823 -90 0 0 -497.21 36.3145 20.665 5962.45 -2910.58 -614.585 0 0 0 0.5 
218 1 1 2.28938 2.90572 9.78144 22 0 -1 -206.299 15.7898 -16.9412 636.207 637.267 -1449.81 0 0 0 0.5 
61 1 1 1.43871 1.67054 9.31094 -105 0 0 -281.489 -15.819 -22.2291 -27.0766 -1591.33 330.764 0 0 0 0.5 
440 1 1 1.91493 4.11755 9.6461 21 0 0 -66.0445 4.22943 -18.8692 -569.805 -423.633 -308.203 0 0 0 0.5 
983 2 2 3.87074 4.56474 9.37282 14 0 -1 -71.4793 17.1474 -5.90452 1673.8 -1327.92 2410.78 0 0 0 0.5 
761 2 2 3.33586 1.76914 9.24895 -106 0 0 -308.331 -3.07767 19.5005 -2.89006 343.174 1581.1 0 0 0 0.5 
590 2 2 2.14191 2.38862 8.99908 -3 0 -1 -257.318 -11.5665 -14.916 2334.1 400.139 623.828 0 0 0 0.5 
941 2 2 0.959933 3.11275 9.58467 -10 0 -1 -171.577 2.06726 2.07979 -63.3384 1297.99 -917.027 0 0 0 0.5 
106 1 1 0.102386 3.16307 9.20163 -41 0 -1 -163.154 0.560375 6.42455 -999.668 58.6658 -446.52 0 0 0 0.5 
180 1 1 1.06462 4.98225 8.65975 25 0 0 -37.9368 14.4628 18.2743 1908.79 -1193.51 176.838 0 0 0 0.5 
40 1 1 0.926802 3.55163 8.71523 -16 0 0 -148.894 -1.12304 -2.33073 -313.521 1427.85 296.494 0 0 0 0.5 
403 1 1 4.11381 4.16285 8.55534 1 0 -1 -88.0533 16.4474 -7.24453 -210.171 32.5281 -353.605 0 0 0 0.5 
685 2 2 0.900298 4.28186 9.30066 26 0 0 -91.7653 11.5805 27.5957 117.01 -209.945 -861.541 0 0 0 0.5 
585 2 2 2.8373 2.35036 8.80144 -83 0 0 -256.188 15.9158 -0.337358 807.031 -685.555 -1703.4 0 0 0 0.5 
201 1 1 2.90511 4.86608 9.77631 -68 0 0 -41.4008 8.75424 -4.62093 387.671 910.119 54.4364 0 0 0 0.5 
901 2 2 4.0257 0.805992 8.32447 -86 0 -1 -400.347 -9.92474 -16.3241 1773.19 -1744.3 -294.242 0 0 0 0.5 
740 2 2 3.0057 3.43774 8.04453 -52 0 0 -207.874 8.27755 14.4337 -76.4832 -447.303 35.8858 0 0 0 0.5 
74 1 1 2.15484 2.67485 8.03377 22 0 0 -213.953 7.05807 2.43923 -1336.33 1846.78 -1090 0 0 0 0.5 
530 2 2 3.87192 2.58219 9.52449 -49 0 1 -229.276 -22.2834 -15.3593 1635.92 -1362.89 -162.785 0 0 0 0.5 
18 1 1 3.38007 3.06771 9.39236 -30 0 0 -215.619 7.23979 -19.1256 -1539.57 2120.55 15.3317 0 0 0 0.5 
623 2 2 4.21187 3.57475 9.9727 -48 0 0 -160.177 22.232 3.6546 2150.61 634.06 -1599.79 0 0 0 0.5 
823 2 2 3.59338 1.36248 8.70168 169 1 -1 -364.754 -0.172297 -2.2972 1871.6 47.109 -1004.92 0 0 0 0.5 
273 1 1 2.74042 0.156904 9.781 -136 0 1 -494.227 11.8391 14.9562 234.141 83.6776 510.833 0 0 0 0.5 
565 2 2 3.87733 0.757633 9.41617 -62 0 0 -439.532 -13.6125 10.1569 -3113.51 2929 -390.752 0 0 0 0.5 
613 2 2 1.66274 4.5862 8.42409 -35 0 0 -44.6166 2.52278 6.18638 1389.67 -2071.41 -1353.9 0 0 0 0.5 
261 1 1 3.06245 4.08605 8.93414 -8 0 0 -71.7233 -3.46442 -21.1384 -142.664 -315.128 1512.84 0 0 0 0.5 
86 1 1 0.197811 3.14521 8.16301 -26 0 1 -155.463 -12.1008 9.44412 -155.386 -26.1291 190.857 0 0 0 0.5 
314 1 1 4.69522 2.9051 9.81116 -67 0 0 -224.73 -4.52115 -0.4706 1340.83 -1600.87 -802.497 0 0 0 0.5 
162 1 1 2.70948 1.42664 8.51394 95 1 -1 -346.557 -4.44821 29.4814 -1459.74 -234.615 1552.05 0 0 0 0.5 
291 1 1 2.6109 2.21835 9.82607 -85 0 0 -279.749 -16.9127 0.816146 -2459.2 -828.018 -1606.03 0 0 0 0.5 
569 2 2 4.48918 0.888232 8.9963 169 1 -1 -428.194 30.1037 20.057 -550.582 3611.2 837.351 0 0 0 0.5 
824 2 2 4.6478 3.70325 8.18466 8 0 0 -82.9969 0.473075 -39.6202 207.801 -1602.5 945.214 0 0 0 0.5 
502 2 2 4.63402 1.49771 8.12753 -110 0 0 -396.502 -10.3357 12.298 -2500.07 68.1405 -397.577 0 0 0 0.5 
904 2 2 4.62964 2.03775 9.11469 79 1 -1 -352.833 6.04671 29.6769 94.3419 428.965 -283.959 0 0 0 0.5 
69 1 1 4.69923 2.26596 8.02344 -61 0 0 -285.271 -7.3689 -14.9825 1199.49 -1916.4 1831.21 0 0 0 0.5 
281 1 1 4.79132 2.77288 8.62805 4 0 -1 -207.108 -0.220067 13.8712 -857.218 -200.483 -316.649 0 0 0 0.5 
998 2 2 4.78399 3.58303 9.11531 -131 0 0 -144.786 17.8848 12.6142 -3323.32 1505.52 -876.138 0 0 0 0.5 
842 2 2 4.94654 1.35735 9.86052 -90 0 0 -363.345 1.13232 -27.6524 144.428 -13.4946 -10.853 0 0 0 0.5 
981 2 2 4.95361 0.307902 8.78053 68 1 -1 -553.29 -11.5843 -1.70497 1250.63 -2230.51 -1659.84 0 0 0 0.5 
595 2 2 4.38405 8.13821 0.778515 90 0 1 300.819 -16.5686 -15.6631 -2069.75 515.191 952.453 0 0 0 0.5 
518 2 2 1.10668 9.5921 1.34716 -138 -1 0 457.11 -12.6419 9.80567 -12.3328 -965.265 513.059 0 0 0 0.5 
482 1 1 1.3687 7.55023 1.25807 19 0 0 203.243 4.01521 15.1058 130.724 -237.334 32.7228 0 0 0 0.5 
883 2 2 1.13327 5.95533 1.90586 -2 0 0 80.9532 11.6927 -27.4057 2091.19 -5731.9 1008.72 0 0 0 0.5 
986 2 2 3.58146 7.51739 0.473674 48 0 1 242.181 -9.9767 -8.31472 955.64 247.752 -1862.55 0 0 0 0.5 
697 2 2 3.97504 5.08762 1.80568 -27 0 0 -21.6264 3.46772 8.32065 -2506.35 -246.497 1581.02 0 0 0 0.5 
767 2 2 2.74596 9.65527 1.44271 -65 -1 1 447.242 9.9607 27.1661 -1538.56 526.224 2248.49 0 0 0 0.5 
123 1 1 4.06318 6.33608 1.00902 -32 0 0 134.696 2.87374 -1.10969 432.971 -1736.18 95.5246 0 0 0 0.5 
418 1 1 4.16557 9.57884 0.560427 -92 -1 1 411.184 20.9136 32.6779 -23.724 -104.207 -166.158 0 0 0 0.5 
693 2 2 3.64384 5.50516 1.37436 35 0 0 56.4068 11.3727 -27.9582 -130.818 1254.95 -3750.75 0 0 0 0.5 
59 1 1 4.07737 8.76056 0.269888 56 0 0 329.124 8.32295 10.768 -1316.33 2138.76 -168.119 0 0 0 0.5 
252 1 1 3.28181 9.36881 1.08679 111 0 1 435.002 2.89674 -5.47773 1786.15 -1365.47 159.534 0 0 0 0.5 
503 2 2 2.95132 5.82084 0.375332 -19 0 0 106.03 -34.3066 16.4352 -976.158 1830.64 -552.409 0 0 0 0.5 
928 2 2 2.63039 6.5734 0.52314 3 0 0 141.858 -13.8307 4.60073 71.4712 80.6696 15.0216 0 0 0 0.5 
867 2 2 2.52624 8.40218 0.962034 16 0 0 319.068 -2.16481 5.82007 -1033.65 -605.722 787.897 0 0 0 0.5 
235 1 1 3.34003 7.98876 1.00403 -10 0 0 300.672 4.17336 15.2565 1303.61 608.371 857.131 0 0 0 0.5 
796 2 2 3.23124 5.00541 0.746107 21 0 0 11.4073 -9.42005 0.0299457 588.368 -691.37 1017.84 0 0 0 0.5 
849 2 2 3.55056 7.0255 1.22372 18 0 1 161.649 19.4666 -8.3211 1467.13 361.005 258.988 0 0 0 0.5 
607 2 2 2.94395 7.88857 1.86797 67 0 1 276.813 10.2954 -3.22959 3494.39 -638.031 2727.44 0 0 0 0.5 
237 1 1 3.12628 9.29256 0.155123 -71 -1 1 406.42 13.56 -4.51445 -1473.32 178.842 1142.84 0 0 0 0.5 
387 1 1 0.276841 9.56783 0.735448 -138 -1 0 457.675 -10.4729 16.6244 3340.81 -1641.13 927.431 0 0 0 0.5 
195 1 1 2.91235 6.961 1.64198 -136 -1 1 178.368 -4.41766 -1.56552 -2567.74 3098.92 1387.99 0 0 0 0.5 
507 2 2 2.09569 8.28278 1.83632 -96 -1 0 331.122 7.20648 19.2561 -1189.98 -128.992 -584.855 0 0 0 0.5 
809 2 2 0.5543 8.74693 1.54067 125 0 0 378.221 10.9501 10.925 -1779.22 446.846 232.722 0 0 0 0.5 
977 2 2 4.16309 8.35216 1.56878 81 0 0 343.441 -21.715 11.3813 -429.086 2147.89 1730.02 0 0 0 0.5 
391 1 1 4.12981 5.99676 0.175416 -10 0 0 91.5752 3.28502 -22.204 -163.533 1630.41 -1145.16 0 0 0 0.5 
564 2 2 3.28741 6.08103 1.78496 9 0 0 88.3137 10.8019 -17.2036 261.829 -1377.14 1668.98 0 0 0 0.5 
563 2 2 1.39617 8.49539 1.32383 18 0 1 327.185 10.4637 -11.0466 2812.87 -909.064 -756.421 0 0 0 0.5 
279 1 1 0.195486 7.34005 1.06127 293 1 0 199.185 10.8986 11.2966 374.773 -1069.46 490.497 0 0 0 0.5 
689 2 2 2.20972 9.0793 0.597151 -79 -1 1 394.178 29.8789 2.84047 -821.439 2861.09 891.566 0 0 0 0.5 
458 1 1 0.253908 5.30935 0.978894 41 0 0 10.1374 13.3031 -8.02583 469.595 -1830.53 1106.59 0 0 0 0.5 
680 2 2 3.15734 9.01895 1.99918 -104 -1 0 447.012 -10.7741 16.9322 -2836.58 68.8457 -1269.2 0 0 0 0.5 
858 2 2 1.0773 5.17218 0.745226 -13 0 0 21.6213 -1.74118 17.193 1299.91 -1348.23 888.207 0 0 0 0.5 
385 1 1 0.73132 6.74889 1.52329 -156 -1 0 186.653 -16.8625 0.546547 -1554.63 3136.42 -816.52 0 0 0 0.5 
677 2 2 4.7903 6.10808 1.73022 -19 0 1 94.5258 20.3912 -22.3027 -42.5702 143.462 -178.153 0 0 0 0.5 
401 1 1 2.20234 5.1152 1.4503 57 0 0 53.4375 -6.65354 -0.933866 -2706.6 869.187 -1919.03 0 0 0 0.5 
934 2 2 1.56028 7.76012 0.268557 32 0 0 248.705 -9.20522 -3.39257 -3845.3 1882.07 -125.923 0 0 0 0.5 
164 1 1 0.865343 6.93888 0.596953 39 0 0 181.996 1.8301 10.3468 869.203 -428.342 -1578.61 0 0 0 0.5 
63 1 1 0.0314109 6.92568 0.154594 67 0 0 166.035 -4.6557 7.60345 4119.43 -810.268 249.265 0 0 0 0.5 
973 2 2 2.00748 6.83658 1.44437 -24 0 1 186.518 -26.0332 1.53279 -1156.25 -130.02 54.0282 0 0 0 0.5 
587 2 2 0.780274 5.99128 0.437985 -30 0 1 87.0982 4.55842 6.23926 264.71 290.985 1280.12 0 0 0 0.5 
578 2 2 4.0702 9.23342 1.90118 74 0 0 394.008 8.43597 12.3568 2063.84 1994.39 -291.338 0 0 0 0.5 
296 1 1 2.28892 7.24686 0.655835 40 0 -1 173.423 18.6386 12.7437 2203.14 -693.477 1769.41 0 0 0 0.5 
755 2 2 4.27259 5.1345 0.645654 -46 0 0 -17.3928 27.1324 -22.2298 292.722 -2472.21 1728.84 0 0 0 0.5 
274 1 1 1.04006 8.28947 0.431732 -139 -1 -1 254.347 28.9881 1.57369 -102.969 839.285 1716.73 0 0 0 0.5 