# vtk DataFile Version 4.2
Generated by LIGGGHTS
ASCII
DATASET POLYDATA
POINTS 1000 float
1.13227 1.45728 1.28681 2.75844 1.65969 1.84628 0.695802 3.29343 0.284423 
2.47889 2.44857 1.67525 1.50816 4.2523 0.42031 1.2346 0.0494816 0.212103 
4.19547 0.117946 0.972914 1.79613 4.05541 1.61859 1.84764 2.1393 0.615284 
1.92263 0.954785 0.242839 2.1977 1.50707 1.0145 0.27174 1.2814 1.56623 
1.51633 0.571345 0.95761 1.54557 2.31898 1.67062 3.40317 1.19435 0.282855 
0.876566 2.6817 1.25728 1.36813 0.764027 1.77999 0.992382 1.27268 0.271613 
1.93459 2.94694 0.505261 2.23207 0.814125 1.80982 0.423747 1.94159 0.266498 
3.51536 2.68195 1.48074 3.26634 4.64724 0.896591 0.50781 0.440194 1.4258 
1.47179 3.44689 0.839707 3.31313 3.63264 1.42021 0.873326 4.62037 1.31355 
3.08228 3.40295 0.24696 2.34388 4.41881 0.701544 4.84122 0.906205 1.75779 
2.90113 4.97793 1.54239 4.06467 3.37997 0.838976 2.47299 3.71716 0.791297 
0.71578 4.0781 0.599936 3.51359 2.76668 0.323651 4.80087 1.69088 1.77477 
3.30699 1.95155 0.0284788 3.49765 0.755342 1.37307 2.46973 3.80596 1.70749 
0.33779 4.76084 0.188205 0.487038 3.41511 1.24778 1.75117 4.73852 1.2975 
-0.0224777 3.96338 1.4774 3.16446 1.65921 1.11084 4.21094 0.986125 0.628766 
4.75285 0.128032 1.48922 4.8823 4.24314 0.431809 4.9816 0.857988 0.0875871 
1.45648 0.253314 2.45269 2.35005 3.3516 3.00189 0.921427 0.589105 3.81351 
0.740816 0.540431 2.47201 3.66944 0.586008 2.28696 1.07554 1.68976 3.1279 
2.97251 3.65729 2.49851 0.563795 2.67561 2.29745 1.47724 1.16401 3.01839 
2.02548 1.62269 2.24065 1.37412 0.289693 3.2953 2.45908 1.80745 3.43681 
3.43758 3.1046 2.32899 0.00889412 1.70824 3.22773 2.36783 3.92793 3.81454 
1.84473 3.71525 2.57899 4.31471 2.4306 2.42869 1.06571 2.54252 3.04016 
2.20143 0.045836 2.3706 0.220987 0.871173 3.45148 1.15802 3.00648 3.8131 
2.15981 0.92774 2.7826 0.622713 4.56003 2.27093 1.57838 4.18002 3.42969 
1.15858 3.89496 2.18594 3.4068 2.69845 3.15926 3.63901 3.94064 3.82669 
4.62547 2.93941 3.31839 4.02675 4.79974 3.93371 1.28231 4.96703 3.17595 
2.79647 4.48118 2.25388 3.41799 1.93372 3.12982 3.60421 1.27762 3.76538 
4.45299 2.1959 3.96311 0.225946 3.36818 3.08201 4.28807 3.41242 2.56379 
0.12648 4.21889 2.94355 3.28668 4.60079 3.27284 2.94306 3.30696 3.52408 
4.60353 4.06225 3.8508 4.21595 0.927751 3.33112 4.39474 1.42233 2.49464 
4.40456 0.229132 2.4171 4.9147 0.895517 3.58074 1.12348 4.73324 3.99963 
1.26498 0.618223 5.41769 2.18623 2.32187 4.907 1.78716 2.07809 4.04301 
0.338433 0.649692 5.35279 2.38267 1.41483 5.15922 3.86269 1.1516 5.79555 
1.00493 1.52747 5.38245 0.885703 2.42484 5.35504 4.43898 4.36891 5.52161 
1.73502 1.73586 5.57826 1.48724 1.15509 4.47157 3.84312 1.00958 4.81439 
2.41551 4.09587 5.92612 0.675389 0.238064 4.62299 4.74537 0.130076 4.30127 
4.61322 1.07003 5.43306 2.45202 2.4742 5.78018 2.1221 3.80784 4.74056 
2.17909 3.06333 4.61016 2.43384 1.01719 4.37035 1.23485 3.24594 5.32124 
0.527244 1.28308 4.61428 3.22219 2.84515 5.84838 1.36089 3.87954 4.30739 
3.52631 4.97972 4.74049 4.12239 0.191559 5.37555 4.5837 3.55314 5.56873 
3.07492 2.47087 4.95878 0.235449 4.73947 5.79319 0.0716687 4.33669 4.13296 
1.11393 4.06404 5.10906 2.74497 2.75691 4.11936 4.28412 2.72952 4.89053 
4.04904 2.70421 5.76736 3.85294 0.226254 4.09465 0.275139 3.70323 4.70045 
4.24862 3.54873 4.58987 0.979419 4.67248 5.59322 2.99453 0.508548 4.18309 
3.05246 1.50318 5.80345 2.77881 4.50461 5.10888 4.34951 4.46578 4.69485 
3.44429 2.18847 4.07066 3.61443 1.84378 5.00076 3.60996 4.29044 5.41373 
3.52779 3.34865 5.03415 4.5315 1.02255 4.38912 2.59073 2.38434 6.99567 
3.94921 3.53881 7.83502 0.540858 0.700794 7.0768 2.42757 3.06102 6.82067 
2.2488 0.82322 7.79883 1.13311 2.07711 6.21113 1.31421 0.89568 7.66074 
0.430766 2.13457 6.61205 2.37095 4.50948 6.8106 0.0104881 0.224444 6.13935 
3.72222 1.50571 7.90515 1.27052 3.07277 6.21905 1.11198 1.12378 6.21266 
1.27657 0.532696 6.70555 3.98856 2.06471 7.09383 0.413089 0.109792 7.6869 
4.01788 2.71335 7.26282 4.7977 3.54798 7.08056 2.05564 3.12502 7.68724 
4.12074 4.36419 6.2467 2.09646 1.18882 6.19058 2.13822 0.360481 6.53676 
1.81251 3.08452 6.61676 0.959251 2.12703 7.39338 1.74173 1.93812 6.9882 
2.62757 3.42128 6.02455 2.01217 3.80046 7.38743 0.336223 1.42417 7.08398 
1.15016 2.90349 7.46135 3.13157 4.16182 7.12391 2.97847 0.266126 6.26119 
1.67302 4.46215 6.06904 1.40886 4.2696 7.90226 2.89603 0.56431 7.11281 
0.0547978 3.05817 7.81435 0.864017 3.79463 6.10077 0.164988 3.43681 6.92922 
2.99837 3.23903 7.53631 3.9855 0.342222 6.96176 2.55434 1.85588 7.72147 
3.97701 4.0782 7.2699 3.07039 2.15485 6.42304 4.20445 1.29644 7.19902 
1.10006 3.63621 7.11702 3.71501 3.13792 6.54596 1.39973 4.53152 6.89707 
0.379068 4.209 7.55509 4.75471 0.856467 7.45047 2.74917 1.36272 6.94801 
-0.00340994 3.7234 6.06939 0.259214 2.63084 7.1254 0.016737 2.45972 6.14625 
3.59275 0.660624 7.64794 3.52709 4.70007 6.37083 3.59053 1.55825 6.60351 
4.55221 1.04831 6.36156 4.55189 3.08012 7.95187 4.68743 4.35829 6.7543 
4.68989 4.88983 7.57747 4.97226 0.0245399 6.14434 0.300931 1.56816 8.0235 
0.862305 2.71555 9.60549 0.996229 3.01595 8.60483 4.14292 1.96971 8.99154 
0.0302117 0.402807 8.92472 0.408782 0.321348 9.77579 1.34145 1.2026 9.22557 
3.64199 1.05041 9.31452 0.384049 2.38842 8.12469 1.67919 2.27608 9.6645 
1.74771 2.69774 8.28621 4.48177 4.61896 8.54761 0.331961 1.32256 8.71635 
1.66787 3.61731 9.90648 2.14129 2.28104 8.81776 1.1711 2.08189 8.88457 
1.80674 4.00275 9.00295 0.315587 1.14846 9.57098 4.33969 3.45474 8.80108 
1.57057 1.72655 8.14644 3.21851 4.07792 9.83264 3.93817 4.0785 9.22618 
0.175785 2.79873 8.87297 3.71732 4.76843 8.99076 3.15967 1.6839 9.03156 
-0.0301887 3.5947 8.47298 0.483385 3.50757 9.4037 0.640217 4.40182 9.05434 
0.927242 3.84157 8.64855 0.0480272 3.87533 9.95454 4.59492 1.55836 9.62286 
4.20552 3.64812 9.94426 3.34987 2.13844 8.10934 2.97886 4.62535 8.92045 
2.68643 3.49321 8.62242 0.0852677 4.86243 8.81718 3.98292 0.400272 8.75098 
3.59187 4.43114 8.0592 2.68431 0.924256 9.63734 2.57347 0.516557 8.67919 
3.05701 0.161919 9.46774 2.88781 2.56948 8.53721 3.05221 0.0373416 8.14861 
3.5212 3.62319 8.52446 3.61279 4.82181 9.88453 3.77818 2.61569 9.37957 
3.97977 0.377647 9.82242 4.74146 1.29746 8.64847 4.81222 4.74534 9.70313 
1.76148 9.35668 0.780373 2.7493 9.4744 0.148033 3.94681 6.2599 0.259167 
0.825415 5.50934 1.5018 3.71945 7.30052 1.06956 4.26967 8.85007 0.65953 
3.19261 6.88633 0.353934 2.86361 8.73297 1.5564 3.34675 7.84695 1.54269 
3.57002 7.96759 0.267482 3.57455 5.54642 0.748737 1.69142 7.38072 1.02611 
2.35625 6.15827 0.593458 -0.0616283 8.07878 0.720551 1.47315 8.82714 1.72593 
3.94487 9.57745 0.197233 1.39345 5.16358 0.614542 3.04228 5.77217 1.30781 
2.81503 6.84538 1.27273 1.84729 9.96133 1.4557 4.45696 7.07624 0.18129 
4.11364 9.44348 1.94329 4.75762 7.39386 1.39455 3.15315 8.48189 0.75592 
0.224127 9.27391 0.162762 0.544584 9.67887 0.948884 0.112583 5.75821 1.34171 
2.24083 8.70399 0.637205 4.53444 8.75627 1.97971 2.43182 7.19758 0.587371 
3.11866 6.35966 1.65981 2.28382 9.31595 1.63266 2.43616 7.6743 1.52849 
1.4823 6.01545 0.766125 2.22004 5.50055 1.66 3.87407 5.06168 1.629 
0.896691 8.04282 0.822362 1.58208 7.65134 0.223893 0.586706 8.0488 1.69529 
2.88771 5.00293 0.161141 2.29045 5.26846 0.662143 1.95033 6.55187 1.37006 
0.959775 6.65428 1.40951 3.91221 6.48816 1.15822 3.86538 9.27687 1.12767 
3.99448 7.51891 0.267237 4.6709 8.26082 0.485728 4.83213 6.51471 1.44883 
1.4732 7.59663 3.03407 2.96596 7.29385 2.73364 3.55038 8.48133 2.89398 
2.58837 8.28092 2.80834 2.88236 9.6224 2.36394 4.23034 7.49118 3.84823 
3.8201 9.44427 2.80803 3.76555 6.86486 3.00481 4.84819 7.03444 3.78676 
3.35488 5.95849 3.05155 4.60075 9.9865 3.36062 3.67258 6.42657 2.3057 
3.11157 5.22697 2.64241 0.00962322 9.95577 3.12281 1.70767 9.79224 3.58721 
2.72578 5.77038 2.54404 3.57729 8.5763 2.03872 4.79253 8.18022 2.67898 
2.13167 5.06105 3.01118 0.387236 5.7646 2.897 1.01582 9.38621 2.28949 
2.69913 6.6272 2.28051 2.94132 5.00748 3.99113 3.86425 8.85726 3.60917 
3.11353 5.92771 3.75383 4.58282 6.5439 3.01234 1.61762 6.55417 2.22268 
1.83698 6.84372 3.31555 1.13362 5.45791 2.29591 0.549112 6.57965 2.43624 
1.10715 8.12975 2.52155 1.21226 7.34502 3.94985 2.81479 7.6678 3.41913 
1.9612 8.68073 2.36392 0.739299 5.23591 3.1287 1.28247 8.55528 3.59548 
2.09086 6.0474 2.88898 4.26212 5.47439 3.43012 0.510148 7.33998 3.20816 
2.22635 9.36959 3.01834 0.0872538 6.53379 3.61054 2.19434 7.3895 2.43492 
3.44936 9.38207 3.98811 0.762263 6.14387 3.72664 2.23627 5.84525 3.84063 
4.2407 5.8362 2.036 4.89298 9.58961 2.46291 3.27416 8.15991 4.25754 
0.964223 8.78771 5.27394 -0.014449 6.77994 5.60749 3.78152 7.76547 4.49552 
1.8858 6.27012 5.33692 4.71911 6.05229 5.10219 0.83146 6.0207 4.76995 
3.00629 6.26859 4.63509 0.807554 9.69353 5.26281 3.71973 5.83248 4.44889 
4.10036 9.2581 4.54075 1.19457 5.49862 5.20319 2.30785 8.75161 4.24153 
0.897331 9.48705 4.10532 0.328603 9.19718 5.9767 4.57743 6.59167 4.45961 
3.15174 5.1427 5.74389 1.17275 8.19469 4.58464 2.02746 8.56786 5.4957 
2.643 8.30248 5.04784 2.58237 7.09349 4.89287 0.314406 8.2605 5.95678 
3.40382 9.36361 4.96923 -0.0235773 7.20549 4.68835 4.33747 5.77152 4.24539 
0.312334 6.64539 4.63277 4.55556 8.63586 4.30294 1.28366 5.04851 4.66454 
0.172539 9.0221 4.80207 4.32862 9.27892 5.51627 4.29354 6.99609 5.12673 
1.1071 7.48838 5.01173 4.30675 7.84557 5.76303 0.44682 5.30403 4.06621 
2.29581 9.70988 4.7433 2.14289 5.18786 4.89614 1.10528 6.72947 5.48825 
3.71481 5.96412 5.40884 3.24893 7.79034 5.42283 0.489834 5.64698 5.81401 
0.161533 5.03294 4.91047 0.484291 7.53562 5.57746 4.23025 6.81159 5.97993 
4.8994 5.4288 5.79021 4.87868 5.13331 4.20659 4.90138 7.88866 4.83398 
2.63719 9.36817 6.05764 3.36213 7.0321 7.34061 4.02303 9.8093 6.25464 
2.83268 7.56703 6.85152 2.50543 6.59752 7.41456 3.46596 9.64889 7.96717 
4.19655 7.26255 7.80921 4.477 5.72885 7.53985 3.62633 5.36856 7.55282 
0.205962 8.58432 7.5112 3.89999 8.01274 6.61419 2.93971 7.08865 6.07317 
[...]
POINT_DATA 1000
FIELD FieldData 7
id 1 1000 int
309 395 733 288 699 966 150 80 263 
115 1000 630 483 16 19 833 267 711 
665 913 97 947 511 339 307 797 274 
644 904 637 549 284 268 623 354 163 
353 695 687 586 912 893 329 726 93 
247 383 536 954 254 712 603 683 848 
406 557 128 189 414 79 361 142 35 
228 58 190 890 158 418 745 999 894 
921 91 652 65 481 810 530 783 542 
673 6 970 213 312 778 161 823 533 
895 654 700 49 504 782 565 983 278 
908 667 366 356 697 450 487 169 131 
747 76 552 598 763 769 620 608 835 
153 596 675 798 445 641 743 845 205 
606 629 905 896 871 995 746 206 477 
364 337 5 931 210 157 992 812 148 
721 987 441 610 590 224 43 580 336 
390 8 690 945 685 862 435 785 168 
748 929 672 532 611 31 759 766 815 
199 422 400 550 380 369 276 33 180 
311 42 751 222 204 525 382 237 413 
676 106 961 662 245 656 737 650 830 
796 253 932 899 241 863 134 853 809 
132 136 2 645 795 717 544 402 646 
173 167 460 572 881 554 485 563 959 
849 955 924 880 408 290 858 346 67 
53 209 884 162 561 495 373 595 17 
188 911 283 372 738 950 841 567 261 
571 882 906 696 874 518 368 23 686 
394 916 143 984 198 891 703 269 20 
647 632 401 493 822 760 636 197 962 
851 466 873 151 438 423 152 634 215 
171 349 83 807 825 324 135 794 847 
963 723 560 982 181 669 754 765 617 
436 333 41 888 952 820 129 109 948 
186 449 925 317 642 543 779 679 259 
731 90 455 358 398 444 387 177 500 
218 255 238 81 811 299 416 87 707 
59 14 659 512 583 407 990 452 558 
174 71 375 227 306 45 708 448 469 
915 698 649 788 691 92 817 488 602 
179 29 889 709 203 72 64 523 126 
901 949 289 351 66 220 600 122 113 
866 624 499 295 622 102 365 585 99 
275 94 953 505 578 973 749 246 27 
112 718 829 474 229 105 377 764 332 
193 292 304 172 834 615 415 195 371 
872 457 775 223 867 898 123 77 417 
392 755 793 506 716 301 103 239 885 
111 397 651 36 489 37 322 388 370 
107 32 920 928 420 677 235 734 116 
252 627 411 976 837 60 710 494 226 
678 758 856 750 73 302 682 412 569 
46 315 839 498 846 127 300 539 30 
287 960 742 648 138 581 217 277 96 
660 147 859 22 909 347 25 842 969 
761 440 582 360 844 568 194 631 465 
439 472 108 735 958 9 21 577 547 
509 787 56 425 78 393 556 850 524 
310 670 587 593 140 403 521 428 130 
480 619 808 868 318 941 612 724 104 
816 693 232 939 802 178 702 923 930 
640 971 744 207 520 233 803 828 503 
919 993 957 980 62 986 196 502 39 
293 216 251 806 243 588 831 386 771 
674 182 10 927 443 974 566 741 843 
875 777 185 282 826 357 821 792 994 
526 459 399 553 454 484 989 86 551 
470 327 139 133 378 352 446 951 40 
879 50 780 614 548 38 562 740 714 
486 248 938 24 917 510 860 149 492 
609 621 658 956 575 208 616 540 95 
264 601 592 479 804 978 159 319 201 
892 767 348 61 7 827 249 305 607 
935 314 464 926 573 125 270 184 374 
613 200 770 661 910 82 155 482 350 
628 426 671 694 462 389 861 410 736 
722 280 391 427 211 298 981 897 461 
937 47 865 214 701 430 689 940 756 
433 655 496 281 165 1 877 98 84 
537 338 257 579 541 266 664 325 141 
429 432 684 529 191 643 538 110 323 
713 431 869 230 286 313 774 379 13 
801 437 946 12 887 515 832 285 385 
405 789 704 514 164 376 657 618 424 
528 725 728 160 212 814 442 170 341 
997 335 870 574 471 799 934 576 625 
88 26 490 626 604 597 942 936 944 
996 633 681 451 421 316 118 447 883 
63 478 975 221 187 594 434 786 342 
855 838 680 279 545 516 902 396 727 
273 75 857 344 340 715 297 85 739 
114 262 773 176 51 202 776 175 907 
328 363 120 824 68 864 476 653 985 
784 101 705 918 729 121 124 330 605 
998 818 473 272 145 903 639 231 967 
519 334 367 663 119 507 409 531 11 
3 240 591 914 965 791 250 48 458 
294 234 70 964 456 271 836 668 15 
991 753 331 584 900 362 89 589 840 
34 570 666 813 752 535 55 852 308 
972 256 154 491 260 876 635 720 790 
156 146 732 522 475 988 166 117 688 
546 359 69 236 757 730 28 638 922 
381 192 467 800 781 501 258 225 555 
564 854 968 18 320 933 819 404 719 
977 52 453 463 517 508 326 291 692 
943 100 513 878 599 242 886 296 355 
706 419 762 559 144 343 527 384 805 
54 321 44 768 219 497 345 303 468 
57 534 244 979 772 137 74 4 265 
183 
type 1 1000 int
1 1 2 1 2 2 1 1 1 
1 2 2 1 1 1 2 1 2 
2 2 1 2 2 1 1 2 1 
2 2 2 2 1 1 2 1 1 
1 2 2 2 2 2 1 2 1 
1 1 2 2 1 2 2 2 2 
1 2 1 1 1 1 1 1 1 
1 1 1 2 1 1 2 2 2 
2 1 2 1 1 2 2 2 2 
2 1 2 1 1 2 1 2 2 
2 2 2 1 2 2 2 2 1 
2 2 1 1 2 1 1 1 1 
2 1 2 2 2 2 2 2 2 
1 2 2 2 1 2 2 2 1 
2 2 2 2 2 2 2 1 1 
1 1 1 2 1 1 2 2 1 
2 2 1 2 2 1 1 2 1 
1 1 2 2 2 2 1 2 1 
2 2 2 2 2 1 2 2 2 
1 1 1 2 1 1 1 1 1 
1 1 2 1 1 2 1 1 1 
2 1 2 2 1 2 2 2 2 
2 1 2 2 1 2 1 2 2 
1 1 1 2 2 2 2 1 2 
1 1 1 2 2 2 1 2 2 
2 2 2 2 1 1 2 1 1 
1 1 2 1 2 1 1 2 1 
1 2 1 1 2 2 2 2 1 
2 2 2 2 2 2 1 1 2 
1 2 1 2 1 2 2 1 1 
2 2 1 1 2 2 2 1 2 
2 1 2 1 1 1 1 2 1 
1 1 1 2 2 1 1 2 2 
2 2 2 2 1 2 2 2 2 
1 1 1 2 2 2 1 1 2 
1 1 2 1 2 2 2 2 1 
2 1 1 1 1 1 1 1 1 
1 1 1 1 2 1 1 1 2 
1 1 2 2 2 1 2 1 2 
1 1 1 1 1 1 2 1 1 
2 2 2 2 2 1 2 1 2 
1 1 2 2 1 1 1 2 1 
2 2 1 1 1 1 2 1 1 
2 2 1 1 2 1 1 2 1 
1 1 2 2 2 2 2 1 1 
1 2 2 1 1 1 1 2 1 
1 1 1 1 2 2 1 1 1 
2 1 2 1 2 2 1 1 1 
1 2 2 2 2 1 1 1 2 
1 1 2 1 1 1 1 1 1 
1 1 2 2 1 2 1 2 1 
1 2 1 2 2 1 2 1 1 
2 2 2 2 1 1 2 1 2 
1 1 2 1 2 1 1 2 1 
1 2 2 2 1 2 1 1 1 
2 1 2 1 2 1 1 2 2 
2 1 2 1 2 2 1 2 1 
1 1 1 2 2 1 1 2 2 
2 2 1 1 1 1 2 2 2 
1 2 2 2 1 1 2 1 1 
1 2 2 2 1 2 2 2 1 
2 2 1 2 2 1 2 2 2 
2 2 2 1 2 1 2 2 2 
2 2 2 2 1 2 1 2 1 
1 1 1 2 1 2 2 1 2 
2 1 1 2 1 2 2 2 2 
2 2 1 1 2 1 2 2 2 
2 1 1 2 1 1 2 1 2 
1 1 1 1 1 1 1 2 1 
2 1 2 2 2 1 2 2 2 
1 1 2 1 2 2 2 1 1 
2 2 2 2 2 1 2 2 1 
1 2 2 1 2 2 1 1 1 
2 2 1 1 1 2 1 1 2 
2 1 1 2 2 1 1 1 1 
2 1 2 2 2 1 1 1 1 
2 1 2 2 1 1 2 1 2 
2 1 1 1 1 1 2 2 1 
2 1 2 1 2 1 2 2 2 
1 2 1 1 1 1 2 1 1 
2 1 1 2 2 1 2 1 1 
1 1 2 2 1 2 2 1 1 
2 1 2 1 1 1 2 1 1 
2 1 2 1 2 2 2 1 1 
1 2 2 2 1 1 2 2 1 
2 2 2 1 1 2 1 1 1 
2 1 2 2 1 2 2 2 2 
1 1 1 2 2 2 2 2 2 
2 2 2 1 1 1 1 1 2 
1 1 2 1 1 2 1 2 1 
2 2 2 1 2 2 2 1 2 
1 1 2 1 1 2 1 1 2 
1 1 2 1 1 1 2 1 2 
1 1 1 2 1 2 1 2 2 
2 1 2 2 2 1 1 1 2 
2 2 1 1 1 2 2 1 2 
2 1 1 2 1 2 1 2 1 
1 1 2 2 2 2 1 1 1 
1 1 1 2 1 1 2 2 1 
2 2 1 2 2 1 1 2 2 
1 2 2 2 2 2 1 2 1 
2 1 1 1 1 2 2 2 2 
1 1 2 2 1 2 1 1 2 
2 1 1 1 2 2 1 2 2 
1 1 1 2 2 2 1 1 2 
2 2 2 1 1 2 2 1 2 
2 1 1 1 2 2 1 1 2 
2 1 2 2 2 1 2 1 1 
2 1 2 2 1 1 2 1 2 
1 1 1 2 1 1 1 1 1 
1 2 1 2 2 1 1 1 1 
1 
i 3 1000 int
142 1 0 177 1 0 88 0 0 
-66 0 -1 20 0 -1 -110 0 1 
148 1 0 -69 0 1 -131 0 1 
206 1 0 -132 0 0 144 1 1 
228 1 0 -159 0 1 -171 0 0 
-44 0 0 -200 0 0 195 1 0 
205 1 1 -55 0 0 79 1 0 
-33 0 1 -27 0 0 -96 0 1 
293 1 -1 253 1 0 -298 -1 -1 
405 1 1 233 1 0 -164 0 2 
-165 0 0 -125 0 0 32 0 0 
-59 0 1 -83 0 1 249 1 1 
196 1 1 145 1 0 231 1 1 
341 1 1 -3 0 0 16 0 0 
-157 0 1 200 1 0 209 1 0 
-201 0 0 -97 0 1 -231 0 1 
248 1 0 -28 0 0 161 1 0 
263 1 0 123 1 0 -248 0 1 
-75 0 1 234 1 0 111 1 1 
261 1 0 197 1 0 -141 0 1 
-77 0 0 -117 0 -1 -149 0 1 
-135 0 1 36 0 -1 -59 0 1 
-90 0 -1 -133 0 1 -166 0 1 
-105 0 1 -49 0 0 5 0 0 
-85 0 1 -31 0 0 -64 0 1 
-95 0 0 54 0 -1 31 0 1 
-91 0 2 -113 0 1 -248 0 1 
209 1 -1 23 0 -1 209 0 -1 
355 1 1 -3 0 1 -173 0 1 
-13 0 1 281 1 -1 361 1 0 
-123 0 0 -103 0 1 191 1 1 
41 1 0 64 0 0 54 0 -1 
-151 0 0 -32 0 -1 271 1 -1 
-97 0 1 -64 0 0 -3 0 1 
13 0 0 -56 0 -1 213 1 0 
-144 0 -1 278 1 0 151 1 0 
-229 0 0 106 0 1 69 0 -1 
-104 0 1 150 1 1 -73 0 1 
-52 0 0 -61 0 0 -65 0 1 
15 0 0 -133 0 0 -93 0 -1 
-194 0 0 -51 0 0 -29 0 0 
-75 0 0 -45 0 0 -45 1 -1 
-163 0 -2 -198 0 -1 -85 0 0 
-26 0 -1 -10 0 0 -161 0 1 
-74 0 -1 -48 0 1 125 0 0 
-77 0 0 211 1 0 21 0 -1 
19 0 0 216 1 0 -89 0 0 
-149 0 0 -2 0 1 -49 0 0 
273 1 0 261 1 0 17 0 0 
42 0 -1 -36 0 -1 -199 0 0 
-171 0 0 272 1 -1 84 0 0 
183 1 -1 129 1 1 182 1 -1 
134 1 -1 33 0 1 -54 0 0 
59 0 -1 358 1 1 127 1 0 
297 1 -1 -35 0 1 -27 0 -1 
51 0 0 -56 0 0 226 1 0 
-98 0 -1 -74 0 0 203 1 -1 
-239 0 -1 -359 -1 -2 -159 0 0 
44 0 0 -43 0 1 -26 0 0 
-312 -1 0 314 1 0 -25 0 0 
-40 0 0 -109 0 0 227 1 1 
340 1 0 -148 0 1 -329 -1 -1 
-319 -1 -2 -160 0 0 -72 0 0 
129 0 -1 -83 0 -1 -38 0 0 
-154 0 1 -24 0 0 -132 0 1 
-99 0 0 -58 0 0 399 1 -1 
26 0 -1 -237 0 0 -108 0 0 
-175 0 -1 384 1 1 -86 0 0 
-194 0 -1 229 1 -1 244 1 -1 
23 0 0 -15 0 -1 -82 0 0 
188 1 -1 -104 0 -1 -135 0 0 
-31 0 0 -245 0 0 -75 0 0 
247 1 0 238 1 -1 -35 0 0 
-116 0 0 -19 0 -1 -309 -1 -1 
-133 0 1 42 0 0 227 1 0 
43 0 0 0 0 1 -54 0 0 
-9 0 0 -50 0 -1 244 1 0 
-9 0 -1 303 1 0 343 1 1 
78 0 0 -347 -1 -1 112 1 0 
253 1 -1 114 1 -1 -109 0 1 
-187 0 -1 171 1 0 -154 0 -1 
24 0 0 -333 -1 -2 -187 0 0 
-182 0 0 271 1 0 35 0 -2 
108 0 0 63 0 1 10 0 0 
66 0 1 2 0 1 134 0 1 
57 0 0 153 0 0 -287 -1 0 
84 0 0 -152 0 1 94 0 -1 
271 1 -1 -174 -1 0 129 0 0 
250 0 1 -13 0 1 8 0 0 
-222 -1 0 -208 -1 0 -262 -1 0 
-132 -1 0 46 0 0 79 0 0 
244 0 0 -173 -1 1 -58 0 1 
-222 -1 1 166 0 0 -207 -1 0 
-162 0 0 154 0 0 -253 -1 0 
7 0 0 13 0 0 -330 -1 1 
85 0 1 115 0 -1 96 0 0 
-14 0 0 82 0 1 186 0 0 
-164 -1 1 156 0 -1 158 0 0 
24 0 0 -36 -1 0 42 0 0 
131 0 0 122 0 0 73 0 0 
107 0 -1 174 0 0 -356 -1 0 
-158 -1 0 342 1 0 118 0 1 
72 0 0 -64 -1 0 -173 0 0 
477 1 1 -34 -1 0 -196 -1 0 
-293 -1 0 104 0 1 271 0 0 
261 1 0 45 0 0 175 0 0 
0 0 1 -335 -1 0 -220 -1 1 
14 0 0 10 0 0 -212 -1 -1 
396 1 0 47 0 0 50 0 0 
-109 -1 0 138 0 -1 108 0 1 
-267 -1 0 53 0 1 90 0 0 
11 0 0 -232 -1 1 -296 -1 0 
97 0 1 87 0 0 29 0 0 
-130 -1 0 26 0 0 -424 -1 0 
111 0 -1 66 0 1 -181 -1 0 
98 0 -1 -200 -1 1 66 0 0 
23 0 0 26 0 0 90 0 0 
110 0 -1 131 0 0 278 1 -1 
-196 -1 1 84 0 -1 144 0 1 
-191 -1 1 57 0 0 175 0 0 
75 0 0 117 0 -1 79 0 0 
138 0 0 294 1 0 107 0 0 
89 0 0 -114 0 1 160 0 0 
127 0 0 147 0 0 1 0 0 
183 0 0 -213 -1 0 203 0 0 
46 0 -1 -191 -1 1 282 1 -1 
-185 -1 0 97 0 1 -320 -1 -1 
2 0 1 -150 -1 0 386 1 0 
-24 0 1 148 0 0 43 0 -1 
55 0 -1 5 0 -1 107 0 0 
188 0 -1 68 0 0 -45 -1 -1 
-287 -1 -1 -194 -1 0 -252 -1 -1 
-216 -1 -1 2 0 0 101 0 -1 
-250 -1 0 142 0 -1 7 0 0 
-274 -1 0 242 0 0 -206 -1 0 
49 0 0 -254 -1 0 -123 -1 0 
81 0 0 -198 -1 0 194 0 0 
-358 -1 1 -47 0 0 -137 0 0 
239 0 -1 -416 -1 -1 -252 -1 0 
-220 -1 0 74 0 0 186 0 -1 
-8 0 -1 -307 -1 1 -21 0 0 
13 0 0 71 0 -1 -213 -1 -1 
38 0 -1 71 0 0 -27 0 0 
-3 0 -1 185 0 0 150 0 0 
-6 0 -1 -35 0 -1 180 0 -1 
-139 -1 0 -16 0 -1 81 0 -1 
47 0 0 -332 -1 0 75 0 -1 
173 0 -1 114 0 -1 34 0 -1 
-293 -1 -1 120 0 -2 -367 -1 -1 
184 0 -1 -242 -1 0 -3 0 -1 
-317 -1 1 233 0 -1 -251 -1 0 
43 0 -1 -70 -1 0 51 0 0 
56 0 -1 -49 0 0 79 0 0 
258 1 0 9 0 -1 7 0 -1 
68 0 -1 -301 -1 -1 56 0 0 
101 0 -1 60 0 -1 -251 -1 0 
69 0 -1 22 0 -1 -241 -1 0 
-196 -1 0 -56 -1 -1 144 0 -1 
55 0 -1 -311 -1 0 270 0 -1 
105 0 0 68 0 0 -6 0 0 
239 0 0 -36 0 0 -225 -1 0 
169 0 -1 -103 0 0 56 0 0 
254 1 1 239 1 1 1 0 -1 
275 1 1 -64 0 1 -35 0 1 
-108 0 0 -166 0 1 -140 0 0 
-39 0 1 -149 0 0 -271 0 2 
217 1 0 -137 0 1 -31 0 -1 
-170 0 0 -156 0 1 170 1 1 
-186 0 1 -48 0 0 -28 0 0 
-315 -1 1 234 1 0 -95 0 0 
-322 0 0 33 0 0 -45 0 1 
-111 0 0 10 0 1 -208 0 1 
47 0 0 249 1 2 365 1 0 
-110 0 1 261 1 0 45 0 0 
-141 0 0 -94 0 1 -71 0 0 
-200 0 1 -43 0 1 190 1 0 
181 1 -1 82 0 1 -113 0 2 
136 1 1 -146 0 1 -11 0 1 
-10 0 1 173 1 1 -10 0 0 
-129 0 1 -110 0 1 -83 0 0 
-146 0 2 -111 0 1 56 0 0 
-125 0 2 -109 0 1 -76 0 0 
-69 0 1 -261 0 0 -12 0 0 
-27 0 0 104 1 -1 -117 0 1 
-63 0 0 102 1 1 120 1 0 
276 1 0 204 1 0 -74 0 0 
-145 0 0 44 0 1 245 1 0 
249 1 1 64 0 1 -163 0 0 
303 1 0 -86 0 1 75 1 0 
-256 -1 0 33 0 1 19 0 0 
239 1 2 -60 0 0 56 0 1 
323 1 0 -156 0 1 -120 0 0 
-166 0 1 -133 0 1 -96 0 0 
-119 0 0 -61 0 0 123 1 1 
72 0 0 112 0 0 -200 0 0 
-78 0 0 25 0 -1 -198 0 1 
2 0 0 185 1 0 457 1 0 
336 1 1 -124 0 0 -47 0 1 
-72 0 1 -225 0 -1 -29 0 0 
300 1 0 354 1 0 -289 0 1 
268 1 0 318 1 0 81 0 0 
-156 0 1 -12 0 0 -139 0 -1 
-355 -1 1 294 1 0 19 0 0 
35 0 0 -46 0 1 79 1 0 
165 1 -1 -73 0 0 -69 0 0 
194 1 1 -209 0 0 -107 0 0 
-55 0 0 -56 0 0 -52 0 0 
168 0 1 31 0 0 -191 0 0 
200 1 0 -169 0 1 -78 0 1 
117 0 1 -109 0 0 -499 2 0 
296 1 1 -296 0 0 -7 0 -1 
249 1 -1 36 0 0 -75 0 -1 
-36 0 1 -18 0 0 -160 0 0 
-57 0 0 -5 0 0 -97 0 0 
-126 0 1 231 1 -1 -65 0 1 
-65 0 0 -362 -1 0 -52 0 0 
-29 0 -1 165 1 0 -47 0 0 
81 0 0 -198 0 -1 17 0 -1 
305 1 -1 69 1 -1 -93 0 0 
54 0 -1 -114 0 0 -43 0 0 
-165 0 0 -100 0 0 -71 0 0 
-99 0 1 62 0 -1 71 0 0 
-84 0 0 -122 0 0 6 0 0 
238 1 0 -154 0 0 -383 -1 0 
-139 0 1 52 0 0 -37 0 0 
-73 0 0 -159 0 0 -73 0 0 
-104 0 -1 -68 0 1 21 0 -1 
23 0 0 147 1 0 264 1 -1 
42 0 1 186 1 -2 -40 0 0 
-256 0 0 161 1 -1 -126 0 -1 
-88 0 0 -82 0 -1 -297 0 1 
-159 0 -1 -173 0 0 -19 0 -1 
-33 0 -1 229 1 0 -166 0 -1 
158 1 -1 118 1 0 373 1 -1 
-142 0 0 -173 0 -1 -131 0 -1 
-32 0 -1 146 1 -1 -44 0 0 
-170 0 0 -44 0 -2 -149 0 1 
300 1 -1 -283 0 0 89 0 -1 
-16 0 -1 10 0 -1 -245 0 -1 
271 1 0 -68 0 -1 95 0 0 
191 1 0 182 1 0 -80 0 0 
-67 0 -1 273 1 -1 -340 -1 -1 
151 1 -1 173 0 -1 -152 -1 1 
25 0 1 74 0 1 100 0 1 
-20 0 1 198 0 0 58 0 2 
242 0 1 -151 -1 1 -324 -1 0 
-249 -1 1 -163 -1 0 34 0 1 
125 0 0 111 0 1 -236 -1 -1 
-269 -1 1 -244 -1 0 24 0 0 
-327 -1 -1 -81 0 0 113 0 0 
-96 0 0 208 0 0 -298 -1 -1 
29 0 0 53 0 -1 -319 -1 0 
23 0 0 -72 0 0 140 0 -1 
-145 -1 0 109 0 -1 -237 -1 0 
124 0 0 -158 -1 2 5 0 1 
113 0 0 -9 0 -1 41 0 1 
105 0 0 212 0 0 -295 -1 2 
35 0 0 173 0 0 21 0 0 
77 0 1 -165 -1 1 -4 0 1 
48 0 1 112 0 1 169 0 0 
84 0 -1 132 0 0 -23 0 0 
60 0 0 187 0 0 -264 -1 0 
-95 -1 -1 143 0 1 -170 -1 1 
87 0 0 58 0 0 -87 0 1 
-146 -1 0 -237 -1 1 42 0 1 
59 0 1 243 0 -1 -176 -1 0 
204 0 1 54 0 1 23 0 0 
138 0 0 -34 0 1 296 1 1 
100 0 1 -37 0 1 -209 -1 1 
-173 -1 0 -193 -1 1 -3 0 1 
-305 -1 0 21 0 1 -229 -1 0 
-495 1 0 142 0 -1 -111 0 1 
361 1 1 12 0 1 11 0 1 
-241 -1 2 335 1 1 -78 -1 0 
90 0 0 20 0 0 200 0 0 
136 0 -1 102 0 1 49 0 0 
-315 -1 -1 -239 -1 0 -156 -1 0 
93 0 1 -45 -1 1 140 0 0 
-212 -1 0 55 0 -1 -195 -1 0 
47 0 -1 109 0 -1 -205 -1 0 
45 0 0 152 0 0 -12 0 1 
-188 -1 1 392 1 0 122 0 0 
-43 0 1 -116 0 0 -202 -1 0 
-152 -1 0 225 0 1 296 0 -1 
159 0 0 85 0 -1 56 0 0 
-86 0 0 172 0 0 76 0 0 
-235 -1 -1 180 0 0 -18 0 -1 
143 0 0 -41 0 1 203 0 -1 
-228 -1 -1 114 0 0 175 0 -1 
124 0 0 20 0 0 -235 -1 0 
456 1 1 -59 0 0 -22 0 0 
56 0 0 -261 -1 1 -379 -1 1 
59 0 0 101 0 -1 47 0 -1 
-48 0 1 93 0 -1 45 0 0 
106 0 0 -50 0 0 113 0 0 
73 0 -1 -136 -1 0 -25 0 0 
141 0 -1 44 0 0 -200 -1 2 
80 0 -1 73 0 0 -13 0 -1 
-160 -1 0 -243 -1 0 92 0 0 
-205 -1 0 126 0 0 -6 0 0 
185 0 0 -339 -1 1 -25 -1 0 
256 0 0 45 0 -2 145 0 0 
186 0 0 -282 -1 0 -131 -1 1 
25 0 -1 43 0 0 -26 -1 0 
137 0 -1 -175 -1 0 -138 -1 0 
-392 -1 0 50 0 -1 -275 -1 0 
101 0 0 -1 0 0 -360 -1 1 
-1 0 1 88 0 0 3 0 0 
105 0 -1 -230 -1 0 -100 -1 1 
50 0 0 14 0 0 -188 -1 0 
-251 -1 0 100 0 0 -267 -1 -1 
98 0 -1 117 0 -1 21 0 0 
73 0 0 49 0 0 419 1 0 
421 1 0 208 0 0 272 1 0 
-163 -1 1 -162 -1 0 -32 0 -1 
42 0 0 57 0 -1 273 0 0 
-42 0 0 42 0 0 -7 0 0 
-59 0 0 27 0 0 192 0 0 
205 1 -1 208 0 0 81 0 -1 
200 0 0 20 0 0 -373 -1 0 
27 0 0 -178 -1 0 210 0 -1 
-220 -1 0 3 0 -1 -75 0 -1 
157 0 0 129 0 -1 -391 -1 0 
413 1 -1 90 0 -2 178 0 0 
71 0 0 146 0 -1 -178 -1 0 
-213 -1 0 29 0 -1 -150 -1 0 
3 0 -1 -3 0 -1 -178 -1 -1 
96 0 0 -22 0 -1 112 0 -1 
-139 0 -2 20 0 -1 179 0 0 
244 0 0 187 0 0 5 0 0 
176 0 0 58 0 0 -426 -1 -1 
116 0 0 -58 0 1 -251 -1 -1 
-55 -1 0 -221 -1 -1 -47 0 0 
159 0 -2 
v 3 1000 double
-346.95221419 16.781379896 -0.88689384224 -347.39477064 8.0212898916 15.286654881 -195.36027346 -5.8216709546 22.537861039 
-282.29636755 32.854893245 7.2325751968 -114.88378153 27.54400282 -15.282872396 -520.72936248 1.7559686612 -10.21870987 
-473.69970656 -10.639478587 -11.292612501 -149.58561811 -12.439447984 1.3832774603 -318.01641907 -10.898514521 -0.95858485456 
-393.59114778 -0.92546829561 -17.457074594 -334.9658797 -17.713710054 -7.4529738493 -346.757756 -7.6610594808 43.218716019 
-434.93735285 -3.5427080843 -31.201536813 -275.63747906 -8.9996087113 40.503636873 -405.62901577 -16.204665284 0.5315913374 
-247.03494055 -22.83435697 -15.751703447 -426.70998454 7.3079590196 -1.872667002 -387.06091034 -8.3936764951 -6.3181943443 
-229.49010596 3.0789171651 -4.6792729468 -421.89623394 14.067431318 -0.94029813351 -310.3964141 8.9137396372 17.871138017 
-264.98348543 2.7426275103 -0.81839819818 -67.512751935 -8.8592905655 0.49484930456 -430.41501992 -16.595870649 16.706609369 
-198.59095171 2.9415846179 18.833667375 -196.15708059 15.822026054 15.64370031 -62.813663777 -12.861660129 -0.80788068985 
-190.83958737 -14.7780162 14.965104065 -97.227938175 10.712381054 0.32404782509 -414.86956973 -5.9564667993 0.23059751566 
-40.483445474 -8.9276318952 9.979896211 -204.52585602 16.778666298 17.916299903 -174.98086295 -18.642917512 18.427684372 
-113.03581695 -6.7716175148 13.36848998 -186.49060566 -35.92296273 12.139967947 -328.35677931 19.475593011 -2.4599408256 
-323.19138927 11.822276593 -0.11835606046 -416.74769669 -5.9395877775 0.7089157699 -175.96725046 -4.0450726649 19.896873999 
-73.369330033 11.546716206 9.8078423137 -176.54537083 -5.6294349794 -6.3408471537 -58.916939166 23.515775665 1.2104409036 
-157.02333103 10.873586655 -19.581520915 -378.03626642 19.020816116 -3.191368455 -401.17222402 6.9676861784 11.673212398 
-480.75069521 -20.90769853 -2.6645096369 -133.96104564 -0.3569022744 25.394179282 -478.83852755 12.768201123 -2.5121607678 
-448.7586505 -8.1469787897 5.6987217688 -149.27134424 -30.115924105 17.575408706 -451.46814153 13.304001616 23.512354461 
-442.61574698 -0.44689946141 1.7803931009 -453.47820797 -1.7793856603 16.563797852 -388.05520515 27.748547132 12.522697346 
-152.00654117 18.05338781 13.182466634 -276.03715232 3.9537284628 -10.546911104 -421.56201871 10.803300481 13.461293252 
-357.44615893 24.874559516 11.027999432 -466.22491195 2.5737761617 -8.760008147 -311.36032589 1.2787432282 -4.098877908 
-185.29451987 -13.625252575 3.0572207161 -362.38099982 28.181984895 -19.991997184 -115.62751689 7.7698503095 24.465898394 
-122.54462553 -4.6867942808 -8.1792046061 -237.29098561 4.9268358858 -9.8620093274 -268.52725237 20.31388601 -9.5903280558 
-488.04405221 0.090135931993 -0.097016384239 -460.76739718 8.7290620035 -3.9768394016 -203.48651387 10.634164908 32.078827297 
-426.54850105 14.100300866 -0.068341598065 -97.527420576 26.36076215 -10.110550116 -79.350925814 -13.866464058 -30.161306246 
-130.76193089 -21.218081241 -14.592080355 -168.6960853 -9.0143941615 10.996955241 -87.011445077 -28.087118704 15.658814949 
-225.516351 16.735690058 -13.117099128 -37.962936496 -0.88466662854 -5.6574017587 0.94240635917 -0.78811269607 -7.9843532974 
-96.675498183 5.2855182665 5.5074230294 -309.20253665 -10.691519958 -21.989924234 -373.25829253 -3.6726551771 25.84427006 
-268.13200607 3.7666252258 -9.8805550052 -144.69428081 -25.991318648 0.70184957592 -186.52624007 24.740652717 -34.376095638 
-81.728910913 11.867247431 -15.291184128 -39.547089904 -11.18242048 -3.9637419867 -137.96267488 1.1872302236 13.714405203 
-87.086488562 -0.62541203412 -13.520889505 -384.16825415 -12.833947728 -15.452536672 -321.3092492 -14.148599334 12.066773102 
-452.09370662 -0.70142230546 10.001571592 -380.98657985 7.8372985087 5.4245336684 -54.959940421 -2.5712053811 -19.493396015 
-451.00145811 5.8951537834 2.6182936179 -272.09437293 -22.084944406 -5.9579314356 -312.45731167 22.911998759 -4.3514134353 
-444.49940699 21.537793165 6.7579169233 -326.40360603 0.2718159917 1.9962061999 -331.32410151 -10.245306265 0.67976501576 
-292.77167635 -18.218811857 -23.541583501 -223.01620428 -0.046725071814 -25.58300085 -45.318422832 0.4009295864 -2.2211757584 
-311.44544599 28.166395522 8.2428397752 -380.65328377 3.0770267713 14.283451064 -363.55913827 -22.221981845 -0.61942017605 
-80.50505678 29.989559586 -16.878074543 -493.70593594 4.2629611413 9.5347884018 -473.70326014 2.3518223081 7.4627648863 
-359.62051709 6.067561421 -4.8582432304 -209.80623443 -22.68897817 -8.5290670209 -123.76374954 30.24305698 40.503437768 
-197.73438977 -3.2859553112 20.622177512 -385.72033779 9.3118470164 -19.005487634 -129.97966825 -15.067247516 -7.8469195905 
-355.46151192 -1.3362867457 -28.458214545 -199.41841644 5.8162617958 -15.583553928 -115.46748503 -13.330096482 -25.456039313 
-15.193532905 0.27403519244 23.60550271 -481.21307839 9.3208092427 -18.192047089 -132.35004821 -27.397792073 -11.805997992 