ITEM: TIMESTEP
5000
ITEM: NUMBER OF ATOMS
1000
ITEM: BOX BOUNDS xy xz yz pp pp pp
0 10 0
0 10 0
-0 10 0
ITEM: ATOMS id type type x y z ix iy iz vx vy vz fx fy fz omegax omegay omegaz radius 
357 1 1 4.06861 1.80018 0.875785 -5 0 1 -215.294 -1.48401 -20.2298 -3046.38 1257.48 390.547 0 0 0 0.5 
261 1 1 2.06878 3.2631 0.437979 0 0 1 -67.6579 -1.27467 17.9437 93.7368 555.483 -102.435 0 0 0 0.5 
6 1 1 3.65728 3.25386 1.63148 -2 0 0 -74.1595 12.08 -14.9414 -879.015 1225.84 -712.698 0 0 0 0.5 
276 1 1 1.72224 1.65902 0.534688 -7 0 1 -314.843 10.2895 27.935 -377.481 156.57 -1290.62 0 0 0 0.5 
275 1 1 2.14077 3.98385 1.76768 -3 0 0 -38.7873 9.14813 -1.13974 -1228.07 673.835 -307.512 0 0 0 0.5 
771 2 2 0.412169 2.19757 1.65229 -4 0 0 -188.935 5.28675 23.161 2961.54 -1975.9 749.208 0 0 0 0.5 
26 1 1 0.380325 0.227296 1.44044 11 1 0 -475.182 -12.6378 -8.86696 713.896 142.188 -951.112 0 0 0 0.5 
373 1 1 3.03176 2.65544 0.629232 -1 0 0 -103.03 -13.6389 16.1617 -1986.51 60.0755 102.578 0 0 0 0.5 
249 1 1 1.76751 2.34153 1.14208 -6 0 1 -160.39 -9.91526 4.28317 1127.95 151.898 1458.58 0 0 0 0.5 
659 2 2 2.52752 4.14261 0.894224 0 0 0 -16.7603 17.9212 6.97631 -291.924 178.53 672.2 0 0 0 0.5 
761 2 2 4.52876 1.46173 1.60063 -6 0 0 -277.519 -1.30127 -0.200522 -149.761 799.913 166.243 0 0 0 0.5 
364 1 1 2.25027 4.09691 0.00512576 0 0 0 -8.96541 -7.67447 -3.25835 -66.4318 -1072.16 284.084 0 0 0 0.5 
916 2 2 3.93175 2.40221 0.334803 -3 0 0 -160.513 10.5121 -10.3335 2385.67 -1631.02 -1330.3 0 0 0 0.5 
777 2 2 0.412191 1.3887 1.43545 -8 0 0 -388.085 11.1327 3.95329 4118.65 -1357.79 -1313.86 0 0 0 0.5 
759 2 2 1.22744 3.02617 1.2501 -4 0 0 -113.49 11.6901 14.1114 621.994 -437.505 1011.14 0 0 0 0.5 
882 2 2 4.58521 4.58111 0.720534 0 0 0 -24.1613 -8.39796 -6.62274 -322.338 688.204 142.261 0 0 0 0.5 
279 1 1 0.97317 2.62511 0.256443 37 1 0 -119.257 7.06593 4.30087 171.998 -7.97178 -176.605 0 0 0 0.5 
523 2 2 0.651994 1.24774 0.351102 -6 0 1 -294.159 0.472235 24.9965 -861.534 1387.72 800.32 0 0 0 0.5 
775 2 2 0.912055 0.758281 0.789934 -11 0 0 -391.729 -16.5828 31.4106 1043.12 -3207.14 3017.09 0 0 0 0.5 
228 1 1 2.30662 1.00701 0.190225 -19 0 1 -343.105 0.852808 22.9028 615.241 -757.299 -492.148 0 0 0 0.5 
387 1 1 4.68201 1.30591 0.72585 -9 0 0 -261.394 -2.18887 -24.6717 2543.84 -772.439 -909.338 0 0 0 0.5 
382 1 1 1.97883 2.3746 0.191396 -2 0 0 -135.581 -2.41263 11.2665 -4705.4 -279.477 2051.59 0 0 0 0.5 
323 1 1 2.77569 3.25432 1.23992 -2 0 0 -70.0908 -8.06986 7.73099 -1588.73 1294.98 -528.094 0 0 0 0.5 
410 1 1 1.16708 3.94208 1.78685 0 0 0 -36.4268 -5.85945 -18.2283 1043.23 -572.723 1063.45 0 0 0 0.5 
990 2 2 4.19406 4.23961 1.66705 0 0 0 -15.3412 -9.16971 3.04905 -74.9565 334.016 398.812 0 0 0 0.5 
371 1 1 1.57945 4.16882 0.951153 0 0 0 -29.786 0.514721 -13.8144 959.762 210.988 299.892 0 0 0 0.5 
620 2 2 0.600699 4.67468 0.577087 0 0 0 -5.52759 8.52271 6.31916 -610.382 560.025 386.35 0 0 0 0.5 
136 1 1 3.62753 1.93783 1.62787 -5 0 0 -217.455 5.65686 -9.48282 -1335.86 101.246 -433.069 0 0 0 0.5 
378 1 1 0.27843 2.65731 0.969794 -2 0 1 -125.344 2.86717 -6.98173 828.993 -454.643 923.775 0 0 0 0.5 
256 1 1 0.70668 3.5797 1.00927 -2 0 0 -81.2155 21.8916 4.82703 -213.187 1147.79 -383.966 0 0 0 0.5 
616 2 2 1.45117 4.9276 1.74644 0 0 0 7.91028 1.97616 -3.00239 -209.562 13.3986 -21.1684 0 0 0 0.5 
100 1 1 0.854318 4.0413 0.282149 0 0 0 -19.4143 8.99608 -1.18003 217.679 -202.531 -420.303 0 0 0 0.5 
754 2 2 3.90276 3.25174 0.0056477 -1 0 1 -48.7152 -9.4801 20.0475 624.847 633.126 -1465.45 0 0 0 0.5 
32 1 1 3.79831 0.25644 0.864743 28 1 0 -397.075 -13.7665 -5.61641 189.912 55.2433 769.548 0 0 0 0.5 
98 1 1 0.40019 4.45634 1.52385 0 0 0 -11.6481 21.0543 7.39187 -679.088 246.009 332.59 0 0 0 0.5 
107 1 1 4.08056 0.449937 1.8007 -5 0 0 -340.184 -20.3573 -7.44282 -186.834 -128.085 -619.555 0 0 0 0.5 
361 1 1 3.91572 3.7699 0.806578 -1 0 0 -46.1759 -5.79535 -0.247345 679.29 -723.687 725.258 0 0 0 0.5 
638 2 2 3.52976 4.45601 0.801889 0 0 0 -23.8577 3.85538 -2.73346 831.558 50.4078 -173.645 0 0 0 0.5 
362 1 1 4.41272 3.13745 1.18286 -1 0 0 -56.0636 -17.955 6.69287 579.055 -377.999 -249.018 0 0 0 0.5 
807 2 2 3.2529 4.34729 1.67815 0 0 0 -18.968 -14.8101 7.25983 -14.4182 382.245 -908.036 0 0 0 0.5 
877 2 2 1.46196 0.151307 0.0954319 27 1 1 -515.176 28.5236 23.6764 -2267.64 2407.27 355.714 0 0 0 0.5 
89 1 1 0.0898937 3.21251 0.338104 0 0 1 -59.4523 16.5633 -1.30383 385.956 -382.607 -1671.53 0 0 0 0.5 
368 1 1 3.03438 3.5505 0.343869 0 0 0 -60.6875 -3.73829 0.808348 573.652 -770.691 -443.777 0 0 0 0.5 
650 2 2 4.8661 4.01591 0.182524 -1 0 0 -12.7271 -21.7846 -6.4656 571.954 -527.167 -234.49 0 0 0 0.5 
425 1 1 2.74549 1.66999 1.97803 -3 0 0 -232.235 -4.96538 -18.8674 480.583 145.932 -190.785 0 0 0 0.5 
377 1 1 2.02747 0.015138 0.840476 -17 0 1 -521.435 36.0471 17.2836 291.747 994.615 -1464.52 0 0 0 0.5 
431 1 1 4.83118 2.24541 1.93461 -3 0 0 -188.332 10.4666 -28.6296 1112.27 -1567 -897.928 0 0 0 0.5 
569 2 2 4.83954 0.485308 1.05058 21 1 0 -393.516 -16.7051 -29.1774 -1506.36 -561.793 -3111.08 0 0 0 0.5 
490 1 1 3.09294 1.24199 3.20056 -7 0 0 -264.955 -10.6576 -11.8909 -2108.16 817.397 -1013.55 0 0 0 0.5 
867 2 2 1.98131 1.05072 2.67302 -11 0 0 -308.523 -6.36133 -7.69146 0 0 0 0 0 0 0.5 
402 1 1 0.521903 0.979239 3.89281 -10 0 0 -325.878 4.3092 -4.68224 4873.36 -1656.91 1286.76 0 0 0 0.5 
16 1 1 3.89737 0.936549 3.69048 -6 0 0 -321.525 -30.2161 -17.0649 -913.258 -1343.08 1321.86 0 0 0 0.5 
525 2 2 2.39479 1.56349 3.67589 -6 0 0 -259.906 9.27912 26.4086 829.458 -386.806 -509.202 0 0 0 0.5 
999 2 2 2.27797 3.04897 3.45105 -2 0 0 -87.3298 -12.6707 7.00099 -1623.63 299.667 330.533 0 0 0 0.5 
5 1 1 4.19131 4.41913 2.64871 -1 0 0 -15.7705 -3.75748 4.32923 -930.41 47.6784 157.691 0 0 0 0.5 
925 2 2 4.6851 4.68231 3.57846 -1 0 0 -15.1702 -3.31135 -8.12323 864.665 -233.34 561.489 0 0 0 0.5 
573 2 2 2.35151 3.76642 3.96477 -1 0 0 -51.9407 20.0855 -11.0988 590.99 -247.649 -15.877 0 0 0 0.5 
899 2 2 2.58417 2.3533 2.89711 -4 0 0 -100.626 -22.6075 4.12651 -3903.43 46.8514 -106.405 0 0 0 0.5 
313 1 1 1.28152 2.13331 2.13578 -5 0 0 -186.79 -1.01441 8.54986 235.045 -17.3723 130.72 0 0 0 0.5 
280 1 1 4.00463 2.22888 3.44171 -5 0 0 -180.054 1.05683 22.1998 -2189.71 -713.838 1769.24 0 0 0 0.5 
144 1 1 2.16475 3.44363 2.59123 -1 0 0 -64.7873 0.73612 3.4534 -178.684 -659.093 -717.99 0 0 0 0.5 
854 2 2 2.93243 3.55237 2.11321 -1 0 0 -71.8146 10.9434 -3.2712 374.108 1095.16 802.88 0 0 0 0.5 
509 2 2 4.73557 2.04296 3.30269 -6 0 0 -201.87 -6.06871 4.59739 -711.031 1006.68 -1188.46 0 0 0 0.5 
366 1 1 1.85552 4.06439 3.29187 -1 0 0 -43.4202 0.858704 -16.4401 254.455 -165.633 909.508 0 0 0 0.5 
746 2 2 2.6748 4.72428 3.03045 0 0 0 -19.2915 -5.56815 15.8851 -992.809 378.309 -204.049 0 0 0 0.5 
271 1 1 1.8171 0.46067 3.64288 -12 0 0 -385.291 -16.2408 -8.47932 -101.692 123.582 202.224 0 0 0 0.5 
519 2 2 3.25801 2.90122 3.40415 -1 0 0 -112.302 7.35617 5.02397 1542.92 696.871 694.827 0 0 0 0.5 
400 1 1 1.23153 3.35125 2.5281 0 0 0 -68.7496 -17.099 -6.11016 1089.46 -798.694 175.171 0 0 0 0.5 
943 2 2 0.930519 3.1514 3.46577 -1 0 0 -91.2187 -7.99733 3.63838 -29.9641 15.3206 29.9998 0 0 0 0.5 
865 2 2 3.54672 2.28063 2.87369 -1 0 0 -170.091 -10.5159 -11.9001 2361.49 -1150.95 681.185 0 0 0 0.5 
680 2 2 4.28806 2.76689 2.0589 -2 0 0 -125.823 15.453 5.51018 -782.841 1265.18 2173.64 0 0 0 0.5 
496 1 1 4.64449 0.351575 3.74172 23 1 1 -381.827 -14.5263 19.2789 2835.69 -645.577 -119.526 0 0 0 0.5 
14 1 1 0.898295 4.028 3.15209 -1 0 0 -30.6245 6.45052 -0.980488 -121.173 -490.606 -247.74 0 0 0 0.5 
112 1 1 1.40027 4.91042 3.35167 0 0 0 -12.591 6.13752 -8.66855 -63.8789 244.807 229.099 0 0 0 0.5 
913 2 2 0.490189 4.29865 3.92868 0 0 0 -23.3412 18.6202 0.97007 765.059 -1447.8 1186.23 0 0 0 0.5 
502 2 2 -0.0160013 2.25505 3.38314 -5 0 0 -179.863 -22.6379 -8.13709 700.332 -1742.39 -128.289 0 0 0 0.5 
427 1 1 -0.0379445 4.86313 3.53422 1 0 0 -15.9731 9.49399 -3.85061 -1084.81 945.919 -883.257 0 0 0 0.5 
395 1 1 3.13685 4.10919 3.49975 0 0 0 -27.0665 1.31552 9.41686 -113.651 -243.965 37.7403 0 0 0 0.5 
151 1 1 4.58554 3.70122 3.1301 -1 0 0 -33.2767 -13.7186 0.166369 -575.177 624.49 -442.269 0 0 0 0.5 
690 2 2 1.87911 4.58305 2.53021 0 0 0 -3.23 -8.33112 -10.0317 15.922 308.674 -654.343 0 0 0 0.5 
697 2 2 3.36163 2.84893 2.37923 -1 0 0 -121.923 6.15717 -14.6576 97.0871 -530.137 -284.162 0 0 0 0.5 
528 2 2 0.627841 4.87048 2.78492 0 0 0 -15.0734 8.9854 -14.4792 -178.966 258.845 -189.271 0 0 0 0.5 
512 2 2 0.434509 3.92654 2.35683 -1 0 0 -29.2535 -18.487 -1.97968 -1284.62 774.204 -1077.89 0 0 0 0.5 
408 1 1 3.80352 4.86943 3.36928 0 0 0 -8.61046 -11.1812 9.2806 -1640.91 -111.123 373.864 0 0 0 0.5 
439 1 1 3.26551 4.3071 2.55646 0 0 0 -11.2947 -12.2965 10.5859 -201.869 -322.583 251.21 0 0 0 0.5 
713 2 2 3.84159 0.417771 2.79427 -13 0 1 -433.327 16.1531 13.7336 -284.823 -891.277 -171.095 0 0 0 0.5 
517 2 2 4.0328 1.82537 2.41632 -3 0 0 -188.043 6.63863 -28.5993 2013.13 -102.58 -1593.58 0 0 0 0.5 
973 2 2 0.33584 2.66804 2.48313 -1 0 0 -107.397 -0.537849 38.9766 -790.848 303.256 -935.848 0 0 0 0.5 
636 2 2 4.05652 1.25948 2.91399 -7 0 1 -329.641 11.2131 -1.70995 392.952 -671.045 17.6388 0 0 0 0.5 
411 1 1 2.5323 2.46346 5.52982 -4 0 0 -132.804 -3.78265 -22.7254 -55.0888 -26.7165 -3.78697 0 0 0 0.5 
992 2 2 0.726837 1.09349 4.75454 -15 0 0 -347.503 15.5174 13.843 -955.177 -2418.38 734.633 0 0 0 0.5 
340 1 1 3.43937 2.72772 5.21935 -2 0 0 -124.603 12.9209 16.3617 -382.71 304.423 -598.571 0 0 0 0.5 
518 2 2 0.678521 2.50598 5.79449 -2 0 0 -137.736 -7.11987 -7.48743 -208.115 -130.771 71.4871 0 0 0 0.5 
201 1 1 3.38829 1.29042 5.01094 -6 0 0 -313.359 -0.0207562 17.4579 -186.238 4334.73 2010.93 0 0 0 0.5 
930 2 2 2.46083 3.66988 4.7934 -2 0 0 -67.8478 13.3343 -4.22899 1404.62 -1667.13 -296.125 0 0 0 0.5 
995 2 2 1.62097 1.92588 4.13341 -6 0 0 -268.553 32.3106 -25.0597 -619.835 290.273 366.481 0 0 0 0.5 
732 2 2 3.77977 0.29663 5.54493 -24 0 1 -401.943 4.5306 13.5302 0 0 0 0 0 0 0.5 
546 2 2 1.70575 3.56038 5.16762 -1 0 0 -82.4051 -3.34572 -10.3759 274.249 -833.322 -1251.66 0 0 0 0.5 
539 2 2 1.46941 0.883198 4.33428 -6 0 0 -342.081 4.9569 35.1797 1272.13 -455.041 -864.639 0 0 0 0.5 
783 2 2 1.49789 2.60279 5.10354 -4 0 0 -150.188 5.28326 -12.5653 1832.4 -732.19 1246.07 0 0 0 0.5 
646 2 2 3.11059 2.54148 4.31751 -1 0 0 -112.227 0.665766 -1.76564 -2133.08 2329.58 28.5646 0 0 0 0.5 
730 2 2 0.806938 0.445396 5.42563 -11 0 0 -383.865 -0.834917 27.9879 -92.2296 -905.739 -2002.18 0 0 0 0.5 
172 1 1 2.25148 1.50558 5.36257 -15 0 0 -252.476 9.32983 -52.8038 1064.32 81.4594 -689.34 0 0 0 0.5 
767 2 2 3.78795 2.15817 4.39899 -5 0 0 -150.238 4.75034 34.7891 3478.2 -412.14 83.3643 0 0 0 0.5 
435 1 1 2.24431 4.41221 5.34003 0 0 0 -22.6381 -5.65976 -11.2378 -704.834 780.867 429.782 0 0 0 0.5 
594 2 2 0.686749 1.97943 4.9168 -3 0 0 -160.614 -1.98427 -13.2921 -115.596 2554.62 467.873 0 0 0 0.5 
795 2 2 2.74445 0.554276 5.43287 -5 0 0 -376.54 0.084052 17.3428 157.622 -741.8 -618.449 0 0 0 0.5 
374 1 1 2.95467 4.69381 4.67632 -1 0 0 -17.0076 -4.67744 -7.96208 -4.2753 -224.751 -37.8567 0 0 0 0.5 
679 2 2 3.00069 4.08735 5.70534 0 0 0 -28.5879 -7.74509 -7.04132 -401.325 -24.5639 146.077 0 0 0 0.5 
773 2 2 3.98784 2.9164 4.03204 -2 0 0 -90.1715 15.1518 3.95356 -313.24 -2746.13 635.81 0 0 0 0.5 
918 2 2 1.44017 3.8735 4.26304 -1 0 0 -63.3551 4.04773 -15.4752 136.018 -27.9811 -42.692 0 0 0 0.5 
23 1 1 0.784777 2.94683 4.61422 -5 0 0 -108.202 -7.52214 -22.9737 -882.214 -81.6387 36.6595 0 0 0 0.5 
939 2 2 4.70223 4.19229 5.06418 0 0 0 -20.5913 7.88537 6.05251 1005.16 -1751.58 -106.13 0 0 0 0.5 
876 2 2 3.98488 4.46528 4.45998 0 0 0 -7.52164 0.620993 -5.63602 -128.566 263.347 -540.634 0 0 0 0.5 
740 2 2 1.39285 3.30373 5.97462 -2 0 0 -63.4623 -21.2559 -8.55112 108.524 -418.887 -240.634 0 0 0 0.5 
459 1 1 1.85596 4.9565 5.93107 1 0 0 4.27552 1.86215 1.90537 9.23828 -6.62326 -879.687 0 0 0 0.5 
914 2 2 1.18688 4.17271 5.67368 0 0 0 -33.2366 12.3113 -8.75523 182.182 -773.501 945.008 0 0 0 0.5 
817 2 2 0.65904 3.98085 4.84918 0 0 0 -56.036 -0.88105 -2.50003 -116.66 -549.656 -264.4 0 0 0 0.5 
396 1 1 0.511703 4.78599 5.32958 0 0 0 -20.5574 -0.309914 5.69242 -392.802 -620.12 -664.647 0 0 0 0.5 
298 1 1 4.78523 0.560686 4.69874 -9 0 0 -349.419 -12.9055 13.7038 1799.97 -1068.05 -344.474 0 0 0 0.5 
936 2 2 1.97352 4.73577 4.084 -1 0 0 -2.46981 -1.41865 -1.39447 -165.103 153.069 -89.9581 0 0 0 0.5 
487 1 1 3.21022 0.603073 4.28174 -11 0 0 -334.167 -24.653 -0.567626 405.887 196.979 -349.249 0 0 0 0.5 
905 2 2 0.314311 3.44165 4.09269 -1 0 0 -111.175 3.1761 1.12769 -592.992 1949.02 -717.462 0 0 0 0.5 
766 2 2 4.59873 3.30138 4.67635 -1 0 0 -85.863 4.73669 13.405 -1155.48 1131.62 433.439 0 0 0 0.5 
12 1 1 1.55432 1.41823 5.95496 -9 0 0 -209.302 -15.4802 -20.4496 2318.41 -1497.26 -77.4003 0 0 0 0.5 
127 1 1 0.565901 3.24873 5.45958 -1 0 0 -76.964 5.36751 0.788115 1654.14 135.015 -302.887 0 0 0 0.5 
449 1 1 3.79769 4.24885 5.33895 0 0 0 -25.3678 -0.0357693 -3.24574 212.188 216.356 -689.935 0 0 0 0.5 
714 2 2 4.00876 1.03742 4.90115 23 1 0 -313.145 -4.36726 3.14489 1368.12 -736.926 1224.9 0 0 0 0.5 
429 1 1 3.93485 1.97495 5.33566 -3 0 0 -145.864 -9.30723 29.9454 -2474.25 -3295.43 -1485.51 0 0 0 0.5 
937 2 2 3.6389 3.61929 4.1068 -1 0 0 -55.0885 15.0355 13.8765 -460.863 1381.6 1295.54 0 0 0 0.5 
39 1 1 3.74299 1.50995 4.07036 -12 0 0 -239.988 -11.7922 7.23145 -795.077 2333.41 -862.654 0 0 0 0.5 
8 1 1 4.95109 2.10243 5.2249 -3 0 0 -139.174 -6.80175 22.2379 -2778.38 1296.44 1324 0 0 0 0.5 
640 2 2 1.63967 0.920294 7.79745 -7 0 0 -361.151 13.4919 -50.5646 556.5 -1657.77 -2605.39 0 0 0 0.5 
658 2 2 3.89098 4.30561 6.27288 0 0 0 -18.0723 -16.1538 -10.1063 -309.551 -331.525 -226.362 0 0 0 0.5 
17 1 1 0.939176 1.69785 6.01153 -5 0 0 -195.724 -16.5327 -1.35922 -2943.01 130.298 532.332 0 0 0 0.5 
28 1 1 2.85646 3.60198 6.54603 -1 0 0 -47.667 0.97098 -6.47031 -104.98 776.069 43.7555 0 0 0 0.5 
656 2 2 1.27817 2.26438 7.38529 -6 0 0 -152.99 3.87247 -4.35879 4300.11 -3024.24 1607.81 0 0 0 0.5 
480 1 1 2.44833 3.24559 7.40782 -2 0 0 -65.8898 2.0006 1.06078 121.397 -1071.32 824.53 0 0 0 0.5 
270 1 1 3.66758 2.56985 6.28199 -2 0 0 -109.304 -22.2447 -10.5613 -723.854 -356.368 -272.154 0 0 0 0.5 
448 1 1 0.406753 4.97541 6.4003 1 0 0 -3.41741 -2.86946 7.46854 -1506.7 1540.59 163.464 0 0 0 0.5 
60 1 1 4.24185 4.83779 7.45116 0 0 0 3.25906 -2.66996 3.76842 827.869 -162.839 -50.4214 0 0 0 0.5 
335 1 1 0.651121 1.56554 6.94624 -5 0 0 -150.142 -41.3375 7.82679 -370.036 -967.077 497.832 0 0 0 0.5 
372 1 1 1.55857 3.06542 7.79086 0 0 0 -74.9579 -6.9943 -0.621886 196.259 -1627.61 -369.893 0 0 0 0.5 
47 1 1 0.406072 0.642341 7.23831 -9 0 0 -439.249 13.6559 19.5288 302.162 1138.37 -360.146 0 0 0 0.5 
399 1 1 0.445325 2.08098 7.77912 -7 0 -1 -155.834 -19.2963 5.78871 -2920.46 3256.14 -2195.08 0 0 0 0.5 
234 1 1 1.66394 3.0537 6.90267 -1 0 0 -68.9883 -17.7276 3.56139 -875.274 -284.167 647.375 0 0 0 0.5 
348 1 1 4.33705 3.35566 6.91485 -2 0 0 -77.6792 -2.32292 -30.9888 -205.401 232.888 594.599 0 0 0 0.5 
242 1 1 2.36761 0.336683 7.68637 -12 0 0 -407.331 1.75239 -26.1235 1379.13 -2146.94 -975.799 0 0 0 0.5 
862 2 2 3.94569 0.431044 7.21888 -6 0 0 -311.126 -13.5637 4.66767 145.124 -25.0952 -225.049 0 0 0 0.5 
924 2 2 2.1036 3.94302 6.3858 0 0 0 -48.7367 -4.1523 -17.366 -1257.98 315.364 -158.893 0 0 0 0.5 
750 2 2 2.58385 1.31005 6.06297 -8 0 0 -276.115 7.64326 5.49427 -230.346 784.583 465.202 0 0 0 0.5 
908 2 2 2.24094 2.73749 6.39134 -2 0 0 -100.462 -10.3423 0.00327701 1971.18 -1076.88 -1728.9 0 0 0 0.5 
97 1 1 1.94756 3.97156 7.36034 0 0 0 -29.3894 4.54193 -5.94143 -658.798 1061.09 -136.955 0 0 0 0.5 
38 1 1 1.75101 1.17244 6.66865 -6 0 0 -269.757 -2.8297 32.7531 165.466 -206.776 600.393 0 0 0 0.5 
343 1 1 3.83623 3.95697 7.38391 0 0 0 -30.4458 -0.584272 1.65883 -34.8785 1143.36 550.385 0 0 0 0.5 
681 2 2 2.92911 4.11935 7.36465 0 0 0 -29.788 -6.47941 11.8409 -1020.34 -770.379 -1239.27 0 0 0 0.5 
329 1 1 0.600626 2.44615 6.74157 -1 0 0 -106.173 -18.4311 -1.63752 -1002.93 -988.079 -1313.35 0 0 0 0.5 
790 2 2 0.600488 2.963 7.51962 0 0 0 -71.2735 -6.75095 0.796329 -1172.48 492.921 595.965 0 0 0 0.5 
838 2 2 2.7059 4.7659 6.32174 0 0 0 -0.697179 -4.76183 6.90875 363.721 448.751 -184.545 0 0 0 0.5 
358 1 1 1.01604 3.97072 7.43365 0 0 0 -30.7173 -8.08656 19.9585 -263.133 -241.344 362.685 0 0 0 0.5 
842 2 2 4.56304 1.96326 7.4494 -2 0 0 -167.355 21.205 -20.8128 -736.34 1470.8 0.441839 0 0 0 0.5 
134 1 1 3.66024 2.6444 7.74555 -3 0 0 -95.5861 15.3249 -14.5592 195.769 465.195 923.787 0 0 0 0.5 
718 2 2 4.49759 2.43906 6.71991 -3 0 0 -119.609 0.216389 2.69903 -79.1269 773.318 -1384.09 0 0 0 0.5 
80 1 1 3.52746 4.87979 6.81818 0 0 0 2.60867 -12.8497 4.81692 323.606 -496.589 731.582 0 0 0 0.5 
116 1 1 1.13563 3.6544 6.63565 0 0 0 -48.6086 -11.0066 4.4803 -716.216 -435.489 293.588 0 0 0 0.5 
217 1 1 3.28198 3.03398 7.08281 -2 0 0 -84.2369 -8.38591 -11.7395 1044.61 -419.153 -1175.84 0 0 0 0.5 
851 2 2 4.88657 1.48614 7.61254 -2 0 0 -213.173 5.07786 10.2095 1861 -833.068 1661.81 0 0 0 0.5 
572 2 2 0.160758 3.04389 6.58119 -1 0 0 -88.895 14.0734 -14.7762 383.841 685.657 -421.506 0 0 0 0.5 
504 2 2 0.570939 4.72334 7.44834 0 0 0 -18.8656 11.5112 -3.85349 425.277 -543.704 -222.765 0 0 0 0.5 
611 2 2 1.72132 4.67321 6.80186 0 0 0 -15.1056 12.378 0.160105 139.464 832.437 665.933 0 0 0 0.5 
62 1 1 0.839526 4.37534 6.55673 0 0 0 -6.20818 -0.0610857 8.32734 152.935 -173.77 225.276 0 0 0 0.5 
644 2 2 4.45367 0.343202 6.43113 29 1 0 -327.779 -0.340262 -26.6113 -4360.78 3654.08 1066.58 0 0 0 0.5 
148 1 1 3.64795 3.4503 6.06694 -1 0 0 -52.0047 -11.5133 -7.7531 1006.22 -858.409 -268.901 0 0 0 0.5 
570 2 2 4.30394 1.35162 6.00518 -7 0 0 -197.505 -19.0759 35.9096 -668.314 -209.924 310.088 0 0 0 0.5 
73 1 1 2.62832 4.9126 7.28137 0 0 0 -0.911628 12.9864 2.58196 1099.91 -550.2 281.701 0 0 0 0.5 
606 2 2 4.5966 3.6506 7.87785 -1 0 0 -28.2713 -18.2327 -11.4625 -1061.57 352.446 682.797 0 0 0 0.5 
584 2 2 4.60225 4.31547 6.76368 -1 0 0 -22.7839 5.49257 -2.65023 24.3346 -771.235 -504.477 0 0 0 0.5 
314 1 1 4.77762 3.58633 6.07241 -1 0 0 -66.1119 10.7803 1.19349 266.181 1524.15 -870.007 0 0 0 0.5 
498 1 1 4.98239 0.0765296 7.01242 26 1 0 -385.619 -5.4712 29.293 -7932.19 798.329 2099.19 0 0 0 0.5 
259 1 1 0.764 1.79459 8.90654 -8 0 -1 -164.015 -16.2477 -1.73877 -546.178 1780.04 1373.23 0 0 0 0.5 
588 2 2 4.04969 4.42588 9.95178 0 0 0 -13.5549 -15.5569 -6.82779 160.498 -40.2298 124.211 0 0 0 0.5 
542 2 2 2.20048 0.160425 9.04579 -16 0 0 -491.745 -2.89993 30.7895 2241.03 -3805.82 -2008.16 0 0 0 0.5 
764 2 2 1.14411 1.66942 8.05434 -6 0 0 -237.907 -6.24246 2.96567 3417.91 -652.166 -212.497 0 0 0 0.5 
760 2 2 4.76171 3.31431 9.6039 -2 0 0 -51.2235 -16.4173 -15.3831 -790.795 936.784 1016.17 0 0 0 0.5 
272 1 1 4.92529 1.93917 8.62065 -20 0 -1 -209.424 -20.661 15.1023 23.1052 330.745 -176.975 0 0 0 0.5 
526 2 2 1.00853 2.56397 8.45529 -4 0 0 -114.365 -8.61 -12.543 250.015 1476.31 -124.641 0 0 0 0.5 
649 2 2 2.77686 2.61529 8.06046 -2 0 0 -98.803 -15.5836 11.3346 32.2925 99.9554 83.9456 0 0 0 0.5 
840 2 2 1.83661 3.81066 9.16152 0 0 0 -31.4975 -5.59935 -2.16279 645.232 -309.57 -421.521 0 0 0 0.5 
247 1 1 3.78018 0.685303 9.98164 -15 0 0 -360.306 -2.89663 -1.44894 -212.58 -50.5327 162.829 0 0 0 0.5 
694 2 2 2.1613 0.971494 8.45441 -20 0 0 -393.515 10.8592 -20.7157 1617.33 1612.64 1618.48 0 0 0 0.5 
756 2 2 1.88481 2.98125 9.43996 -1 0 0 -89.6345 -5.93387 11.3392 -2143.56 2068.62 651.232 0 0 0 0.5 
623 2 2 2.75962 4.03205 9.14691 0 0 0 -30.5018 -5.71047 -2.60592 382.033 -21.2961 -371.863 0 0 0 0.5 
597 2 2 2.13936 3.42147 8.43027 -1 0 0 -53.8104 -15.8356 -14.0537 237.278 -938.308 -799.648 0 0 0 0.5 
733 2 2 1.83645 0.904426 9.32121 21 1 -1 -333.319 0.394656 13.7936 255.971 2838.35 -402.197 0 0 0 0.5 
222 1 1 2.50429 1.73299 8.73678 25 1 0 -222.973 3.51201 -34.4679 -1014.27 -2498.36 -2700.28 0 0 0 0.5 
238 1 1 0.959785 0.683179 8.1995 -10 0 0 -352.865 4.53351 -20.7025 -3198.39 3009.42 -2540.66 0 0 0 0.5 
274 1 1 0.794318 0.900476 9.14961 -4 0 -1 -299.866 -12.1239 -4.6389 -2490.26 1268.94 2998.96 0 0 0 0.5 
726 2 2 1.24674 0.242819 8.61261 13 1 0 -471.189 -8.42666 -5.49802 4095.18 -7546.33 1379.97 0 0 0 0.5 
258 1 1 1.27526 1.23544 9.84573 -4 0 0 -291.975 11.9212 -2.91287 1918.23 158.772 1720.78 0 0 0 0.5 
235 1 1 4.46728 3.11841 8.68966 -2 0 0 -79.3221 6.94966 8.16162 972.951 37.0108 -491.253 0 0 0 0.5 
293 1 1 0.362392 1.54289 9.7895 -18 0 -1 -234.62 -13.0716 -6.23944 -2987.65 -1181.56 -2499.61 0 0 0 0.5 
776 2 2 2.36683 2.36312 9.26103 -3 0 0 -150.593 -4.84602 -19.3531 213.352 615.641 -1564.15 0 0 0 0.5 
108 1 1 2.72062 2.16968 9.94698 -2 0 0 -188.287 13.7574 22.9848 2107.84 655.46 1144.19 0 0 0 0.5 
859 2 2 2.77417 3.1241 8.88586 -1 0 0 -66.0824 -5.18815 15.0329 444.679 -2062.39 782.993 0 0 0 0.5 
861 2 2 2.36004 4.74102 8.99979 1 0 0 -5.06517 2.38734 -1.07008 -385.387 331.481 -900.152 0 0 0 0.5 
823 2 2 2.9984 1.26013 9.29216 23 1 -1 -294.991 -32.1192 -1.53392 618.915 -1262.14 358.938 0 0 0 0.5 
598 2 2 1.58717 4.44553 9.59482 0 0 0 -10.6428 1.93345 -7.80808 -466.441 467.081 13.1816 0 0 0 0.5 
568 2 2 1.96467 4.2114 8.26732 0 0 0 -11.0164 4.23919 2.65606 1176.21 -535.793 -158.116 0 0 0 0.5 
120 1 1 4.29086 0.986041 9.2191 -6 0 -1 -342.527 1.22844 13.3054 57.6656 161.416 -429.3 0 0 0 0.5 
96 1 1 0.891239 3.5688 9.76294 -1 0 0 -50.8231 -4.71445 0.808095 662.494 -1339.06 66.3349 0 0 0 0.5 
608 2 2 0.949777 3.90664 8.92932 0 0 0 -32.6942 16.9032 6.39413 645.187 994.658 -16.0623 0 0 0 0.5 
233 1 1 0.38075 3.53258 8.07298 -1 0 0 -60.8138 3.93516 14.4508 978.37 -915.794 237.897 0 0 0 0.5 
360 1 1 3.06681 1.85525 9.7011 -7 0 0 -199.156 0.364833 3.03218 4100.42 -2824.97 -741.718 0 0 0 0.5 
227 1 1 3.68478 3.37525 8.71338 -4 0 0 -71.3013 -5.33205 -5.10264 160.177 44.286 811.02 0 0 0 0.5 
587 2 2 0.0834183 2.12869 9.43933 -2 0 0 -179.456 2.20159 -24.3157 -651.558 -581.608 955.161 0 0 0 0.5 
870 2 2 4.25035 4.35049 8.25309 0 0 0 -10.8431 1.65751 -10.7431 550.715 -1497.55 556.562 0 0 0 0.5 
564 2 2 3.77782 4.47967 8.91418 0 0 0 -22.6538 -9.44653 -0.668556 -17.2423 58.3704 155.175 0 0 0 0.5 
195 1 1 -0.000726187 2.43479 8.5064 -3 0 0 -128.109 -11.4673 11.2849 -690.205 -211.107 -1503.15 0 0 0 0.5 
864 2 2 3.47493 3.7715 9.47623 0 0 0 -28.3432 -5.54465 8.01491 503.024 -878.861 -142.153 0 0 0 0.5 
819 2 2 3.24209 3.65485 8.12577 0 0 0 -37.6167 -19.3431 -9.61097 -1308.61 361.337 -1477.77 0 0 0 0.5 
585 2 2 0.317995 4.18148 9.23589 0 0 0 -35.1145 1.81776 15.3553 -1075.34 546.454 689.102 0 0 0 0.5 
71 1 1 3.1215 4.39922 9.98427 0 0 0 -10.415 0.416203 -8.2317 131.284 -613.121 -324.085 0 0 0 0.5 
563 2 2 0.367709 4.74549 8.3878 0 0 0 4.778 -14.4811 11.7532 -1048.9 -1306.13 -843.811 0 0 0 0.5 
596 2 2 3.87566 1.86656 8.83926 -7 0 0 -209.205 -6.15129 41.717 399.464 -2498.02 -2241.25 0 0 0 0.5 
506 2 2 0.821905 2.9123 9.27572 -3 0 -1 -80.8248 -10.6636 4.02727 1012.23 -1099.28 -367.584 0 0 0 0.5 
139 1 1 4.61171 4.1667 9.22675 -1 0 0 -7.72367 -5.80522 -11.0717 -1063.65 -437.095 -528.922 0 0 0 0.5 
110 1 1 1.26576 4.6506 8.35336 0 0 0 -7.52175 2.44886 2.21299 56.9686 546.288 -57.5662 0 0 0 0.5 
762 2 2 3.94128 1.11302 8.36405 -15 0 -1 -308.303 -19.6101 -21.557 4.02778 901.387 622.584 0 0 0 0.5 
56 1 1 1.15988 3.45907 8.4171 -1 0 0 -49.0135 6.95026 -0.880011 471.375 -1228.71 104.041 0 0 0 0.5 
677 2 2 2.99144 4.53835 8.32915 0 0 0 -9.20142 -2.87237 -10.9335 -207.537 191.754 124.249 0 0 0 0.5 
10 1 1 3.96873 2.05453 8.10041 -2 0 0 -136.091 -13.9231 -8.12639 -569.958 -1630.34 2957.94 0 0 0 0.5 
772 2 2 3.77126 2.60896 9.31488 -2 0 0 -137.796 8.37881 -3.38501 -108.07 1344.55 2146.44 0 0 0 0.5 
403 1 1 3.90994 6.19477 1.07085 1 0 0 51.7556 11.5648 1.41679 -721.036 -1016.04 68.8221 0 0 0 0.5 
82 1 1 2.51653 5.88353 0.278623 1 0 0 45.5772 9.62063 -2.2673 356.176 844.505 456.821 0 0 0 0.5 
906 2 2 0.903979 7.66225 1.89784 3 0 0 155.773 -5.78807 -19.269 -1406.97 -21.4612 2468.4 0 0 0 0.5 
453 1 1 3.78531 6.27531 1.96592 1 0 0 66.6533 -5.329 13.7752 -237.77 -47.4883 163.313 0 0 0 0.5 
853 2 2 2.97418 5.02296 1.12494 0 0 0 9.30834 7.8828 10.3138 -1229.77 345.954 731.351 0 0 0 0.5 
167 1 1 3.99997 7.84665 0.438408 6 0 0 177.837 4.16637 9.83681 -464.953 2889.08 -410.302 0 0 0 0.5 
159 1 1 3.22712 8.56454 1.38502 6 0 0 222.424 23.9904 -16.3617 -2079.62 3266.59 672.343 0 0 0 0.5 
669 2 2 2.2441 8.63969 0.127688 -24 -1 1 270.107 13.9095 -2.58155 -1804.31 1231.3 -1290.64 0 0 0 0.5 
605 2 2 0.943193 6.00999 0.4694 1 0 0 52.4552 -21.5698 2.34144 -828.346 864.841 -963.266 0 0 0 0.5 
341 1 1 0.219083 8.45214 1.30676 3 0 0 245.634 -10.2018 -0.0879274 -52.2243 -2396.97 2094.49 0 0 0 0.5 
881 2 2 3.88659 5.22459 1.22377 1 0 0 6.19175 -4.92942 14.8879 -373.467 1165.18 -423.094 0 0 0 0.5 
363 1 1 4.60319 6.25801 0.454768 1 0 0 53.4938 1.62766 1.26576 -71.8074 -914.047 -838.368 0 0 0 0.5 
183 1 1 4.73535 5.1448 1.30675 0 0 0 17.3537 -1.25686 -0.368066 -238.72 1264.77 -635.525 0 0 0 0.5 
109 1 1 2.68336 5.01473 0.122177 1 0 0 4.2828 1.66904 -2.53408 -732.552 1121.06 163.566 0 0 0 0.5 
442 1 1 4.18538 6.99473 0.484849 3 0 0 82.5969 9.27817 -9.99303 -359.883 -865.177 304.351 0 0 0 0.5 
747 2 2 0.197443 9.14676 0.644678 -19 -1 1 403.75 -28.1258 55.0841 2402.27 -1601.21 -1690.6 0 0 0 0.5 
996 2 2 2.97732 5.90723 1.13035 1 0 0 44.0608 6.60958 6.15786 277.679 1150.41 -125.349 0 0 0 0.5 
826 2 2 2.92614 9.65613 1.37875 7 0 0 387.208 11.8938 -0.170213 2324.69 681.079 -2710.73 0 0 0 0.5 
769 2 2 0.125811 7.04207 1.58391 7 0 0 131.124 -14.6263 -3.83411 1732.05 -786.839 -26.94 0 0 0 0.5 
553 2 2 2.34034 9.41866 1.92033 -24 -1 1 433.553 -41.8435 19.5099 -88.9995 -1804.35 1803.73 0 0 0 0.5 
833 2 2 0.576787 5.46478 1.6688 1 0 0 18.2611 1.64515 -6.19328 1593.69 -864.481 -812.475 0 0 0 0.5 
532 2 2 2.96003 6.81945 0.176808 16 0 0 84.0737 -4.18677 7.6401 955.23 -1283.1 -96.1619 0 0 0 0.5 
617 2 2 1.91927 8.37887 1.45279 7 0 1 231.021 9.99576 3.53697 22.344 470.145 546.215 0 0 0 0.5 
600 2 2 0.23873 5.41462 0.805098 1 0 1 12.9556 16.6473 2.1427 -439.042 1249.24 -405.291 0 0 0 0.5 
99 1 1 2.13312 5.06894 0.934634 0 0 0 8.56968 -5.31392 -3.02117 -549.117 -234.623 -111.69 0 0 0 0.5 
441 1 1 1.46192 7.11614 1.37385 3 0 1 127.428 -9.63605 9.41224 1084.62 -91.2282 356.06 0 0 0 0.5 
808 2 2 1.75395 7.87784 0.719167 4 0 0 189.967 1.85399 11.5964 920.382 -2224.46 896.605 0 0 0 0.5 
994 2 2 0.812813 6.83229 0.413511 4 0 0 99.257 -8.29993 -1.29961 -383.123 1078.1 450.195 0 0 0 0.5 
21 1 1 2.0017 9.75548 1.68921 -19 -1 0 420.688 11.7229 -10.8557 -2868.98 444.978 2690.16 0 0 0 0.5 
92 1 1 3.77199 5.20152 0.309566 0 0 1 12.9146 1.92524 13.8087 235.968 409.588 -228.352 0 0 0 0.5 
278 1 1 2.15103 9.32827 0.870684 19 0 0 405.837 -35.277 -13.3552 263.663 -161.298 541.763 0 0 0 0.5 
627 2 2 1.24967 5.3052 0.874555 1 0 0 8.47907 -8.55984 1.23771 404.625 -1276.11 783.803 0 0 0 0.5 
133 1 1 0.848426 7.54759 0.77165 4 0 1 164.633 16.7016 2.16089 91.9644 1080.21 -236.016 0 0 0 0.5 
285 1 1 1.34352 8.5395 0.545278 12 0 0 269.201 8.26639 5.07156 -1776.16 3202.3 -927.026 0 0 0 0.5 
44 1 1 1.71339 6.32455 1.01531 2 0 0 56.2357 -2.46927 -7.08098 436.737 -1783.58 -868.066 0 0 0 0.5 
972 2 2 1.91526 7.18459 0.457739 2 0 0 115.496 -23.9225 -6.58183 1212.07 -2658.72 1496.39 0 0 0 0.5 
87 1 1 3.64926 6.07843 0.131736 1 0 1 47.8611 12.8494 -2.51065 -68.1089 556.846 -113.698 0 0 0 0.5 
221 1 1 3.92662 8.05423 1.5399 3 0 0 158.319 15.7869 -8.52288 1884.14 -1049.4 -403.191 0 0 0 0.5 
91 1 1 2.3031 5.49821 1.8062 0 0 0 19.7847 -5.50651 -6.63088 436.986 -894.761 -122.85 0 0 0 0.5 
37 1 1 3.11284 9.26269 0.467764 -24 -1 0 274.77 25.9423 -1.30125 0 0 0 0 0 0 0.5 
887 2 2 2.59201 7.77363 1.50081 6 0 0 228.164 -14.8428 16.7893 -490.857 1754.03 2527.63 0 0 0 0.5 
815 2 2 2.75177 6.72017 1.59962 2 0 0 63.3338 15.4244 6.69451 -112.209 187.945 -202.165 0 0 0 0.5 
420 1 1 2.73777 7.32005 0.881589 2 0 0 110.933 9.92455 -5.62352 639.195 -1682.03 -991.632 0 0 0 0.5 
957 2 2 2.79379 8.2112 0.600159 6 0 0 225.38 -2.62595 5.06186 1378.52 -491.885 221.292 0 0 0 0.5 
810 2 2 3.56173 9.32159 1.91733 8 0 0 372.658 -18.5048 -4.90015 419.12 -1905.76 -867.008 0 0 0 0.5 
796 2 2 1.90251 6.33973 1.99854 5 0 0 63.3414 0.258246 -1.76337 759.053 61.764 307.836 0 0 0 0.5 
765 2 2 4.53315 9.21239 1.26455 10 0 0 331.467 0.642396 -1.69087 0 0 0 0 0 0 0.5 
582 2 2 4.51433 7.34093 1.33808 6 0 0 128.99 11.1766 -21.4804 420.767 -417.391 -572.443 0 0 0 0.5 
674 2 2 4.89117 5.41678 0.327305 1 0 0 28.0363 -12.0202 1.57079 -1369.82 -154.149 586.179 0 0 0 0.5 
321 1 1 4.90617 6.60581 1.68134 2 0 0 90.1611 -1.24472 15.122 51.5339 1370.71 437.004 0 0 0 0.5 
938 2 2 2.3231 6.05163 3.59164 2 0 0 41.9194 -13.7263 -8.24941 -405.064 -216.068 1683.02 0 0 0 0.5 
166 1 1 0.833653 6.62929 3.04981 2 0 0 94.4413 -12.7824 -17.3127 -1001.5 2348.3 1368.59 0 0 0 0.5 
20 1 1 4.48676 9.27405 2.87909 -26 -1 0 366.801 40.5903 -20.7625 9.17168 1012.46 -216.454 0 0 0 0.5 
432 1 1 3.02198 5.34259 3.9456 1 0 0 12.4282 -4.75989 -6.09779 280.134 211.633 -218.655 0 0 0 0.5 
188 1 1 0.759034 6.96768 3.95294 3 0 0 129.835 -9.71739 -10.6871 -1164.65 -216.63 629.901 0 0 0 0.5 
162 1 1 0.113186 8.76753 2.43185 8 0 0 272.861 -1.20983 -12.2668 -1499.01 47.5691 -3347.66 0 0 0 0.5 
146 1 1 4.87552 5.14152 2.77188 0 0 0 -5.90425 -6.23874 -0.170746 621.082 -401.133 611.63 0 0 0 0.5 
675 2 2 2.70105 5.60489 3.03872 0 0 0 31.6094 -6.28349 -18.8412 978.788 -449.31 -836.176 0 0 0 0.5 
461 1 1 0.63886 9.06295 3.96118 9 0 0 372.345 -13.1662 -0.0775891 620.135 4555.93 134.034 0 0 0 0.5 
792 2 2 4.33893 7.3048 2.41935 3 0 0 143.839 -14.8299 -24.9826 -1032.59 -2318.23 398.78 0 0 0 0.5 
426 1 1 4.08933 7.95168 2.40401 4 0 0 201.576 19.8568 -19.2367 3425.99 -728.422 1166.01 0 0 0 0.5 
556 2 2 2.52564 7.7652 3.3329 7 0 0 175.485 -2.66806 -26.1445 0 0 0 0 0 0 0.5 
114 1 1 3.98227 8.12527 3.7345 -15 -1 0 289.241 -13.5468 -48.06 -2161.49 -3285.99 1300.45 0 0 0 0.5 
337 1 1 3.35554 8.46982 2.4149 13 0 0 276.46 -4.74215 8.50659 -3676.22 3274.48 834.191 0 0 0 0.5 