LAMMPS (20 Nov 2019)
##############################################################


atom_style       sphere
comm_modify mode single vel yes
newton off

boundary 		f f f
units 		si


region 		mybox prism  	-0 10 -0 10 -0 10  0 0 0 units box
create_box 1 mybox
Created triclinic box = (-0 -0 -0) to (10 10 10) with tilt (0 0 0)
  1 by 1 by 1 MPI processor grid
create_atoms 1 single 3 4.75 0
Created 1 atoms
  create_atoms CPU = 1.9417e-05 secs
create_atoms 1 single 7 5.25 0
Created 1 atoms
  create_atoms CPU = 0.00100986 secs




set atom 1 type 1 vx 0.1 vy 0 vz 0 diameter 1 density 1000
  1 settings made for type
  1 settings made for vx
  1 settings made for vy
  1 settings made for vz
  1 settings made for diameter
  1 settings made for density
set atom 2 type 1 vx -0.1 vy 0 vz 0 diameter 1 density 1000
  1 settings made for type
  1 settings made for vx
  1 settings made for vy
  1 settings made for vz
  1 settings made for diameter
  1 settings made for density


neighbor 1 bin
neigh_modify delay 0

pair_style hybrid/overlay gran/hooke 10000 0 200 0 0 0 lubricate/poly 0.1 1 1 1.001 1.05

#pair_style gran/hooke 10000 0 200 0 0 0
#pair_coeff * *

pair_coeff * *  gran/hooke
pair_coeff * * lubricate/poly


timestep 0.0001


fix 1 all nve/sphere

#compute       attribute_atom all property/atom x vx vy fx fy

compute 1 all erotate/sphere
compute 3 all temp/profile 1 0 0 y 10
compute 4 all pressure 3
thermo_style custom step atoms c_4[4] vol ke

thermo_modify lost ignore norm no
compute_modify thermo_temp dynamic yes

fix 200 all deform 1 xy erate 1 remap v
thermo 1000

run		1
Neighbor list info ...
  update every 1 steps, delay 0 steps, check yes
  max neighbors/atom: 2000, page size: 100000
  master list distance cutoff = 2.05
  ghost atom cutoff = 2.05
  binsize = 1.025, bins = 10 10 10
  2 neighbor lists, perpetual/occasional/extra = 2 0 0
  (1) pair gran/hooke, perpetual
      attributes: half, newton off, size
      pair build: half/size/bin/newtoff
      stencil: half/bin/3d/newtoff
      bin: standard
  (2) pair lubricate/poly, perpetual
      attributes: full, newton off
      pair build: full/bin/atomonly
      stencil: full/bin/3d
      bin: standard
Per MPI rank memory allocation (min/avg/max) = 4.946 | 4.946 | 4.946 Mbytes
Step Atoms c_4[4] Volume KinEng 
       0        2 -0.00026279532         1000    5.2359878 
       1        2 -0.00026279532         1000    5.2359811 
Loop time of 2.7579e-05 on 1 procs for 1 steps with 2 atoms

47.1% CPU use with 1 MPI tasks x no OpenMP threads

MPI task timing breakdown:
Section |  min time  |  avg time  |  max time  |%varavg| %total
---------------------------------------------------------------
Pair    | 1.975e-06  | 1.975e-06  | 1.975e-06  |   0.0 |  7.16
Neigh   | 0          | 0          | 0          |   0.0 |  0.00
Comm    | 8.55e-07   | 8.55e-07   | 8.55e-07   |   0.0 |  3.10
Output  | 1.4778e-05 | 1.4778e-05 | 1.4778e-05 |   0.0 | 53.58
Modify  | 4.439e-06  | 4.439e-06  | 4.439e-06  |   0.0 | 16.10
Other   |            | 5.532e-06  |            |       | 20.06

Nlocal:    2 ave 2 max 2 min
Histogram: 1 0 0 0 0 0 0 0 0 0
Nghost:    0 ave 0 max 0 min
Histogram: 1 0 0 0 0 0 0 0 0 0
Neighs:    0 ave 0 max 0 min
Histogram: 1 0 0 0 0 0 0 0 0 0
FullNghs:  0 ave 0 max 0 min
Histogram: 1 0 0 0 0 0 0 0 0 0

Total # of neighbors = 0
Ave neighs/atom = 0
Neighbor list builds = 0
Dangerous builds = 0

dump dmp all custom 100 post/Test*.lammps id type x y z ix iy iz vx vy vz fx fy fz omegax omegay omegaz radius tqx tqy tqz
run 50000
Per MPI rank memory allocation (min/avg/max) = 5.008 | 5.008 | 5.008 Mbytes
Step Atoms c_4[4] Volume KinEng 
       1        2 -0.00026279532         1000    5.2359811 
    1000        2 -0.00026279532         1000    5.2298008 
    2000        2 -0.00026279532         1000    5.2244718 
    3000        2 -0.00026279532         1000    5.2200003 
    4000        2 -0.00026279532         1000    5.2163858 
    5000        2 -0.00026279532         1000     5.213628 
    6000        2 -0.00026279532         1000    5.2117262 
    7000        2 -0.00026279532         1000    5.2106801 
    8000        2 -0.00026279532         1000    5.2104893 
    9000        2 -0.00026279532         1000    5.2111531 
   10000        2 -0.00026279532         1000    5.2126712 
   11000        2 -0.00026279532         1000    5.2150431 
   12000        2 -0.00026279532         1000    5.2182684 
   13000        2 -0.00026279532         1000    5.2223465 
   14000        2 -0.00026279532         1000    5.2272771 
   15000        2 -0.00026279532         1000    5.2330596 
   16000        2 -0.00026279532         1000    5.2396936 
   17000        2 -0.00026279532         1000    5.2471786 
   18000        2 -0.00026279532         1000    5.2555142 
   19000        2 -0.00026279532         1000       5.2647 
   20000        2 -0.00026279532         1000    5.2747354 
   21000        2 -0.00026279532         1000    5.2856199 
   22000        2 -0.00026279532         1000    5.2973532 
   23000        2 -0.00026279532         1000    5.3099348 
   24000        2 -0.00026279532         1000    5.3233642 
   25000        2 -0.00026279532         1000    5.3376409 
   26000        2 -0.00026279532         1000    5.3527645 
   27000        2 -0.00026279532         1000    5.3687346 
   28000        2 -0.00026279532         1000    5.3855506 
   29000        2 -0.00026279532         1000    5.4032121 
   30000        2 -0.00026279532         1000    5.4217187 
   31000        2 -0.00026279532         1000    5.4410699 
   32000        2 -0.00026279532         1000    5.4612652 
   33000        2 -0.00026279532         1000    5.4823042 
   34000        2 -0.00026279532         1000    5.5041864 
   35000        2 -0.00026279532         1000    5.5269114 
   36000        2 -0.00026279532         1000    5.5504786 
   37000        2 -0.00026279532         1000    5.5748878 
   38000        2 -0.00026279532         1000    5.6001383 
   39000        2 -0.00026279532         1000    5.6262297 
   40000        2 -0.00026279532         1000    5.6531616 
   41000        2 -0.00026279532         1000    5.6809336 
   42000        2 -0.00026279532         1000    5.7095451 
   43000        0            0         1000           -0 
   44000        0            0         1000           -0 
   45000        0            0         1000           -0 
   46000        0            0         1000           -0 
   47000        0            0         1000           -0 
   48000        0            0         1000           -0 
   49000        0            0         1000           -0 
   50000        0            0         1000           -0 
   50001        0            0         1000           -0 
Loop time of 0.0621596 on 1 procs for 50000 steps with 0 atoms

90.8% CPU use with 1 MPI tasks x no OpenMP threads

MPI task timing breakdown:
Section |  min time  |  avg time  |  max time  |%varavg| %total
---------------------------------------------------------------
Pair    | 0.012727   | 0.012727   | 0.012727   |   0.0 | 20.47
Neigh   | 5.3597e-05 | 5.3597e-05 | 5.3597e-05 |   0.0 |  0.09
Comm    | 0.0021805  | 0.0021805  | 0.0021805  |   0.0 |  3.51
Output  | 0.023978   | 0.023978   | 0.023978   |   0.0 | 38.57
Modify  | 0.013152   | 0.013152   | 0.013152   |   0.0 | 21.16
Other   |            | 0.01007    |            |       | 16.20

Nlocal:    0 ave 0 max 0 min
Histogram: 1 0 0 0 0 0 0 0 0 0
Nghost:    0 ave 0 max 0 min
Histogram: 1 0 0 0 0 0 0 0 0 0
Neighs:    0 ave 0 max 0 min
Histogram: 1 0 0 0 0 0 0 0 0 0
FullNghs:  0 ave 0 max 0 min
Histogram: 1 0 0 0 0 0 0 0 0 0

Total # of neighbors = 0
Neighbor list builds = 1
Dangerous builds = 0



Total wall time: 0:00:00
