LIGGGHTS (Version LIGGGHTS-PUBLIC 3.8.0, compiled 2021-07-21-14:59:37 by arnesh, git commit 09bebd727468128a2427e451119ec66e3d5351cf)
echo            both
log             log_shearrate100.liggghts
