ITEM: TIMESTEP
12100
ITEM: NUMBER OF ATOMS
2
ITEM: BOX BOUNDS xy xz yz ff ff ff
0 131 121
0 10 0
-0 10 0
ITEM: ATOMS id type x y z ix iy iz vx vy vz fx fy fz omegax omegay omegaz radius tqx tqy tqz c_5[4] 
1 1 3.30445 4.75 0 0 0 0 0.303196 0 0 44.6086 0 0 0 0 -0.361952 0.5 0 0 -15.6064 1.31398 
2 1 6.82758 5.25 0 0 0 0 -0.085023 0 0 49.7013 0 0 0 0 -0.361952 0.5 0 0 -15.6064 1.31398 
