# vtk DataFile Version 4.2
Generated by LIGGGHTS
ASCII
DATASET POLYDATA
POINTS 2 float
3.07065 4.75 0 6.93918 5.25 0 
VERTICES 2 4
1 0 
1 1 

POINT_DATA 2
FIELD FieldData 8
id 1 2 int
1 2 
type 1 2 int
1 1 
i 3 2 int
0 0 0 0 0 0 
v 3 2 double
0.22816351835 0 0 -0.16862119626 0 0 
f 3 2 double
44.679474721 0 0 49.780302702 0 0 
radius 1 2 double
0.5 0.5 
omega 3 2 double
0 0 -0.098964331897 0 0 -0.098964331897 
tq 3 2 double
0 0 -15.689131141 0 0 -15.689131141 
