# vtk DataFile Version 4.2
Generated by LIGGGHTS
ASCII
DATASET POLYDATA
POINTS 2 float
3.13285 4.75 0 6.89855 5.25 0 
VERTICES 2 4
1 0 
1 1 

POINT_DATA 2
FIELD FieldData 8
id 1 2 int
1 2 
type 1 2 int
1 1 
i 3 2 int
0 0 0 0 0 0 
v 3 2 double
0.2503445057 0 0 -0.1439079186 0 0 
f 3 2 double
44.658510127 0 0 49.756944687 0 0 
radius 1 2 double
0.5 0.5 
omega 3 2 double
0 0 -0.1768100355 0 0 -0.1768100355 
tq 3 2 double
0 0 -15.664656068 0 0 -15.664656068 
