# vtk DataFile Version 4.2
Generated by LIGGGHTS
ASCII
DATASET POLYDATA
POINTS 2 float
3.30749 4.75 0 6.82674 5.25 0 
VERTICES 2 4
1 0 
1 1 

POINT_DATA 2
FIELD FieldData 8
id 1 2 int
1 2 
type 1 2 int
1 1 
i 3 2 int
0 0 0 0 0 0 
v 3 2 double
0.30404759073 0 0 -0.084073825972 0 0 
f 3 2 double
44.60775209 0 0 49.700391864 0 0 
radius 1 2 double
0.5 0.5 
omega 3 2 double
0 0 -0.36493290376 0 0 -0.36493290376 
tq 3 2 double
0 0 -15.605509313 0 0 -15.605509313 
