# vtk DataFile Version 4.2
Generated by LIGGGHTS
ASCII
DATASET POLYDATA
POINTS 2 float
3.18196 4.75 0 6.87292 5.25 0 
VERTICES 2 4
1 0 
1 1 

POINT_DATA 2
FIELD FieldData 8
id 1 2 int
1 2 
type 1 2 int
1 1 
i 3 2 int
0 0 0 0 0 0 
v 3 2 double
0.26654710662 0 0 -0.12585554928 0 0 
f 3 2 double
44.643196068 0 0 49.7398823 0 0 
radius 1 2 double
0.5 0.5 
omega 3 2 double
0 0 -0.23362047182 0 0 -0.23362047182 
tq 3 2 double
0 0 -15.646794588 0 0 -15.646794588 
