# vtk DataFile Version 4.2
Generated by LIGGGHTS
ASCII
DATASET POLYDATA
POINTS 2 float
3.25993 4.75 0 6.8414 5.25 0 
VERTICES 2 4
1 0 
1 1 

POINT_DATA 2
FIELD FieldData 8
id 1 2 int
1 2 
type 1 2 int
1 1 
i 3 2 int
0 0 0 0 0 0 
v 3 2 double
0.29041449712 0 0 -0.099263340417 0 0 
f 3 2 double
44.620637552 0 0 49.714748393 0 0 
radius 1 2 double
0.5 0.5 
omega 3 2 double
0 0 -0.31722306503 0 0 -0.31722306503 
tq 3 2 double
0 0 -15.620509521 0 0 -15.620509521 
