# vtk DataFile Version 4.2
Generated by LIGGGHTS
ASCII
DATASET POLYDATA
POINTS 2 float
3.1981 4.75 0 6.86554 5.25 0 
VERTICES 2 4
1 0 
1 1 

POINT_DATA 2
FIELD FieldData 8
id 1 2 int
1 2 
type 1 2 int
1 1 
i 3 2 int
0 0 0 0 0 0 
v 3 2 double
0.27166256304 0 0 -0.12015608727 0 0 
f 3 2 double
44.638361141 0 0 49.734495393 0 0 
radius 1 2 double
0.5 0.5 
omega 3 2 double
0 0 -0.25154714816 0 0 -0.25154714816 
tq 3 2 double
0 0 -15.641158353 0 0 -15.641158353 
