# vtk DataFile Version 4.2
Generated by LIGGGHTS
ASCII
DATASET POLYDATA
POINTS 2 float
3.47363 4.75 0 6.7962 5.25 0 
VERTICES 2 4
1 0 
1 1 

POINT_DATA 2
FIELD FieldData 8
id 1 2 int
1 2 
type 1 2 int
1 1 
i 3 2 int
0 0 0 0 0 0 
v 3 2 double
0.34747680769 0 0 -0.035686516588 0 0 
f 3 2 double
44.566704508 0 0 49.654658088 0 0 
radius 1 2 double
0.5 0.5 
omega 3 2 double
0 0 -0.51670246568 0 0 -0.51670246568 
tq 3 2 double
0 0 -15.557792216 0 0 -15.557792216 
