# vtk DataFile Version 4.2
Generated by LIGGGHTS
ASCII
DATASET POLYDATA
POINTS 2 float
3.26284 4.75 0 6.84042 5.25 0 
VERTICES 2 4
1 0 
1 1 

POINT_DATA 2
FIELD FieldData 8
id 1 2 int
1 2 
type 1 2 int
1 1 
i 3 2 int
0 0 0 0 0 0 
v 3 2 double
0.29126668083 0 0 -0.098313867233 0 0 
f 3 2 double
44.619832102 0 0 49.713850989 0 0 
radius 1 2 double
0.5 0.5 
omega 3 2 double
0 0 -0.32020627302 0 0 -0.32020627302 
tq 3 2 double
0 0 -15.619571586 0 0 -15.619571586 
