ITEM: TIMESTEP
15500
ITEM: NUMBER OF ATOMS
2
ITEM: BOX BOUNDS xy xz yz ff ff ff
0 165 155
0 10 0
-0 10 0
ITEM: ATOMS id type x y z ix iy iz vx vy vz fx fy fz omegax omegay omegaz radius tqx tqy tqz c_5[4] 
1 1 3.41246 4.75 0 0 0 0 0.332153 0 0 44.5812 0 0 0 0 -0.46319 0.5 0 0 -15.5746 1.31398 
2 1 6.80416 5.25 0 0 0 0 -0.0527593 0 0 49.6708 0 0 0 0 -0.46319 0.5 0 0 -15.5746 1.31398 
