# vtk DataFile Version 4.2
Generated by LIGGGHTS
ASCII
DATASET POLYDATA
POINTS 2 float
3.31665 4.75 0 6.82426 5.25 0 
VERTICES 2 4
1 0 
1 1 

POINT_DATA 2
FIELD FieldData 8
id 1 2 int
1 2 
type 1 2 int
1 1 
i 3 2 int
0 0 0 0 0 0 
v 3 2 double
0.30660335746 0 0 -0.081226280382 0 0 
f 3 2 double
44.60533648 0 0 49.697700476 0 0 
radius 1 2 double
0.5 0.5 
omega 3 2 double
0 0 -0.37387339667 0 0 -0.37387339667 
tq 3 2 double
0 0 -15.602698378 0 0 -15.602698378 
