ITEM: TIMESTEP
16800
ITEM: NUMBER OF ATOMS
2
ITEM: BOX BOUNDS xy xz yz ff ff ff
0 178 168
0 10 0
-0 10 0
ITEM: ATOMS id type x y z ix iy iz vx vy vz fx fy fz omegax omegay omegaz radius tqx tqy tqz c_5[4] 
1 1 3.45636 4.75 0 0 0 0 0.343221 0 0 44.5707 0 0 0 0 -0.501844 0.5 0 0 -15.5625 1.31398 
2 1 6.7981 5.25 0 0 0 0 -0.0404284 0 0 49.6591 0 0 0 0 -0.501844 0.5 0 0 -15.5625 1.31398 
