# vtk DataFile Version 4.2
Generated by LIGGGHTS
ASCII
DATASET POLYDATA
POINTS 2 float
3.16351 4.75 0 6.88196 5.25 0 
VERTICES 2 4
1 0 
1 1 

POINT_DATA 2
FIELD FieldData 8
id 1 2 int
1 2 
type 1 2 int
1 1 
i 3 2 int
0 0 0 0 0 0 
v 3 2 double
0.26057837385 0 0 -0.13250570186 0 0 
f 3 2 double
44.648837479 0 0 49.746167762 0 0 
radius 1 2 double
0.5 0.5 
omega 3 2 double
0 0 -0.21269785144 0 0 -0.21269785144 
tq 3 2 double
0 0 -15.653372763 0 0 -15.653372763 
