ITEM: TIMESTEP
12800
ITEM: NUMBER OF ATOMS
2
ITEM: BOX BOUNDS xy xz yz ff ff ff
0 138 128
0 10 0
-0 10 0
ITEM: ATOMS id type x y z ix iy iz vx vy vz fx fy fz omegax omegay omegaz radius tqx tqy tqz c_5[4] 
1 1 3.32589 4.75 0 0 0 0 0.309159 0 0 44.6029 0 0 0 0 -0.382812 0.5 0 0 -15.5999 1.31398 
2 1 6.82186 5.25 0 0 0 0 -0.0783789 0 0 49.695 0 0 0 0 -0.382812 0.5 0 0 -15.5999 1.31398 
