# vtk DataFile Version 4.2
Generated by LIGGGHTS
ASCII
DATASET POLYDATA
POINTS 2 float
3.04607 4.75 0 6.9583 5.25 0 
VERTICES 2 4
1 0 
1 1 

POINT_DATA 2
FIELD FieldData 8
id 1 2 int
1 2 
type 1 2 int
1 1 
i 3 2 int
0 0 0 0 0 0 
v 3 2 double
0.21877612017 0 0 -0.17908030586 0 0 
f 3 2 double
44.68834732 0 0 49.79018824 0 0 
radius 1 2 double
0.5 0.5 
omega 3 2 double
0 0 -0.065993007435 0 0 -0.065993007435 
tq 3 2 double
0 0 -15.699497487 0 0 -15.699497487 
