ITEM: TIMESTEP
6600
ITEM: NUMBER OF ATOMS
2
ITEM: BOX BOUNDS xy xz yz ff ff ff
0 76 66
0 10 0
-0 10 0
ITEM: ATOMS id type x y z ix iy iz vx vy vz fx fy fz omegax omegay omegaz radius tqx tqy tqz c_5[4] 
1 1 3.15059 4.75 0 0 0 0 0.256315 0 0 44.6529 0 0 0 0 -0.197748 0.5 0 0 -15.6581 1.31398 
2 1 6.88871 5.25 0 0 0 0 -0.137256 0 0 49.7507 0 0 0 0 -0.197748 0.5 0 0 -15.6581 1.31398 
