ITEM: TIMESTEP
8800
ITEM: NUMBER OF ATOMS
2
ITEM: BOX BOUNDS xy xz yz ff ff ff
0 98 88
0 10 0
-0 10 0
ITEM: ATOMS id type x y z ix iy iz vx vy vz fx fy fz omegax omegay omegaz radius tqx tqy tqz c_5[4] 
1 1 3.20904 4.75 0 0 0 0 0.275073 0 0 44.6351 0 0 0 0 -0.263495 0.5 0 0 -15.6374 1.31398 
2 1 6.86081 5.25 0 0 0 0 -0.116357 0 0 49.7309 0 0 0 0 -0.263495 0.5 0 0 -15.6374 1.31398 
