# vtk DataFile Version 4.2
Generated by LIGGGHTS
ASCII
DATASET POLYDATA
POINTS 2 float
3.17136 4.75 0 6.87803 5.25 0 
VERTICES 2 4
1 0 
1 1 

POINT_DATA 2
FIELD FieldData 8
id 1 2 int
1 2 
type 1 2 int
1 1 
i 3 2 int
0 0 0 0 0 0 
v 3 2 double
0.26313649454 0 0 -0.12965553357 0 0 
f 3 2 double
44.646419644 0 0 49.743473895 0 0 
radius 1 2 double
0.5 0.5 
omega 3 2 double
0 0 -0.22166576562 0 0 -0.22166576562 
tq 3 2 double
0 0 -15.650553206 0 0 -15.650553206 
