# vtk DataFile Version 4.2
Generated by LIGGGHTS
ASCII
DATASET POLYDATA
POINTS 2 float
3.00807 4.75 0 6.99208 5.25 0 
VERTICES 2 4
1 0 
1 1 

POINT_DATA 2
FIELD FieldData 8
id 1 2 int
1 2 
type 1 2 int
1 1 
i 3 2 int
0 0 0 0 0 0 
v 3 2 double
0.20341090188 0 0 -0.19619969283 0 0 
f 3 2 double
44.702869918 0 0 49.806368809 0 0 
radius 1 2 double
0.5 0.5 
omega 3 2 double
0 0 -0.011992933061 0 0 -0.011992933061 
tq 3 2 double
0 0 -15.716475376 0 0 -15.716475376 
