ITEM: TIMESTEP
15600
ITEM: NUMBER OF ATOMS
2
ITEM: BOX BOUNDS xy xz yz ff ff ff
0 166 156
0 10 0
-0 10 0
ITEM: ATOMS id type x y z ix iy iz vx vy vz fx fy fz omegax omegay omegaz radius tqx tqy tqz c_5[4] 
1 1 3.41579 4.75 0 0 0 0 0.333005 0 0 44.5804 0 0 0 0 -0.466164 0.5 0 0 -15.5737 1.31398 
2 1 6.80364 5.25 0 0 0 0 -0.0518107 0 0 49.6699 0 0 0 0 -0.466164 0.5 0 0 -15.5737 1.31398 
