ITEM: TIMESTEP
200
ITEM: NUMBER OF ATOMS
2
ITEM: BOX BOUNDS xy xz yz ff ff ff
0 12 2
0 10 0
-0 10 0
ITEM: ATOMS id type x y z ix iy iz vx vy vz fx fy fz omegax omegay omegaz radius tqx tqy tqz c_5[4] 
1 1 3.00402 4.75 0 0 0 0 0.201703 0 0 44.7045 0 0 0 0 -0.00598932 0.5 0 0 -15.7184 1.31398 
2 1 6.99602 5.25 0 0 0 0 -0.198102 0 0 49.8082 0 0 0 0 -0.00598932 0.5 0 0 -15.7184 1.31398 
