ITEM: TIMESTEP
11000
ITEM: NUMBER OF ATOMS
2
ITEM: BOX BOUNDS xy xz yz ff ff ff
0 120 110
0 10 0
-0 10 0
ITEM: ATOMS id type x y z ix iy iz vx vy vz fx fy fz omegax omegay omegaz radius tqx tqy tqz c_5[4] 
1 1 3.27162 4.75 0 0 0 0 0.293823 0 0 44.6174 0 0 0 0 -0.329155 0.5 0 0 -15.6168 1.31398 
2 1 6.83751 5.25 0 0 0 0 -0.0954656 0 0 49.7112 0 0 0 0 -0.329155 0.5 0 0 -15.6168 1.31398 
