# vtk DataFile Version 4.2
Generated by LIGGGHTS
ASCII
DATASET POLYDATA
POINTS 2 float
3.00402 4.75 0 6.99602 5.25 0 
VERTICES 2 4
1 0 
1 1 

POINT_DATA 2
FIELD FieldData 8
id 1 2 int
1 2 
type 1 2 int
1 1 
i 3 2 int
0 0 0 0 0 0 
v 3 2 double
0.20170334721 0 0 -0.19810219032 0 0 
f 3 2 double
44.704483831 0 0 49.808166975 0 0 
radius 1 2 double
0.5 0.5 
omega 3 2 double
0 0 -0.0059893211835 0 0 -0.0059893211835 
tq 3 2 double
0 0 -15.718362942 0 0 -15.718362942 
