# vtk DataFile Version 4.2
Generated by LIGGGHTS
ASCII
DATASET POLYDATA
POINTS 2 float
8.98248 6.30481 0 1.01752 3.69519 0 
VERTICES 2 4
1 0 
1 1 

POINT_DATA 2
FIELD FieldData 8
id 1 2 int
1 2 
type 1 2 int
1 1 
i 3 2 int
0 0 0 0 0 0 
v 3 2 double
0.4531854702 0.21125581481 0 -0.4531854702 -0.21125581481 0 
f 3 2 double
0 0 0 0 0 0 
radius 1 2 double
0.5 0.5 
omega 3 2 double
0 0 0 0 0 0 
tq 3 2 double
0 0 0 0 0 0 
