ITEM: TIMESTEP
10500
ITEM: NUMBER OF ATOMS
2
ITEM: BOX BOUNDS xy xz yz ff ff ff
0 115 105
0 10 0
-0 10 0
ITEM: ATOMS id type x y z ix iy iz vx vy vz fx fy fz omegax omegay omegaz radius tqx tqy tqz c_5[4] 
1 1 3.25703 4.75 0 0 0 0 0.289562 0 0 44.6214 0 0 0 0 -0.31424 0.5 0 0 -15.6214 1.31398 
2 1 6.8424 5.25 0 0 0 0 -0.100213 0 0 49.7156 0 0 0 0 -0.31424 0.5 0 0 -15.6214 1.31398 
