# vtk DataFile Version 4.2
Generated by LIGGGHTS
ASCII
DATASET POLYDATA
POINTS 2 float
3.03954 4.75 0 6.96372 5.25 0 
VERTICES 2 4
1 0 
1 1 

POINT_DATA 2
FIELD FieldData 8
id 1 2 int
1 2 
type 1 2 int
1 1 
i 3 2 int
0 0 0 0 0 0 
v 3 2 double
0.21621559714 0 0 -0.18193315075 0 0 
f 3 2 double
44.690767425 0 0 49.792884636 0 0 
radius 1 2 double
0.5 0.5 
omega 3 2 double
0 0 -0.056997047725 0 0 -0.056997047725 
tq 3 2 double
0 0 -15.702325861 0 0 -15.702325861 
