# vtk DataFile Version 4.2
Generated by LIGGGHTS
ASCII
DATASET POLYDATA
POINTS 2 float
3.03523 4.75 0 6.96737 5.25 0 
VERTICES 2 4
1 0 
1 1 

POINT_DATA 2
FIELD FieldData 8
id 1 2 int
1 2 
type 1 2 int
1 1 
i 3 2 int
0 0 0 0 0 0 
v 3 2 double
0.21450850475 0 0 -0.18383513318 0 0 
f 3 2 double
44.692380901 0 0 49.794682315 0 0 
radius 1 2 double
0.5 0.5 
omega 3 2 double
0 0 -0.050998840889 0 0 -0.050998840889 
tq 3 2 double
0 0 -15.704211727 0 0 -15.704211727 
