# vtk DataFile Version 4.2
Generated by LIGGGHTS
ASCII
DATASET POLYDATA
POINTS 2 float
3.07753 4.75 0 6.93416 5.25 0 
VERTICES 2 4
1 0 
1 1 

POINT_DATA 2
FIELD FieldData 8
id 1 2 int
1 2 
type 1 2 int
1 1 
i 3 2 int
0 0 0 0 0 0 
v 3 2 double
0.23072339437 0 0 -0.16576907223 0 0 
f 3 2 double
44.677055228 0 0 49.777606987 0 0 
radius 1 2 double
0.5 0.5 
omega 3 2 double
0 0 -0.10795273227 0 0 -0.10795273227 
tq 3 2 double
0 0 -15.686305143 0 0 -15.686305143 
