ITEM: TIMESTEP
13500
ITEM: NUMBER OF ATOMS
2
ITEM: BOX BOUNDS xy xz yz ff ff ff
0 145 135
0 10 0
-0 10 0
ITEM: ATOMS id type x y z ix iy iz vx vy vz fx fy fz omegax omegay omegaz radius tqx tqy tqz c_5[4] 
1 1 3.34774 4.75 0 0 0 0 0.315122 0 0 44.5973 0 0 0 0 -0.403663 0.5 0 0 -15.5933 1.31398 
2 1 6.81661 5.25 0 0 0 0 -0.0717356 0 0 49.6887 0 0 0 0 -0.403663 0.5 0 0 -15.5933 1.31398 
