# vtk DataFile Version 4.2
Generated by LIGGGHTS
ASCII
DATASET POLYDATA
POINTS 2 float
3.01835 4.75 0 6.98238 5.25 0 
VERTICES 2 4
1 0 
1 1 

POINT_DATA 2
FIELD FieldData 8
id 1 2 int
1 2 
type 1 2 int
1 1 
i 3 2 int
0 0 0 0 0 0 
v 3 2 double
0.20767951887 0 0 -0.19144374958 0 0 
f 3 2 double
44.698835389 0 0 49.801873679 0 0 
radius 1 2 double
0.5 0.5 
omega 3 2 double
0 0 -0.026998808771 0 0 -0.026998808771 
tq 3 2 double
0 0 -15.711757455 0 0 -15.711757455 
