ITEM: TIMESTEP
8000
ITEM: NUMBER OF ATOMS
2
ITEM: BOX BOUNDS xy xz yz ff ff ff
0 90 80
0 10 0
-0 10 0
ITEM: ATOMS id type x y z ix iy iz vx vy vz fx fy fz omegax omegay omegaz radius tqx tqy tqz c_5[4] 
1 1 3.18731 4.75 0 0 0 0 0.268252 0 0 44.6416 0 0 0 0 -0.239597 0.5 0 0 -15.6449 1.31398 
2 1 6.87042 5.25 0 0 0 0 -0.123956 0 0 49.7381 0 0 0 0 -0.239597 0.5 0 0 -15.6449 1.31398 
