# vtk DataFile Version 4.2
Generated by LIGGGHTS
ASCII
DATASET POLYDATA
POINTS 2 float
3.07523 4.75 0 6.93582 5.25 0 
VERTICES 2 4
1 0 
1 1 

POINT_DATA 2
FIELD FieldData 8
id 1 2 int
1 2 
type 1 2 int
1 1 
i 3 2 int
0 0 0 0 0 0 
v 3 2 double
0.22987011777 0 0 -0.16671976308 0 0 
f 3 2 double
44.677861711 0 0 49.778505543 0 0 
radius 1 2 double
0.5 0.5 
omega 3 2 double
0 0 -0.10495677872 0 0 -0.10495677872 
tq 3 2 double
0 0 -15.687247086 0 0 -15.687247086 
