# vtk DataFile Version 4.2
Generated by LIGGGHTS
ASCII
DATASET POLYDATA
POINTS 2 float
3.02461 4.75 0 6.97668 5.25 0 
VERTICES 2 4
1 0 
1 1 

POINT_DATA 2
FIELD FieldData 8
id 1 2 int
1 2 
type 1 2 int
1 1 
i 3 2 int
0 0 0 0 0 0 
v 3 2 double
0.21024050415 0 0 -0.18859038967 0 0 
f 3 2 double
44.696414847 0 0 49.799176796 0 0 
radius 1 2 double
0.5 0.5 
omega 3 2 double
0 0 -0.0360001719 0 0 -0.0360001719 
tq 3 2 double
0 0 -15.708927382 0 0 -15.708927382 
