# vtk DataFile Version 4.2
Generated by LIGGGHTS
ASCII
DATASET POLYDATA
POINTS 2 float
3.34774 4.75 0 6.81661 5.25 0 
VERTICES 2 4
1 0 
1 1 

POINT_DATA 2
FIELD FieldData 8
id 1 2 int
1 2 
type 1 2 int
1 1 
i 3 2 int
0 0 0 0 0 0 
v 3 2 double
0.31512158036 0 0 -0.071735575373 0 0 
f 3 2 double
44.597285392 0 0 49.688730236 0 0 
radius 1 2 double
0.5 0.5 
omega 3 2 double
0 0 -0.40366341065 0 0 -0.40366341065 
tq 3 2 double
0 0 -15.593332251 0 0 -15.593332251 
