# vtk DataFile Version 4.2
Generated by LIGGGHTS
ASCII
DATASET POLYDATA
POINTS 2 float
3.38942 4.75 0 6.80809 5.25 0 
VERTICES 2 4
1 0 
1 1 

POINT_DATA 2
FIELD FieldData 8
id 1 2 int
1 2 
type 1 2 int
1 1 
i 3 2 int
0 0 0 0 0 0 
v 3 2 double
0.3261929716 0 0 -0.059400219803 0 0 
f 3 2 double
44.58682115 0 0 49.677071345 0 0 
radius 1 2 double
0.5 0.5 
omega 3 2 double
0 0 -0.44236369593 0 0 -0.44236369593 
tq 3 2 double
0 0 -15.581164691 0 0 -15.581164691 
