# vtk DataFile Version 4.2
Generated by LIGGGHTS
ASCII
DATASET POLYDATA
POINTS 2 float
3.19269 4.75 0 6.86796 5.25 0 
VERTICES 2 4
1 0 
1 1 

POINT_DATA 2
FIELD FieldData 8
id 1 2 int
1 2 
type 1 2 int
1 1 
i 3 2 int
0 0 0 0 0 0 
v 3 2 double
0.26995747246 0 0 -0.12205583935 0 0 
f 3 2 double
44.639972725 0 0 49.736290964 0 0 
radius 1 2 double
0.5 0.5 
omega 3 2 double
0 0 -0.24557230699 0 0 -0.24557230699 
tq 3 2 double
0 0 -15.643036872 0 0 -15.643036872 
