ITEM: TIMESTEP
3000
ITEM: NUMBER OF ATOMS
2
ITEM: BOX BOUNDS xy xz yz ff ff ff
0 40 30
0 10 0
-0 10 0
ITEM: ATOMS id type x y z ix iy iz vx vy vz fx fy fz omegax omegay omegaz radius tqx tqy tqz c_5[4] 
1 1 3.06384 4.75 0 0 0 0 0.225604 0 0 44.6819 0 0 0 0 -0.0899743 0.5 0 0 -15.692 1.31398 
2 1 6.94428 5.25 0 0 0 0 -0.171473 0 0 49.783 0 0 0 0 -0.0899743 0.5 0 0 -15.692 1.31398 
