# vtk DataFile Version 4.2
Generated by LIGGGHTS
ASCII
DATASET POLYDATA
POINTS 2 float
3.4806 4.75 0 6.79551 5.25 0 
VERTICES 2 4
1 0 
1 1 

POINT_DATA 2
FIELD FieldData 8
id 1 2 int
1 2 
type 1 2 int
1 1 
i 3 2 int
0 0 0 0 0 0 
v 3 2 double
0.34917909968 0 0 -0.033789882597 0 0 
f 3 2 double
44.565095569 0 0 49.652865464 0 0 
radius 1 2 double
0.5 0.5 
omega 3 2 double
0 0 -0.52264474774 0 0 -0.52264474774 
tq 3 2 double
0 0 -15.555923933 0 0 -15.555923933 
