# vtk DataFile Version 4.2
Generated by LIGGGHTS
ASCII
DATASET POLYDATA
POINTS 2 float
3.14294 4.75 0 6.89287 5.25 0 
VERTICES 2 4
1 0 
1 1 

POINT_DATA 2
FIELD FieldData 8
id 1 2 int
1 2 
type 1 2 int
1 1 
i 3 2 int
0 0 0 0 0 0 
v 3 2 double
0.2537560414 0 0 -0.14010690525 0 0 
f 3 2 double
44.655285678 0 0 49.753352119 0 0 
radius 1 2 double
0.5 0.5 
omega 3 2 double
0 0 -0.1887755142 0 0 -0.1887755142 
tq 3 2 double
0 0 -15.660894063 0 0 -15.660894063 
