ITEM: TIMESTEP
12300
ITEM: NUMBER OF ATOMS
2
ITEM: BOX BOUNDS xy xz yz ff ff ff
0 133 123
0 10 0
-0 10 0
ITEM: ATOMS id type x y z ix iy iz vx vy vz fx fy fz omegax omegay omegaz radius tqx tqy tqz c_5[4] 
1 1 3.31053 4.75 0 0 0 0 0.3049 0 0 44.6069 0 0 0 0 -0.367913 0.5 0 0 -15.6046 1.31398 
2 1 6.8259 5.25 0 0 0 0 -0.0831246 0 0 49.6995 0 0 0 0 -0.367913 0.5 0 0 -15.6046 1.31398 
