# vtk DataFile Version 4.2
Generated by LIGGGHTS
ASCII
DATASET POLYDATA
POINTS 2 float
3.42582 4.75 0 6.80213 5.25 0 
VERTICES 2 4
1 0 
1 1 

POINT_DATA 2
FIELD FieldData 8
id 1 2 int
1 2 
type 1 2 int
1 1 
i 3 2 int
0 0 0 0 0 0 
v 3 2 double
0.33555904283 0 0 -0.048964871946 0 0 
f 3 2 double
44.577968709 0 0 49.667208266 0 0 
radius 1 2 double
0.5 0.5 
omega 3 2 double
0 0 -0.47508650358 0 0 -0.47508650358 
tq 3 2 double
0 0 -15.570876479 0 0 -15.570876479 
