# vtk DataFile Version 4.2
Generated by LIGGGHTS
ASCII
DATASET POLYDATA
POINTS 2 float
3.1131 4.75 0 6.91037 5.25 0 
VERTICES 2 4
1 0 
1 1 

POINT_DATA 2
FIELD FieldData 8
id 1 2 int
1 2 
type 1 2 int
1 1 
i 3 2 int
0 0 0 0 0 0 
v 3 2 double
0.24352069527 0 0 -0.1515107687 0 0 
f 3 2 double
44.664959724 0 0 49.764130601 0 0 
radius 1 2 double
0.5 0.5 
omega 3 2 double
0 0 -0.1528704545 0 0 -0.1528704545 
tq 3 2 double
0 0 -15.672182791 0 0 -15.672182791 
