ITEM: TIMESTEP
2000
ITEM: NUMBER OF ATOMS
2
ITEM: BOX BOUNDS xy xz yz ff ff ff
0 30 20
0 10 0
-0 10 0
ITEM: ATOMS id type x y z ix iy iz vx vy vz fx fy fz omegax omegay omegaz radius tqx tqy tqz c_5[4] 
1 1 3.04171 4.75 0 0 0 0 0.217069 0 0 44.69 0 0 0 0 -0.0599959 0.5 0 0 -15.7014 1.31398 
2 1 6.9619 5.25 0 0 0 0 -0.180982 0 0 49.792 0 0 0 0 -0.0599959 0.5 0 0 -15.7014 1.31398 
