ITEM: TIMESTEP
17700
ITEM: NUMBER OF ATOMS
2
ITEM: BOX BOUNDS xy xz yz ff ff ff
0 187 177
0 10 0
-0 10 0
ITEM: ATOMS id type x y z ix iy iz vx vy vz fx fy fz omegax omegay omegaz radius tqx tqy tqz c_5[4] 
1 1 3.4876 4.75 0 0 0 0 0.350881 0 0 44.5635 0 0 0 0 -0.528586 0.5 0 0 -15.5541 1.31398 
2 1 6.79485 5.25 0 0 0 0 -0.0318933 0 0 49.6511 0 0 0 0 -0.528586 0.5 0 0 -15.5541 1.31398 
