# vtk DataFile Version 4.2
Generated by LIGGGHTS
ASCII
DATASET POLYDATA
POINTS 2 float
3.20082 4.75 0 6.86434 5.25 0 
VERTICES 2 4
1 0 
1 1 

POINT_DATA 2
FIELD FieldData 8
id 1 2 int
1 2 
type 1 2 int
1 1 
i 3 2 int
0 0 0 0 0 0 
v 3 2 double
0.27251508524 0 0 -0.11920623695 0 0 
f 3 2 double
44.63755537 0 0 49.733597632 0 0 
radius 1 2 double
0.5 0.5 
omega 3 2 double
0 0 -0.25453429967 0 0 -0.25453429967 
tq 3 2 double
0 0 -15.640219177 0 0 -15.640219177 
