# vtk DataFile Version 4.2
Generated by LIGGGHTS
ASCII
DATASET POLYDATA
POINTS 2 float
3.26868 4.75 0 6.83847 5.25 0 
VERTICES 2 4
1 0 
1 1 

POINT_DATA 2
FIELD FieldData 8
id 1 2 int
1 2 
type 1 2 int
1 1 
i 3 2 int
0 0 0 0 0 0 
v 3 2 double
0.29297100211 0 0 -0.09641497228 0 0 
f 3 2 double
44.618221245 0 0 49.712056228 0 0 
radius 1 2 double
0.5 0.5 
omega 3 2 double
0 0 -0.32617215165 0 0 -0.32617215165 
tq 3 2 double
0 0 -15.617695884 0 0 -15.617695884 
