ITEM: TIMESTEP
1900
ITEM: NUMBER OF ATOMS
2
ITEM: BOX BOUNDS xy xz yz ff ff ff
0 29 19
0 10 0
-0 10 0
ITEM: ATOMS id type x y z ix iy iz vx vy vz fx fy fz omegax omegay omegaz radius tqx tqy tqz c_5[4] 
1 1 3.03954 4.75 0 0 0 0 0.216216 0 0 44.6908 0 0 0 0 -0.056997 0.5 0 0 -15.7023 1.31398 
2 1 6.96372 5.25 0 0 0 0 -0.181933 0 0 49.7929 0 0 0 0 -0.056997 0.5 0 0 -15.7023 1.31398 
