ITEM: TIMESTEP
87600
ITEM: NUMBER OF ATOMS
2
ITEM: BOX BOUNDS xy xz yz ff ff ff
0 10 0
0 10 0
-0 10 0
ITEM: ATOMS id type x y z ix iy iz vx vy vz fx fy fz omegax omegay omegaz radius tqx tqy tqz c_5[4] 
1 1 7.8042 5.75555 0 0 0 0 0.453185 0.211256 0 0 0 0 0 0 0 0.5 0 0 0 -50.1283 
2 1 2.1958 4.24445 0 0 0 0 -0.453185 -0.211256 0 0 0 0 0 0 0 0.5 0 0 0 -50.1283 
