ITEM: TIMESTEP
60400
ITEM: NUMBER OF ATOMS
2
ITEM: BOX BOUNDS xy xz yz ff ff ff
0 10 0
0 10 0
-0 10 0
ITEM: ATOMS id type x y z ix iy iz vx vy vz fx fy fz omegax omegay omegaz radius tqx tqy tqz c_5[4] 
1 1 6.57153 5.18093 0 0 0 0 0.453185 0.211256 0 0 0 0 0 0 0 0.5 0 0 0 -50.1283 
2 1 3.42847 4.81907 0 0 0 0 -0.453185 -0.211256 0 0 0 0 0 0 0 0.5 0 0 0 -50.1283 
