ITEM: TIMESTEP
13200
ITEM: NUMBER OF ATOMS
2
ITEM: BOX BOUNDS xy xz yz ff ff ff
0 142 132
0 10 0
-0 10 0
ITEM: ATOMS id type x y z ix iy iz vx vy vz fx fy fz omegax omegay omegaz radius tqx tqy tqz c_5[4] 
1 1 3.33832 4.75 0 0 0 0 0.312566 0 0 44.5997 0 0 0 0 -0.394728 0.5 0 0 -15.5961 1.31398 
2 1 6.81881 5.25 0 0 0 0 -0.0745826 0 0 49.6914 0 0 0 0 -0.394728 0.5 0 0 -15.5961 1.31398 
