# vtk DataFile Version 4.2
Generated by LIGGGHTS
ASCII
DATASET POLYDATA
POINTS 2 float
3.06384 4.75 0 6.94428 5.25 0 
VERTICES 2 4
1 0 
1 1 

POINT_DATA 2
FIELD FieldData 8
id 1 2 int
1 2 
type 1 2 int
1 1 
i 3 2 int
0 0 0 0 0 0 
v 3 2 double
0.2256035037 0 0 -0.17147347473 0 0 
f 3 2 double
44.681894346 0 0 49.782998563 0 0 
radius 1 2 double
0.5 0.5 
omega 3 2 double
0 0 -0.089974312201 0 0 -0.089974312201 
tq 3 2 double
0 0 -15.691957647 0 0 -15.691957647 
