LAMMPS (20 Nov 2019)
 atom_style sphere
boundary p p p

newton off
comm_modify mode single vel yes

read_data particle.data
  triclinic box = (-0 -0 -0) to (10 10 10) with tilt (0 0 0)
  2 by 2 by 5 MPI processor grid
  reading atoms ...
  1000 atoms
  read_data CPU = 0.00625245 secs

neighbor 0.2 bin
neigh_modify delay 0
#pair_style hybrid/overlay gran/hooke 10000 0 200 0 0 0 lubricate/poly 0.1 1 1 1.001 1.05
pair_style gran/hooke 10000 0 200 0 0 0

pair_coeff * *

#pair_coeff * *  gran/hooke
#pair_coeff * * lubricate/poly
timestep 0.0001
velocity all zero linear
velocity all zero angular
fix 1 all nve/sphere
compute 1 all erotate/sphere
compute 2 all stress/atom NULL
compute 3 all temp/profile 1 0 0 y 20
compute pairc all pressure 3 pair
compute mvv all pressure 3 ke
compute tot all pressure 3


thermo_style custom step c_tot[4] c_pairc[4] c_mvv[4] vol ke
thermo_modify lost ignore norm no
compute_modify thermo_temp dynamic yes

fix 2 all deform 1 xy erate 100 remap v
thermo 100


dump dmp all custom 500 post/myforce*.liggghts id type x y z ix iy iz vx vy vz fx fy fz omegax omegay omegaz radius c_2[1] c_2[2] c_2[3] c_2[4] c_2[5] c_2[6]
#dump 4_0 all custom 250 stress*.liggghts id type x y c_4_0[1] c_4_0[2] c_4_0[3] c_4_0[4]

run 50000
Neighbor list info ...
  update every 1 steps, delay 0 steps, check yes
  max neighbors/atom: 2000, page size: 100000
  master list distance cutoff = 1.2
  ghost atom cutoff = 1.2
  binsize = 0.6, bins = 17 17 17
  1 neighbor lists, perpetual/occasional/extra = 1 0 0
  (1) pair gran/hooke, perpetual
      attributes: half, newton off, size
      pair build: half/size/bin/newtoff
      stencil: half/bin/3d/newtoff
      bin: standard
Per MPI rank memory allocation (min/avg/max) = 5.968 | 5.969 | 5.972 Mbytes
Step c_tot[4] c_pairc[4] c_mvv[4] Volume KinEng 
       0   -13.036554   -13.036554            0         1000            0 
     100    -284.6042    -278.2324    -6.371803         1000    697946.95 
     200   -275.52012   -240.11455   -35.405569         1000    1348213.4 
     300   -287.61252   -239.83487   -47.777649         1000      2311980 
     400   -324.22599   -298.81595   -25.410041         1000    2933764.1 
     500   -251.32708    -211.0307   -40.296381         1000    3056039.3 
     600   -296.98524   -236.86419   -60.121047         1000    3542398.9 
     700   -285.39042   -229.60254   -55.787877         1000      3899512 
     800   -273.11056   -215.15987   -57.950694         1000    4026868.6 
     900   -311.01909   -244.60565   -66.413437         1000    4203189.7 
    1000   -291.02293   -230.96687   -60.056059         1000      4518890 
    1100   -311.45903   -227.15073   -84.308308         1000    4419560.6 
    1200   -343.42347   -259.92014   -83.503336         1000    4719285.1 
    1300   -322.24489   -235.45762   -86.787267         1000    4963393.7 
    1400     -352.139    -267.1377   -85.001296         1000    5066109.1 
    1500   -423.11301   -296.73907   -126.37395         1000    5531319.8 
    1600   -364.89518   -275.61701   -89.278166         1000    5689980.8 
    1700   -374.76807   -265.99208   -108.77599         1000    6040363.6 
    1800   -436.33684   -329.48665   -106.85019         1000      6180706 
    1900   -440.53895   -318.20492   -122.33403         1000    6484918.2 
    2000   -439.06383   -323.36845   -115.69538         1000    6757735.6 
    2100   -442.72552   -343.97269   -98.752825         1000    7183424.5 
    2200    -414.1619   -300.35037   -113.81152         1000    7354674.6 
    2300   -455.51864   -338.54518   -116.97346         1000    7524984.1 
    2400   -433.24465   -335.21213    -98.03252         1000    7709695.2 
    2500   -463.19828    -345.7529   -117.44538         1000    7806010.2 
    2600    -445.0853   -339.84501   -105.24029         1000    7896909.9 
    2700   -467.77237   -351.76786   -116.00451         1000    8474428.5 
    2800   -489.74775   -372.26266   -117.48509         1000    8831761.9 
    2900   -453.90586   -339.22666    -114.6792         1000    8980562.3 
    3000   -490.50614   -351.47227   -139.03387         1000    9015782.9 
    3100   -490.12616   -384.55127   -105.57489         1000    9120086.7 
    3200   -478.69215   -358.27549   -120.41665         1000      9276405 
    3300   -460.64488    -368.8612   -91.783674         1000    9726885.1 
    3400   -466.72318   -357.03999   -109.68319         1000    9824114.8 
    3500   -503.68998   -394.97767   -108.71231         1000    9835539.7 
    3600   -483.28774   -339.22046   -144.06728         1000     10103355 
    3700   -494.09886    -358.7097   -135.38916         1000     10290028 
    3800    -482.9289   -370.13278   -112.79612         1000     10680685 
    3900   -539.99686   -394.12297   -145.87388         1000     10711967 
    4000   -538.15238   -404.72138   -133.43099         1000     10991399 
    4100   -537.32031   -402.11667   -135.20364         1000     11444687 
    4200   -524.07847   -419.62079   -104.45768         1000     11482996 
    4300   -510.06659   -402.95534   -107.11125         1000     11673127 
    4400   -529.37363   -418.54089   -110.83274         1000     11581134 
    4500   -486.27674   -382.87903   -103.39771         1000     11696647 
    4600   -512.21697   -384.71809   -127.49888         1000     11839525 
    4700   -535.70233   -441.04904   -94.653292         1000     11969309 
    4800   -498.81475   -387.65306   -111.16169         1000     12311252 
    4900   -506.88804   -393.95063   -112.93741         1000     12554863 
    5000   -518.38413   -408.67488   -109.70925         1000     12630575 
    5100   -550.45824   -458.74925   -91.708993         1000     12770000 
    5200   -522.63449   -407.64823   -114.98626         1000     13124586 
    5300   -500.15677     -395.528   -104.62877         1000     13222541 
    5400   -488.50241   -386.85273   -101.64968         1000     13530760 
    5500   -516.88829    -399.7458    -117.1425         1000     13418547 
    5600   -504.14288   -408.52205   -95.620829         1000     13505429 
    5700   -496.46973   -380.53979   -115.92994         1000     13806843 
    5800   -508.80852   -398.61576   -110.19276         1000     13839283 
    5900   -514.68345   -399.95428   -114.72917         1000     14049451 
    6000   -544.09266   -424.11507   -119.97759         1000     14134839 
    6100   -533.36833   -427.42372   -105.94461         1000     14252272 
    6200   -578.92181   -441.09135   -137.83046         1000     14733866 
    6300   -557.39664   -456.33372   -101.06291         1000     14524099 
    6400   -522.10118   -387.54495   -134.55623         1000     14660412 
    6500   -570.25384   -449.66045   -120.59339         1000     14864796 
    6600   -529.41266   -410.00003   -119.41264         1000     14924635 
    6700    -564.7338   -450.21812   -114.51569         1000     15105160 
    6800   -574.46859    -465.7638   -108.70479         1000     15144692 
    6900   -511.04404   -406.95218   -104.09186         1000     15362777 
    7000   -496.96887   -378.25126   -118.71761         1000     15383586 
    7100   -534.42973   -424.86323    -109.5665         1000     15641128 
    7200   -496.71559   -391.24165   -105.47394         1000     15613635 
    7300   -528.82086   -425.01307   -103.80779         1000     15816534 
    7400   -589.99114   -454.37918   -135.61196         1000     15972132 
    7500   -578.31048   -464.90061   -113.40987         1000     16096860 
    7600    -552.8698   -445.99259   -106.87721         1000     16040595 
    7700   -536.12006    -421.6204   -114.49966         1000     16235928 
    7800    -552.0391   -419.24551   -132.79359         1000     16417837 
    7900    -577.0966   -458.15574   -118.94085         1000     16495657 
    8000    -534.3782   -410.69423   -123.68398         1000     16769460 
    8100   -517.73202   -395.34823    -122.3838         1000     16866210 
    8200   -500.01678   -407.47422   -92.542558         1000     16881698 
    8300   -518.03279   -412.47303   -105.55976         1000     17041780 
    8400   -539.81599   -431.22532   -108.59067         1000     17300281 
    8500   -536.30767   -425.01109   -111.29658         1000     17177529 
    8600   -538.87187   -426.35216   -112.51971         1000     17120086 
    8700   -531.83338    -425.5515   -106.28188         1000     17187235 
    8800     -542.205   -426.03747   -116.16753         1000     17323402 
    8900     -565.482   -444.96707   -120.51493         1000     17479149 
    9000   -541.05002   -412.26241   -128.78761         1000     17665698 
    9100   -569.54062   -446.59436   -122.94626         1000     17841527 
    9200   -548.60665   -434.83535    -113.7713         1000     17880694 
    9300   -566.37666    -444.7194   -121.65727         1000     17805330 
    9400   -568.10862   -446.23683   -121.87179         1000     17906935 
    9500   -567.12169    -443.4599   -123.66179         1000     17986417 
    9600   -533.40157   -416.78512   -116.61645         1000     18115202 
    9700    -567.7635   -460.70292   -107.06059         1000     18139734 
    9800   -550.76454   -431.18818   -119.57636         1000     18201523 
    9900   -561.38978   -432.30369   -129.08609         1000     18420757 
   10000   -543.62698   -434.31458    -109.3124         1000     18520063 
   10100   -540.56644   -428.25262   -112.31382         1000     18420889 
   10200   -544.55981   -438.66872   -105.89109         1000     18274383 
   10300   -510.14399   -388.73056   -121.41343         1000     18283299 
   10400   -525.80265   -401.39576   -124.40689         1000     18390450 
   10500   -554.74645   -437.25591   -117.49054         1000     18443308 
   10600   -550.96567   -427.72153   -123.24414         1000     18581058 
   10700   -576.73981   -473.07442   -103.66539         1000     18655494 
   10800   -551.79548    -449.2479   -102.54758         1000     18814903 
   10900   -565.52926   -454.86179   -110.66748         1000     18719104 
   11000    -568.8384   -434.66146   -134.17694         1000     18792970 
   11100      -530.84   -405.50585   -125.33416         1000     18952562 
   11200   -541.26195   -418.38077   -122.88118         1000     19041214 
   11300   -559.06022   -424.06979   -134.99043         1000     19092576 
   11400   -545.73149   -434.94134   -110.79015         1000     19338592 
   11500    -533.1008   -419.63866   -113.46214         1000     19265460 
   11600   -556.75079   -431.68062   -125.07017         1000     19249730 
   11700   -531.72965   -415.84669   -115.88296         1000     19353509 
   11800   -513.45932   -394.34425   -119.11507         1000     19340736 
   11900   -517.40217   -398.44781   -118.95436         1000     19503196 
   12000   -555.64638   -438.28785   -117.35853         1000     19688920 
   12100   -583.86887   -452.27645   -131.59242         1000     19737390 
   12200   -518.94724   -387.62062   -131.32662         1000     19864445 
   12300   -561.55397   -462.71124   -98.842732         1000     19852517 
   12400   -552.48184   -440.96372   -111.51812         1000     19759565 
   12500   -578.25941   -460.95304   -117.30637         1000     19785126 
   12600   -567.07231   -443.65584   -123.41646         1000     19797459 
   12700   -550.88763   -440.00226   -110.88538         1000     19869066 
   12800   -570.22721   -447.44299   -122.78423         1000     20012078 
   12900   -543.90386   -432.09959   -111.80427         1000     20022643 
   13000   -531.14182   -420.63132   -110.51051         1000     20037560 
   13100   -532.40947   -423.39032   -109.01916         1000     20158424 
   13200   -549.42109   -434.70281   -114.71828         1000     20105547 
   13300   -542.42179   -432.61434   -109.80745         1000     20037205 
   13400   -560.55207   -438.85055   -121.70152         1000     20035455 
   13500   -534.22432   -427.34227   -106.88205         1000     20145190 
   13600   -511.22641    -412.3234   -98.903016         1000     20200848 
   13700   -531.01094   -428.35821   -102.65273         1000     20331740 
   13800   -564.40479   -444.45842   -119.94637         1000     20483767 
   13900   -539.62056   -433.73997   -105.88059         1000     20518023 
   14000   -548.34748    -415.9938   -132.35369         1000     20479424 
   14100   -567.39626   -450.78681   -116.60945         1000     20518613 
   14200   -529.19844    -414.9534   -114.24504         1000     20596991 
   14300   -558.66552   -454.19705   -104.46847         1000     20577479 
   14400   -549.47748   -431.02962   -118.44786         1000     20696855 
   14500   -553.20194   -436.65353    -116.5484         1000     20811518 
   14600    -578.9691   -461.72982   -117.23928         1000     20825335 
   14700   -553.80047   -425.32674   -128.47373         1000     20856400 
   14800   -595.36216   -458.17448   -137.18768         1000     20762568 
   14900   -565.22793   -421.88685   -143.34108         1000     20696190 
   15000   -594.48635   -467.09323   -127.39312         1000     20650919 
   15100   -557.60521   -446.42988   -111.17533         1000     20494823 
   15200   -561.11473   -449.67652   -111.43821         1000     20709644 
   15300   -561.59723   -455.73781   -105.85943         1000     20846949 
   15400   -544.24131   -436.03258   -108.20873         1000     20928230 
   15500   -541.03459   -447.07372   -93.960865         1000     20855013 
   15600   -529.84459   -430.41946   -99.425132         1000     20919549 
   15700   -548.73663   -444.39416   -104.34247         1000     20898275 
   15800   -561.18672   -468.94022   -92.246498         1000     20896999 
   15900   -548.83539   -440.81704   -108.01835         1000     20909696 
   16000   -575.77539   -461.58639     -114.189         1000     20941924 
   16100   -522.63267   -428.19418   -94.438493         1000     20954554 
   16200   -554.27676   -440.12049   -114.15628         1000     20986356 
   16300   -561.23344   -453.10709   -108.12635         1000     21033754 
   16400   -534.86399   -423.66286   -111.20113         1000     21094610 
   16500   -538.95795   -425.82525   -113.13269         1000     21206355 
   16600   -523.91827   -418.59064   -105.32763         1000     21336305 
   16700    -514.6915   -421.17347   -93.518031         1000     21357490 
   16800   -512.26438   -410.36493   -101.89944         1000     21385150 
   16900   -517.95681   -419.90232   -98.054486         1000     21285844 
   17000   -530.04306   -428.30389   -101.73917         1000     21248230 
   17100   -505.98724   -404.53891   -101.44832         1000     21134675 
   17200   -523.73512   -433.34287   -90.392248         1000     21079403 
   17300   -522.96269    -418.2095   -104.75318         1000     21157081 
   17400   -526.88273   -426.40007   -100.48266         1000     21134141 
   17500   -525.88977   -420.92579   -104.96398         1000     21175767 
   17600   -511.70466   -402.82231   -108.88235         1000     21127202 
   17700   -571.22245   -450.66595    -120.5565         1000     21203262 
   17800   -552.27543    -453.1538   -99.121633         1000     21209165 
   17900   -540.22889   -418.85256   -121.37634         1000     21321709 
   18000   -585.86172   -461.14964   -124.71208         1000     21396569 
   18100   -494.76065   -393.24701   -101.51363         1000     21467392 
   18200   -546.48716   -428.61588   -117.87128         1000     21423391 
   18300   -576.88203   -473.95076   -102.93126         1000     21498325 
   18400   -523.76408    -420.5408   -103.22327         1000     21535514 
   18500   -517.26857    -404.3795   -112.88907         1000     21409973 
   18600   -551.84599   -436.00983   -115.83616         1000     21431951 
   18700   -528.47913   -416.10918   -112.36995         1000     21443279 
   18800   -538.64414   -445.43931   -93.204833         1000     21408055 
   18900   -506.03579   -405.50435   -100.53144         1000     21343100 
   19000   -517.33874   -417.89155   -99.447186         1000     21331426 
   19100   -527.78292   -414.39646   -113.38645         1000     21239259 
   19200   -533.24238   -424.79059   -108.45179         1000     21271047 
   19300   -560.32078   -448.61528   -111.70549         1000     21345430 
   19400   -598.05665   -467.98606   -130.07059         1000     21356133 
   19500   -594.32839   -468.02777   -126.30063         1000     21321262 
   19600   -568.48115   -457.46178   -111.01936         1000     21249515 
   19700   -554.66261   -444.04135   -110.62126         1000     21462171 
   19800    -560.1327   -437.74204   -122.39066         1000     21357244 
   19900   -562.78832   -450.14085   -112.64747         1000     21391711 
   20000   -570.79195    -450.1684   -120.62355         1000     21464712 
   20100   -535.35398   -432.60948    -102.7445         1000     21469496 
   20200   -594.69141   -465.40437   -129.28704         1000     21337458 
   20300   -546.26394   -425.58748   -120.67646         1000     21298393 
   20400   -566.95456   -460.50795   -106.44661         1000     21405904 
   20500   -571.26327   -456.06949   -115.19378         1000     21408757 
   20600   -555.29924   -451.64841   -103.65083         1000     21513917 
   20700   -553.61224   -438.25129   -115.36095         1000     21480010 
   20800   -526.48036   -410.98105   -115.49931         1000     21340822 
   20900   -552.43361   -439.56905   -112.86456         1000     21269282 
   21000   -575.72509   -448.84412   -126.88098         1000     21338987 
   21100   -560.78196     -446.726   -114.05596         1000     21364844 
   21200   -534.66622   -437.29789   -97.368334         1000     21451376 
   21300   -551.11647   -428.08874   -123.02773         1000     21573741 
   21400   -557.00549   -432.31213   -124.69336         1000     21693969 
   21500   -531.93416   -417.50571   -114.42845         1000     21674880 
   21600   -563.89745   -436.63499   -127.26245         1000     21754238 
   21700   -557.47332   -433.44404   -124.02929         1000     21806531 
   21800   -574.28287   -466.39973   -107.88314         1000     21862482 
   21900   -560.40176   -445.35043   -115.05133         1000     21879002 
   22000   -554.24299   -444.12742   -110.11557         1000     21750287 
   22100   -547.55112   -447.32195   -100.22917         1000     21718174 
   22200   -568.64344   -455.99367   -112.64978         1000     21752500 
   22300   -550.68687   -449.00832   -101.67856         1000     21689742 
   22400   -568.77507   -447.18001   -121.59506         1000     21680690 
   22500   -536.88784   -422.62815   -114.25969         1000     21758450 
   22600   -524.99053   -412.43866   -112.55187         1000     21613384 
   22700   -543.58688   -447.13913   -96.447744         1000     21535779 
   22800   -550.64642   -452.69493   -97.951497         1000     21510938 
   22900   -537.40304   -433.87169   -103.53135         1000     21429487 
   23000   -559.82842   -438.54952   -121.27889         1000     21565315 
   23100   -560.05677   -460.69611   -99.360661         1000     21595673 
   23200   -570.06371   -444.50632   -125.55739         1000     21560633 
   23300   -548.23466   -430.87962   -117.35504         1000     21682805 
   23400   -578.44105   -458.01278   -120.42827         1000     21667488 
   23500   -572.52119   -433.93875   -138.58245         1000     21760967 
   23600    -576.5519   -447.43866   -129.11324         1000     21681845 
   23700   -601.62838   -476.33039     -125.298         1000     21750157 
   23800   -544.06204   -429.77113   -114.29091         1000     21581959 
   23900   -542.48096   -410.88392   -131.59704         1000     21575381 
   24000   -578.17725    -467.2508   -110.92645         1000     21576500 
   24100   -558.67027   -459.87613   -98.794136         1000     21783712 
   24200   -568.36848    -465.5575   -102.81099         1000     21771094 
   24300   -548.94454   -431.99903    -116.9455         1000     21729313 
   24400   -567.69532   -458.26065   -109.43468         1000     21711107 
   24500   -544.87809   -435.39059    -109.4875         1000     21705234 
   24600   -530.39175   -408.08415    -122.3076         1000     21752039 
   24700   -566.67837   -444.02444   -122.65392         1000     21844039 
   24800   -557.45488   -443.64789   -113.80699         1000     21867990 
   24900   -531.09891    -439.5425    -91.55641         1000     21907849 
   25000   -536.30483   -430.54111   -105.76372         1000     21889232 
   25100   -558.52579     -443.076    -115.4498         1000     21868727 
   25200   -531.33667   -424.69614   -106.64053         1000     21867267 
   25300   -556.46443   -452.02042   -104.44401         1000     21835823 
   25400   -522.23047   -419.68068   -102.54979         1000     21796384 
   25500   -535.24506   -420.83812   -114.40694         1000     21626107 
   25600   -530.10116   -412.72024   -117.38092         1000     21534578 
   25700    -587.8894   -461.57246   -126.31694         1000     21747016 
   25800   -582.72097   -461.55656   -121.16441         1000     21683519 
   25900   -546.45071   -438.66963   -107.78107         1000     21717386 
   26000   -544.63648    -413.9239   -130.71258         1000     21865024 
   26100   -552.92289   -444.53026   -108.39264         1000     21824123 
   26200    -563.7912   -441.33572   -122.45549         1000     21786503 
   26300   -532.20271   -419.32818   -112.87454         1000     21804620 
   26400   -556.27651   -436.92037   -119.35615         1000     21877915 
   26500   -549.29963   -436.52341   -112.77622         1000     21787540 
   26600   -563.25949   -437.26238   -125.99711         1000     21813676 
   26700   -555.28053   -423.84354   -131.43698         1000     21966932 
   26800   -553.34381   -454.84749   -98.496313         1000     21898950 
   26900   -537.51322   -417.77451    -119.7387         1000     21830496 
   27000   -543.64565   -426.59005    -117.0556         1000     21711211 
   27100   -525.76167     -423.954   -101.80767         1000     21834059 
   27200   -548.93029   -432.02304   -116.90725         1000     21728696 
   27300   -534.88399   -426.69068   -108.19332         1000     21655398 
   27400   -542.79937   -438.54165   -104.25771         1000     21610686 
   27500   -548.54961   -457.29815   -91.251461         1000     21594554 
   27600   -548.15146   -441.34455   -106.80691         1000     21542281 
   27700   -527.19095   -427.67303   -99.517913         1000     21638377 
   27800   -518.10084   -404.25369   -113.84715         1000     21612607 
   27900   -544.05853   -440.31291   -103.74562         1000     21634319 
   28000   -534.79211   -433.87218   -100.91993         1000     21621004 
   28100    -548.6837   -444.10628   -104.57742         1000     21675440 
   28200   -566.86261   -445.20513   -121.65748         1000     21626606 
   28300   -546.75346   -427.90142   -118.85205         1000     21748589 
   28400   -559.81615   -455.39021   -104.42594         1000     21709392 
   28500   -529.95578   -423.96483   -105.99095         1000     21766639 
   28600   -575.21553    -462.2935   -112.92203         1000     21830673 
   28700    -569.6589   -446.46435   -123.19455         1000     21883100 
   28800   -529.78647   -420.06285   -109.72362         1000     21821315 
   28900   -545.41834   -424.75758   -120.66075         1000     21854950 
   29000   -587.32435   -471.13872   -116.18563         1000     21709705 
   29100   -540.59373   -431.99433   -108.59941         1000     21842053 
   29200   -553.96911   -441.83165   -112.13746         1000     21792398 
   29300    -562.7204   -452.95551   -109.76489         1000     21804258 
   29400   -538.62362   -409.86494   -128.75868         1000     21782311 
   29500   -585.77347   -460.87622   -124.89725         1000     21787814 
   29600   -569.80575   -458.73048   -111.07528         1000     21654251 
   29700   -501.81372   -400.25765   -101.55606         1000     21693802 
   29800   -535.53913   -439.50571   -96.033422         1000     21610516 
   29900   -552.59854    -436.2378   -116.36073         1000     21605510 
   30000   -561.68857   -439.20226   -122.48631         1000     21693246 
   30100   -582.97566     -472.641   -110.33467         1000     21767444 
   30200   -605.31878   -495.92739   -109.39139         1000     21863926 
   30300   -550.27188    -443.4365   -106.83538         1000     21824517 
   30400   -541.10953   -437.85933   -103.25019         1000     21919755 
   30500   -569.62157   -462.88988   -106.73169         1000     21759703 
   30600   -526.46639   -423.08716   -103.37923         1000     21673201 
   30700   -546.22408   -427.08431   -119.13977         1000     21677188 
   30800    -554.6563   -439.43416   -115.22214         1000     21684175 
   30900   -577.71147   -459.49054   -118.22092         1000     21729777 
   31000   -584.47927   -459.52141   -124.95786         1000     21664978 
   31100   -555.93511   -431.09302    -124.8421         1000     21755386 
   31200   -540.16419    -427.8633   -112.30089         1000     21734342 
   31300   -560.88316   -449.58726    -111.2959         1000     21665300 
   31400   -538.30322   -424.14134   -114.16188         1000     21729279 
   31500   -541.25766   -421.37169   -119.88597         1000     21771353 
   31600   -544.06692    -418.4001   -125.66682         1000     21773481 
   31700   -583.79003   -461.22565   -122.56438         1000     21887397 
   31800    -590.1035   -471.18491   -118.91859         1000     21924899 
   31900   -560.29735    -447.1395   -113.15785         1000     21878118 
   32000   -544.91235   -438.38374   -106.52861         1000     21953932 
   32100   -528.97904   -419.11517   -109.86387         1000     21900684 
   32200   -558.06955   -442.57387   -115.49568         1000     21872035 
   32300   -534.72952   -438.75915   -95.970375         1000     21950326 
   32400   -534.03851   -429.05524   -104.98327         1000     21991100 
   32500   -547.21609    -426.9622   -120.25389         1000     22023468 
   32600   -572.77895    -480.1521   -92.626848         1000     22021516 
   32700   -547.59599   -448.20287   -99.393121         1000     21960776 
   32800    -543.4241   -432.14805   -111.27605         1000     21959045 
   32900   -521.14021   -415.29467   -105.84554         1000     22026942 
   33000   -535.00746   -426.78025   -108.22721         1000     22113454 
   33100   -564.67559   -453.44436   -111.23123         1000     22033412 
   33200   -537.93941   -428.77773   -109.16167         1000     21879792 
   33300   -566.97217   -458.21168   -108.76048         1000     21863180 
   33400   -553.37988   -449.55912   -103.82075         1000     21791006 
   33500   -577.21643   -461.38346   -115.83297         1000     22050335 
   33600   -534.49617   -436.31494   -98.181235         1000     21838346 
   33700    -532.0776   -436.18087   -95.896728         1000     21770318 
   33800   -520.85458    -403.2724   -117.58217         1000     21691543 
   33900   -557.78176   -438.89219   -118.88957         1000     21592839 
   34000   -567.08615   -451.69138   -115.39477         1000     21561480 
   34100   -557.01547   -453.07193   -103.94355         1000     21694689 
   34200   -543.66155   -436.54232   -107.11922         1000     21789030 
   34300   -552.60931   -440.86131   -111.74799         1000     21867097 
   34400   -589.22278   -469.35545   -119.86733         1000     21837775 
   34500   -559.47768   -449.23582   -110.24186         1000     22001190 
   34600   -556.94565   -439.68339   -117.26226         1000     21736245 
   34700    -574.6343   -458.88968   -115.74461         1000     21667829 
   34800   -547.59229   -437.30715   -110.28514         1000     21688013 
   34900   -561.35053   -455.08562   -106.26491         1000     21771795 
   35000   -521.06278   -436.95474    -84.10804         1000     21602689 
   35100   -547.36857   -432.19105   -115.17752         1000     21627856 
   35200   -550.51603   -443.72358   -106.79245         1000     21769594 
   35300   -552.73027    -433.6671   -119.06316         1000     21785135 
   35400   -537.70263   -438.70724   -98.995397         1000     21791289 
   35500   -529.80025    -427.8488   -101.95145         1000     21732446 
   35600   -497.58639   -399.57163   -98.014765         1000     21658118 
   35700   -523.08752    -422.3119   -100.77562         1000     21742495 
   35800   -545.48404   -441.15352   -104.33052         1000     21854560 
   35900   -531.38404   -432.72729   -98.656751         1000     21847505 
   36000   -536.03834   -443.45033   -92.588016         1000     21764604 
   36100   -532.04101   -428.28128   -103.75973         1000     21808106 
   36200    -528.6714    -424.9524   -103.71901         1000     21783845 
   36300   -556.60254    -437.9153   -118.68724         1000     21763484 
   36400   -575.33197   -472.06198   -103.26999         1000     21794835 
   36500   -552.75208   -430.64288   -122.10921         1000     21886530 
   36600   -578.73937   -472.43924   -106.30013         1000     22005970 
   36700   -556.87366   -441.12658   -115.74708         1000     21909372 
   36800   -554.70821    -429.1017   -125.60651         1000     21914160 
   36900   -577.89304   -452.12683    -125.7662         1000     21877560 
   37000   -539.75902     -437.831   -101.92802         1000     21777529 
   37100   -526.90194   -424.46346   -102.43848         1000     21718643 
   37200   -525.14888   -424.95978   -100.18909         1000     21768731 
   37300   -515.94436   -426.62003   -89.324333         1000     21711886 
   37400   -526.34387   -424.11659   -102.22728         1000     21797424 
   37500   -542.69787   -434.71783   -107.98004         1000     21885694 
   37600   -559.70018   -450.41144   -109.28875         1000     21864654 
   37700   -564.91718   -452.50246   -112.41472         1000     21861359 
   37800   -558.45619   -445.90303   -112.55316         1000     21845510 
   37900   -577.26896   -465.58522   -111.68374         1000     21815713 
   38000   -594.76633    -459.1923   -135.57403         1000     21822474 
   38100   -536.43936   -418.61379   -117.82557         1000     21899820 
   38200   -592.24603    -466.1978   -126.04822         1000     21788230 
   38300   -573.16044   -464.29054    -108.8699         1000     21822164 
   38400   -555.09128   -429.30181   -125.78947         1000     21911998 
   38500   -588.23353   -468.15065   -120.08288         1000     22174671 
   38600   -568.76464   -441.76701   -126.99763         1000     21973284 
   38700   -559.63582   -443.36061   -116.27521         1000     22111180 
   38800   -548.03905   -434.11541   -113.92364         1000     22031168 
   38900    -558.6088   -428.95852   -129.65027         1000     22000151 
   39000   -555.04741   -427.73106   -127.31635         1000     21980442 
   39100   -522.75906    -420.6576   -102.10146         1000     21913285 
   39200    -516.6669   -409.89313   -106.77377         1000     21970499 
   39300   -554.85764    -456.2399   -98.617737         1000     21906143 
   39400   -544.30569   -439.79343   -104.51226         1000     21902608 
   39500   -548.24082   -435.75325   -112.48757         1000     21750632 
   39600   -572.22696   -460.46005   -111.76692         1000     21712787 
   39700   -557.72787   -451.57969   -106.14819         1000     21676077 
   39800   -521.42057   -425.99117     -95.4294         1000     21724079 
   39900   -518.62628   -416.90455   -101.72173         1000     21984377 
   40000   -526.35006   -418.73819   -107.61187         1000     21942923 
   40100   -543.85332    -430.7676   -113.08572         1000     21975124 
   40200   -538.09047   -428.43612   -109.65435         1000     22144650 
   40300   -530.89079   -426.08343   -104.80736         1000     22096320 
   40400    -562.0257   -441.10401   -120.92169         1000     22055886 
   40500   -571.04061   -452.74542   -118.29519         1000     22116823 
   40600   -540.64676   -422.28238   -118.36438         1000     22119535 
   40700   -527.38242   -420.51599   -106.86643         1000     22030187 
   40800   -560.29849   -443.51785   -116.78064         1000     22065311 
   40900   -564.72916   -458.62757   -106.10159         1000     22088594 
   41000   -545.50548   -437.95783   -107.54765         1000     22089837 
   41100   -540.50121   -433.74666   -106.75455         1000     22029410 
   41200   -560.42621   -438.34158   -122.08463         1000     22000502 
   41300   -534.89317   -413.24668   -121.64649         1000     21892685 
   41400   -600.72359   -489.92147   -110.80213         1000     21799991 
   41500   -540.81559   -431.27261   -109.54299         1000     21824579 
   41600   -487.00018   -386.55913   -100.44105         1000     21871053 
   41700   -569.71336   -443.14511   -126.56824         1000     21888817 
   41800   -563.23581   -439.81101    -123.4248         1000     22165606 
   41900   -539.35062    -440.5919   -98.758717         1000     21826753 
   42000   -557.72221   -436.99601    -120.7262         1000     21872827 
   42100   -552.05874    -424.8371   -127.22164         1000     21772937 
   42200   -529.93826   -446.82421   -83.114056         1000     21779850 
   42300   -558.72058   -459.93941   -98.781162         1000     21815774 
   42400    -526.0336   -416.72657   -109.30703         1000     21890092 
   42500   -589.72281   -467.58771    -122.1351         1000     21959389 
   42600   -564.77656   -450.09011   -114.68646         1000     21922274 
   42700   -541.79926   -440.04848   -101.75079         1000     21898180 
   42800   -495.05602   -395.50614   -99.549885         1000     22057693 
   42900   -531.06714   -418.63451   -112.43262         1000     22089542 
   43000    -558.2023   -447.16165   -111.04065         1000     22036504 
   43100   -526.27103   -417.32247   -108.94856         1000     22057343 
   43200   -536.28446    -415.1471   -121.13737         1000     22103931 
   43300   -526.54491   -419.57575   -106.96916         1000     22065763 
   43400   -539.89573   -434.30592   -105.58981         1000     22131277 
   43500   -559.68349   -441.21652   -118.46697         1000     22107351 
   43600   -550.30207   -438.83085   -111.47122         1000     21932048 
   43700   -570.95111    -442.9874   -127.96371         1000     21930979 
   43800   -566.75338   -448.14961   -118.60377         1000     22118490 
   43900   -547.99673   -444.49181   -103.50492         1000     22104577 
   44000   -525.37893   -420.42702   -104.95191         1000     22161662 
   44100   -542.44726   -441.23169   -101.21557         1000     22129565 
   44200   -553.79195   -450.79653   -102.99542         1000     22142122 
   44300   -533.05984   -414.05395   -119.00589         1000     22040158 
   44400   -544.99654    -433.6713   -111.32524         1000     21928319 
   44500   -572.56114   -461.97215   -110.58898         1000     21901829 
   44600   -540.70231   -434.15545   -106.54685         1000     21821392 
   44700   -550.62415   -439.13647   -111.48768         1000     21726656 
   44800   -571.64983   -445.43089   -126.21894         1000     21797580 
   44900   -564.45267   -452.23982   -112.21285         1000     21771250 
   45000   -527.09342   -415.76229   -111.33113         1000     21792811 
   45100   -553.29893   -438.09733    -115.2016         1000     21845031 
   45200   -544.11826   -439.78931   -104.32895         1000     22003083 
   45300   -541.34538   -436.32874   -105.01664         1000     22353360 
   45400   -506.92795    -416.8393   -90.088649         1000     21838880 
   45500   -538.21635   -434.64046   -103.57589         1000     21971031 
   45600   -598.67167   -482.80946   -115.86222         1000     21901214 
   45700   -562.63449   -455.06283   -107.57166         1000     21904346 
   45800   -566.79333   -449.01856   -117.77478         1000     21904566 
   45900   -548.19445   -425.90051   -122.29393         1000     21820951 
   46000    -554.6593   -437.26834   -117.39097         1000     21770167 
   46100   -543.93544   -430.20206   -113.73338         1000     21810009 
   46200    -557.2716   -442.82419    -114.4474         1000     21726009 
   46300   -553.30575   -427.92826   -125.37749         1000     21748200 
   46400   -537.25096   -427.09709   -110.15387         1000     21814910 
   46500   -565.46548   -460.03031   -105.43517         1000     21813615 
   46600   -532.59444   -418.14162   -114.45282         1000     21987772 
   46700   -578.06709   -448.14904   -129.91805         1000     22108690 
   46800   -541.70042     -417.539   -124.16143         1000     22162134 
   46900   -553.68712   -425.57456   -128.11256         1000     22167748 
   47000   -564.69585   -440.80063   -123.89522         1000     22142492 
   47100    -570.8526   -442.48513   -128.36747         1000     22130871 
   47200   -561.34412    -447.9338   -113.41032         1000     22148150 
   47300   -561.06812   -435.83677   -125.23135         1000     22139635 
   47400   -558.12373   -439.86003    -118.2637         1000     22043831 
   47500    -564.0956   -439.07398   -125.02162         1000     22090402 
   47600   -569.79293   -445.16102   -124.63191         1000     21971000 
   47700   -571.47799   -443.79691   -127.68109         1000     21974480 
   47800   -576.10098    -460.9898   -115.11117         1000     21961931 
   47900    -566.1324   -463.40885   -102.72355         1000     22046828 
   48000   -558.36865   -433.05998   -125.30867         1000     22105294 
   48100   -589.12947   -451.04983   -138.07964         1000     22083635 
   48200   -568.11507   -438.19211   -129.92297         1000     22078488 
   48300    -563.1709   -445.78826   -117.38264         1000     22066158 
   48400   -563.95793   -431.83642   -132.12151         1000     22086844 
   48500     -586.786   -454.90383   -131.88217         1000     22054643 
   48600   -557.28101   -460.50541   -96.775595         1000     21982658 
   48700   -542.26878   -439.86387   -102.40492         1000     21858039 
   48800   -551.34516   -432.39123   -118.95393         1000     21921018 
   48900    -539.0285   -423.57396   -115.45454         1000     21987613 
   49000   -563.97973    -445.6912   -118.28854         1000     22193025 
   49100   -505.70416   -395.43918   -110.26498         1000     22128448 
   49200   -531.78678    -405.2576   -126.52918         1000     22520306 
   49300    -576.3953   -465.28171   -111.11359         1000     22147566 
   49400   -545.21188   -430.00212   -115.20976         1000     22113017 
   49500   -547.51091   -431.16351    -116.3474         1000     22265732 
   49600   -573.13994   -453.43088   -119.70906         1000     22301700 
   49700   -548.76095   -426.93428   -121.82667         1000     22244871 
   49800   -568.44353   -450.35864   -118.08488         1000     22237207 
   49900   -548.77899   -435.99948   -112.77951         1000     22250488 
   50000   -543.65101   -433.89732   -109.75368         1000     22327980 
Loop time of 8.73808 on 20 procs for 50000 steps with 1000 atoms

Performance: 49438.751 tau/day, 5722.078 timesteps/s
94.6% CPU use with 20 MPI tasks x no OpenMP threads

MPI task timing breakdown:
Section |  min time  |  avg time  |  max time  |%varavg| %total
---------------------------------------------------------------
Pair    | 0.41711    | 0.50453    | 0.53884    |   4.0 |  5.77
Neigh   | 2.4306     | 2.8708     | 2.9784     |   8.9 | 32.85
Comm    | 3.2912     | 3.4144     | 3.5584     |   3.1 | 39.07
Output  | 0.17251    | 0.17545    | 0.18061    |   0.5 |  2.01
Modify  | 0.11957    | 0.13636    | 0.15071    |   1.9 |  1.56
Other   |            | 1.637      |            |       | 18.73

Nlocal:    50 ave 58 max 40 min
Histogram: 1 0 1 2 3 4 4 2 2 1
Nghost:    194.3 ave 204 max 185 min
Histogram: 1 4 1 2 3 2 2 2 0 3
Neighs:    246.2 ave 309 max 205 min
Histogram: 2 2 2 5 3 3 2 0 0 1

Total # of neighbors = 4924
Ave neighs/atom = 4.924
Neighbor list builds = 49999
Dangerous builds = 49498
















Total wall time: 0:00:08
