LAMMPS Description
 
         1000  atoms

           2  atom types

  -0.  10      xlo xhi
  -0.  10      ylo yhi
  -0.  10      zlo zhi
  0 0 0          xy xz yz
 
 

Atoms 

120	1	1	1	3.19446	1.47198	0.0493173
525	2	1	1	2.12921	1.27914	1.73871
371	1	1	1	4.96066	3.71594	1.51489
18	1	1	1	1.99178	2.66971	0.48621
94	1	1	1	2.48369	3.54043	1.94785
25	1	1	1	1.40311	0.705954	1.1807
36	1	1	1	2.06372	0.0165512	1.62195
8	1	1	1	3.43788	2.08296	1.71067
629	2	1	1	4.07501	2.61388	1.15182
5	1	1	1	2.3721	3.8708	0.972081
650	2	1	1	0.513322	3.50485	1.1661
14	1	1	1	3.30637	3.15741	1.48965
264	1	1	1	3.99597	3.88909	1.30975
223	1	1	1	0.769138	2.53592	1.16185
364	1	1	1	4.42437	4.20861	0.45461
107	1	1	1	1.67727	1.6033	0.834871
529	2	1	1	2.66317	2.18259	1.04493
515	2	1	1	4.38529	0.460861	1.66302
244	1	1	1	4.12347	0.548728	0.689442
20	1	1	1	2.8961	0.590556	1.81844
280	1	1	1	4.09058	1.56886	1.13062
620	2	1	1	1.42262	4.4021	0.863099
1000	2	1	1	3.61584	2.34745	0.298776
103	1	1	1	3.30672	3.66328	0.61846
536	2	1	1	0.506242	1.4231	0.0338661
506	2	1	1	0.756058	1.51752	1.26725
626	2	1	1	1.3424	3.43311	0.603282
553	2	1	1	0.710545	0.13029	1.69065
135	1	1	1	1.54086	3.28128	1.698
624	2	1	1	4.32174	4.93777	1.37076
256	1	1	1	4.59462	1.3412	0.297403
260	1	1	1	3.3219	0.0849355	1.06729
616	2	1	1	3.18874	4.51306	1.42814
106	1	1	1	1.71863	2.30972	1.54152
157	1	1	1	1.39788	4.25894	1.85332
516	2	1	1	2.33309	0.851827	0.74353
183	1	1	1	0.469252	4.7154	1.01807
625	2	1	1	0.431384	3.90446	0.222241
91	1	1	1	2.22691	4.78363	1.65527
257	1	1	1	4.93635	2.72645	1.65778
4	1	1	1	3.71994	1.1532	1.96124
522	2	1	1	2.59071	2.54647	1.97358
117	1	1	1	3.12674	1.3034	1.15593
511	2	1	1	1.09486	2.19583	0.278293
911	2	1	1	0.479561	0.568605	0.800894
668	2	1	1	0.0175066	3.94171	1.91892
90	1	1	1	2.96298	4.55784	0.332311
734	2	1	1	4.14442	3.19951	0.298593
672	2	1	1	0.0874036	2.09018	1.7453
759	2	1	1	4.94292	2.04865	0.921923
609	2	1	1	2.00977	4.72549	0.0771512
622	2	1	1	0.975005	4.7615	0.0442537
21	1	1	1	1.82637	0.434575	2.51629
682	2	1	1	2.73006	4.12679	2.71956
647	2	1	1	4.09789	2.21781	4.00687
144	1	1	1	1.66839	3.67126	2.80638
678	2	1	1	3.17561	4.00367	4.00804
502	2	1	1	4.37302	1.38363	3.26847
27	1	1	1	2.58688	0.3541	3.24196
965	2	1	1	1.30968	3.71862	3.81762
61	1	1	1	1.64629	0.51258	3.57788
680	2	1	1	1.19034	2.83721	3.36023
251	1	1	1	4.67509	3.12859	3.81796
517	2	1	1	4.01968	2.95013	2.16916
6	1	1	1	3.39877	1.81711	2.69889
519	2	1	1	4.42401	3.68705	2.95057
509	2	1	1	1.8783	1.55534	3.69869
142	1	1	1	1.0336	2.01686	2.20889
941	2	1	1	0.200224	2.37036	2.82468
919	2	1	1	0.622303	4.39148	3.54348
1	1	1	1	3.66414	-0.00311163	2.17972
458	1	1	1	1.55269	4.84547	3.81505
41	1	1	1	1.12262	1.02846	2.08478
814	2	1	1	0.249878	1.2845	3.46398
130	1	1	1	1.7161	2.71116	2.51869
12	1	1	1	2.66967	1.1367	2.62496
512	2	1	1	3.14123	2.04125	3.7556
151	1	1	1	2.47582	3.35923	3.30855
667	2	1	1	0.270129	1.42068	2.47169
38	1	1	1	3.75245	0.758973	3.88951
936	2	1	1	0.327837	3.43265	3.52197
531	2	1	1	4.79464	0.878714	2.4867
527	2	1	1	3.98585	4.36198	3.54424
383	1	1	1	4.35819	4.3873	2.2049
992	2	1	1	0.658507	0.486212	3.92117
521	2	1	1	4.88952	4.58133	3.15622
136	1	1	1	1.87085	1.73593	2.67803
540	2	1	1	4.48806	0.243752	3.42027
510	2	1	1	3.82827	2.61914	3.11397
19	1	1	1	4.34423	1.87378	2.37762
543	2	1	1	1.04382	1.84589	3.22969
773	2	1	1	4.76645	2.303	3.26098
555	2	1	1	2.19865	2.5641	3.8486
429	1	1	1	0.316145	2.47392	3.81266
316	1	1	1	0.867654	0.588899	2.94606
503	2	1	1	3.59563	0.825938	2.90099
896	2	1	1	0.684328	3.74762	2.63848
690	2	1	1	1.94072	4.71697	2.88897
641	2	1	1	3.45469	3.55152	3.15701
528	2	1	1	3.32834	4.84421	2.36242
225	1	1	1	2.65985	2.43755	2.96524
119	1	1	1	0.634501	2.92382	2.07376
675	2	1	1	2.79786	4.78655	3.49368
907	2	1	1	0.971954	4.70538	2.64052
95	1	1	1	3.53	3.8268	2.1983
200	1	1	1	2.42068	0.232444	4.22057
114	1	1	1	4.66533	1.05417	4.17207
820	2	1	1	1.29144	2.32551	4.21388
47	1	1	1	4.58218	1.62694	5.41173
824	2	1	1	1.60853	3.78784	5.73348
172	1	1	1	3.40302	0.316275	4.71677
718	2	1	1	0.195044	2.01484	5.52217
505	2	1	1	0.46457	3.40514	5.81397
524	2	1	1	3.92176	2.72911	5.62151
839	2	1	1	0.542752	1.67509	4.37
937	2	1	1	2.40898	3.43394	4.30412
811	2	1	1	2.56312	3.94241	5.47647
827	2	1	1	1.50129	3.21607	4.66276
149	1	1	1	4.01841	3.95845	4.54435
925	2	1	1	0.585736	3.59864	4.53838
168	1	1	1	3.27284	4.61394	5.25384
928	2	1	1	1.56012	4.40058	4.94325
148	1	1	1	3.90565	3.73569	5.64382
914	2	1	1	4.66455	4.42661	5.14711
23	1	1	1	2.83857	1.14013	4.06998
594	2	1	1	2.01397	1.94964	4.81071
539	2	1	1	3.71908	1.01853	5.43278
730	2	1	1	0.448201	1.10145	5.18417
689	2	1	1	3.50594	0.0749705	5.69601
450	1	1	1	0.548044	4.81384	4.50272
549	2	1	1	4.4788	0.5282	5.00358
591	2	1	1	1.3824	1.13916	4.46264
243	1	1	1	1.20454	1.80249	5.40493
646	2	1	1	3.70001	3.15054	4.03976
374	1	1	1	0.56418	2.63488	4.82919
418	1	1	1	0.655693	4.27893	5.35584
190	1	1	1	2.18382	2.37868	5.96778
507	2	1	1	3.64717	1.50957	4.55981
155	1	1	1	4.82851	3.44114	4.8243
573	2	1	1	2.44351	2.8468	5.115
766	2	1	1	4.99216	3.00053	5.70786
513	2	1	1	3.42662	2.47159	4.72124
180	1	1	1	2.35376	4.46818	4.33852
154	1	1	1	3.2579	3.44224	4.93961
740	2	1	1	1.30274	2.78848	5.54458
657	2	1	1	4.04878	4.71385	5.88216
187	1	1	1	2.42005	1.04831	4.98002
127	1	1	1	3.19058	1.8697	5.48476
708	2	1	1	1.33883	0.744394	5.46691
204	1	1	1	1.50982	0.160824	4.62706
694	2	1	1	2.19726	0.262065	5.65818
28	1	1	1	4.57748	2.47218	4.87581
671	2	1	1	3.65772	4.87713	4.34771
741	2	1	1	0.595498	0.110952	5.18196
396	1	1	1	4.921	4.19013	4.16747
727	2	1	1	1.99534	1.4003	5.86659
546	2	1	1	2.86016	3.1262	5.98455
722	2	1	1	3.53098	1.20115	7.66642
649	2	1	1	0.253025	3.32206	6.96372
73	1	1	1	1.76664	4.96835	7.07354
199	1	1	1	4.46	0.110232	6.94632
206	1	1	1	1.4538	2.77861	6.53392
198	1	1	1	1.10068	3.71195	6.59942
217	1	1	1	2.50596	3.01162	6.94884
116	1	1	1	3.29449	4.43268	6.50942
203	1	1	1	2.91481	1.87564	6.44683
80	1	1	1	2.56064	4.29532	7.2031
713	2	1	1	4.51677	1.52925	7.9167
233	1	1	1	0.784345	3.14868	7.80347
662	2	1	1	4.29053	4.64227	7.22772
229	1	1	1	0.480606	2.54875	6.33017
736	2	1	1	4.37506	0.540466	7.84576
86	1	1	1	4.61172	2.12069	7.1161
703	2	1	1	3.92189	1.59218	6.24099
480	1	1	1	0.862042	2.22987	7.19865
240	1	1	1	1.74929	2.62707	7.47756
838	2	1	1	0.508916	4.47263	6.3325
129	1	1	1	0.396225	1.21416	7.84873
544	2	1	1	3.69033	3.83636	7.20985
234	1	1	1	2.63807	2.07333	7.38815
997	2	1	1	0.134692	4.86105	7.88908
606	2	1	1	3.22057	3.08059	7.66747
66	1	1	1	4.46368	2.93733	6.55633
583	2	1	1	4.52283	3.40683	7.58494
134	1	1	1	0.0874205	2.16522	7.83182
201	1	1	1	1.68904	1.71911	6.82311
216	1	1	1	0.7618	1.4777	6.24091
724	2	1	1	2.64447	1.08393	6.99731
152	1	1	1	4.3877	3.93382	6.49875
236	1	1	1	3.70678	2.18363	7.60073
551	2	1	1	3.36026	4.92612	7.56949
224	1	1	1	1.68763	0.697511	6.51088
618	2	1	1	2.33806	4.93422	7.93996
123	1	1	1	0.848019	0.865455	7.02752
584	2	1	1	3.51145	2.71913	6.77881
717	2	1	1	3.55004	0.607995	6.75089
611	2	1	1	1.79131	3.64846	7.3199
2	1	1	1	0.871229	4.48616	7.27268
749	2	1	1	1.92319	0.761761	7.6135
209	1	1	1	4.37477	1.1198	7.00079
227	1	1	1	1.33573	1.55701	7.76688
716	2	1	1	2.8744	0.894547	6.03755
596	2	1	1	0.954076	0.113166	6.14324
707	2	1	1	2.56928	0.0865581	6.99701
205	1	1	1	4.38636	0.454894	6.00987
239	1	1	1	3.00932	0.469843	8.10619
732	2	1	1	3.81678	0.326429	8.78245
492	1	1	1	4.12922	0.705826	9.68103
245	1	1	1	3.20584	1.10697	8.93089
587	2	1	1	4.81454	3.32031	9.56077
231	1	1	1	3.11205	2.20051	9.17167
96	1	1	1	2.43502	3.84287	9.86149
237	1	1	1	2.15823	3.96778	8.19365
17	1	1	1	1.39426	2.35635	8.37242
754	2	1	1	3.58685	3.1907	9.32606
138	1	1	1	2.35427	2.00021	9.82654
640	2	1	1	2.11012	1.85242	8.85707
637	2	1	1	2.29267	2.95037	9.16829
597	2	1	1	4.2769	4.03214	8.95557
104	1	1	1	0.925976	4.51975	9.04431
504	2	1	1	1.14115	4.10663	8.15857
774	2	1	1	0.0551974	3.30683	9.21053
585	2	1	1	3.74072	4.35277	9.73802
743	2	1	1	2.69434	2.54063	8.32551
747	2	1	1	2.67752	0.137024	8.99603
110	1	1	1	0.179705	3.96419	8.4207
412	1	1	1	3.1617	0.497816	9.82505
139	1	1	1	2.87043	3.70816	8.84591
7	1	1	1	1.45665	3.4318	8.82649
654	2	1	1	1.41532	0.379877	9.87824
242	1	1	1	2.02081	0.793227	8.61686
868	2	1	1	2.87938	2.9563	9.99346
378	1	1	1	4.64137	2.36757	10.017
54	1	1	1	4.61664	5.02498	8.93133
636	2	1	1	0.800909	1.64143	9.06527
750	2	1	1	2.66091	1.41461	8.14603
670	2	1	1	4.67624	4.4149	8.12239
15	1	1	1	0.463062	2.57426	8.66528
607	2	1	1	3.5003	4.32044	8.35699
619	2	1	1	3.95412	3.26596	8.39863
495	1	1	1	4.00813	1.71021	9.51806
598	2	1	1	4.96449	4.3247	9.62016
642	2	1	1	0.491427	0.590785	9.47984
137	1	1	1	1.02323	0.829138	8.52597
226	1	1	1	3.79046	1.82858	8.53809
760	2	1	1	0.243484	2.32465	9.61201
530	2	1	1	1.45133	3.95747	9.68435
635	2	1	1	2.38639	1.04746	9.51378
998	2	1	1	4.4436	1.10816	8.82093
232	1	1	1	4.34166	2.57042	9.07011
608	2	1	1	1.89036	4.71484	8.80719
526	2	1	1	1.38922	2.5061	9.36122
79	1	1	1	2.76467	4.6012	9.29072
523	2	1	1	1.5069	1.37902	9.8728
235	1	1	1	4.5549	2.52701	8.09234
341	1	1	1	0.660483	7.80583	1.7984
533	2	1	1	1.27586	9.31391	1.57054
330	1	1	1	4.38518	7.92307	0.329237
742	2	1	1	2.57073	8.17763	0.450053
100	1	1	1	3.84877	5.02557	0.493185
627	2	1	1	3.03257	6.38355	1.57927
497	1	1	1	4.60559	8.66146	0.966842
22	1	1	1	1.89105	8.22919	1.41467
825	2	1	1	0.0777308	8.09573	0.668594
981	2	1	1	3.06263	9.1372	0.869087
122	1	1	1	3.1572	7.32921	1.89911
102	1	1	1	2.22828	6.06271	0.967526
278	1	1	1	4.13683	9.45065	1.48572
578	2	1	1	0.12938	5.7705	1.12349
126	1	1	1	1.40197	6.56534	0.701894
82	1	1	1	4.06411	6.96823	0.323104
63	1	1	1	0.967257	8.47475	1.12083
150	1	1	1	0.798015	7.41601	0.527712
651	2	1	1	1.97112	6.6425	1.74071
453	1	1	1	0.757758	6.4266	1.62309
964	2	1	1	4.99354	6.94547	0.806273
605	2	1	1	4.20926	6.30084	1.12616
145	1	1	1	1.13044	9.02951	0.0853777
105	1	1	1	2.41764	6.4213	0.0462492
874	2	1	1	3.92351	8.49179	1.68722
676	2	1	1	2.06226	9.00378	0.69453
621	2	1	1	1.74514	5.68592	0.17707
219	1	1	1	3.54243	8.26842	0.74728
610	2	1	1	1.38734	5.37079	1.1426
632	2	1	1	1.5123	8.13043	0.344012
32	1	1	1	1.49479	9.82804	0.710497
552	2	1	1	2.17794	9.0463	1.91493
221	1	1	1	4.75098	7.13063	1.7588
579	2	1	1	4.13355	5.95235	0.187629
878	2	1	1	2.88692	8.21317	1.50462
592	2	1	1	3.14692	7.36133	0.390589
590	2	1	1	3.91167	7.35969	1.23477
98	1	1	1	3.54328	5.52565	1.63982
113	1	1	1	0.746464	5.86724	0.342452
24	1	1	1	0.524488	9.57434	0.704242
673	2	1	1	1.41241	7.35613	1.31625
967	2	1	1	4.29193	9.54815	0.498818
599	2	1	1	3.27433	6.39176	0.607535
99	1	1	1	2.99138	5.43578	0.810419
803	2	1	1	0.0616792	8.89261	1.27248
886	2	1	1	2.50379	9.89124	0.523962
807	2	1	1	0.484899	5.27355	1.95049
698	2	1	1	3.1172	5.70716	3.82856
11	1	1	1	4.28061	5.42401	2.30837
45	1	1	1	3.15648	8.97296	2.11211
64	1	1	1	1.84738	9.42909	2.77762
815	2	1	1	0.578994	6.54023	2.6497
287	1	1	1	4.58322	9.67175	2.58975
146	1	1	1	2.58223	6.22603	2.88403
175	1	1	1	1.38515	5.69036	2.09862
153	1	1	1	1.47228	7.53068	2.31364
182	1	1	1	1.48493	6.75009	3.61647
213	1	1	1	0.649656	8.98007	2.30469
417	1	1	1	0.885398	5.64299	2.97728
166	1	1	1	1.57907	6.50688	2.65067
932	2	1	1	0.0657303	5.20679	3.70324
695	2	1	1	2.47727	6.94219	3.58134
887	2	1	1	4.39858	8.24835	2.6052
461	1	1	1	0.90268	8.27726	3.87513
957	2	1	1	0.37681	8.90239	3.27409
725	2	1	1	1.03001	5.69411	3.98296
404	1	1	1	4.20467	7.26657	2.58577
9	1	1	1	2.69647	9.80947	2.41043
33	1	1	1	4.70866	9.0658	3.47229
945	2	1	1	0.247481	6.17694	3.54119
50	1	1	1	1.68607	8.80013	3.53921
162	1	1	1	2.82434	8.6426	3.14798
160	1	1	1	3.60972	7.75444	3.44837
976	2	1	1	0.106696	7.49455	3.923
876	2	1	1	4.46029	5.1995	3.8152
699	2	1	1	3.29182	6.99051	2.88681
547	2	1	1	3.95731	9.53019	3.94317
746	2	1	1	2.57237	5.62114	2.08171
792	2	1	1	4.54443	8.08945	3.61462
634	2	1	1	2.39413	8.13777	2.39879
884	2	1	1	3.40914	8.0864	2.50375
684	2	1	1	2.94268	9.27032	3.95735
557	2	1	1	1.84574	7.70133	3.27829
401	1	1	1	4.36149	7.10495	3.56227
171	1	1	1	1.82469	5.72839	3.30942
390	1	1	1	4.96231	6.58033	2.95913
462	1	1	1	1.02564	9.66468	3.29651
112	1	1	1	3.73358	5.32535	3.13979
443	1	1	1	0.861854	7.64471	3.1017
687	2	1	1	2.36459	7.14096	2.54381
532	2	1	1	3.44625	9.85089	3.14563
808	2	1	1	1.47688	8.49594	2.6082
631	2	1	1	3.99902	6.29961	3.07286
26	1	1	1	3.78916	8.89391	3.06576
174	1	1	1	3.43152	6.85981	3.87013
101	1	1	1	4.99624	5.58451	3.04412
336	1	1	1	0.0905013	9.9435	3.07793
752	2	1	1	4.95019	6.11002	2.02313
883	2	1	1	3.90384	6.46391	2.07065
710	2	1	1	1.89963	9.17511	4.445
700	2	1	1	3.42635	6.72448	5.93852
537	2	1	1	4.54791	8.66004	4.44339
188	1	1	1	2.09653	8.08829	4.17889
170	1	1	1	1.59671	8.28707	5.04592
208	1	1	1	1.83617	7.27978	4.82202
165	1	1	1	3.46818	7.20562	5.06261
189	1	1	1	2.44748	6.13923	5.23708
159	1	1	1	3.62956	8.54496	4.06054
196	1	1	1	0.799346	9.55755	4.26466
720	2	1	1	1.8781	5.35406	4.85575
723	2	1	1	2.68963	6.83217	4.5535
922	2	1	1	2.23075	6.01449	4.17776
701	2	1	1	4.26718	5.49982	4.84505
721	2	1	1	3.45442	9.0517	4.90468
712	2	1	1	0.709811	8.72873	4.8172
438	1	1	1	4.01889	6.07273	4.06363
714	2	1	1	2.67668	9.6719	5.0082
728	2	1	1	1.43025	6.36443	4.66595
178	1	1	1	4.28598	6.54086	5.44469
193	1	1	1	3.94854	8.21886	5.15461
719	2	1	1	4.80462	9.11687	5.63646
181	1	1	1	4.76787	5.39756	5.71636
569	2	1	1	4.3216	9.54882	4.87462
156	1	1	1	2.21222	8.9349	5.50171
192	1	1	1	0.435825	6.33077	4.51746
705	2	1	1	0.471994	7.77379	4.99486
184	1	1	1	4.04634	7.61986	4.35949
683	2	1	1	3.80582	5.69722	5.96087
446	1	1	1	0.921737	6.07898	5.47833
686	2	1	1	3.0306	7.73014	4.26431
179	1	1	1	4.8366	8.08859	5.62493
934	2	1	1	1.82805	7.60664	5.77741
709	2	1	1	2.92006	8.2054	5.1375
34	1	1	1	4.97597	9.75699	4.14716
692	2	1	1	4.12247	7.44794	5.96448
892	2	1	1	4.99838	7.145	4.33404
215	1	1	1	3.50702	6.198	4.91889
214	1	1	1	2.88428	5.38394	4.7477
118	1	1	1	0.481363	9.23413	5.64939
197	1	1	1	0.957923	7.18636	4.34773
577	2	1	1	1.40454	9.5408	5.40502
303	1	1	1	0.596463	7.32034	5.8781
550	2	1	1	3.25804	7.77425	6.65521
715	2	1	1	1.55736	9.87841	7.31876
202	1	1	1	2.79435	9.54501	6.18703
601	2	1	1	0.782732	6.24996	6.45377
603	2	1	1	1.35121	7.4604	7.80086
604	2	1	1	1.45107	5.448	7.893
55	1	1	1	1.62533	8.48343	6.21567
62	1	1	1	1.03203	5.28772	6.08227
52	1	1	1	3.72205	8.89062	7.91357
520	2	1	1	2.96378	6.55723	7.00428
562	2	1	1	3.10705	7.84853	7.87649
818	2	1	1	1.15492	8.38469	7.4293
666	2	1	1	2.78673	5.99809	6.19006
191	1	1	1	4.38163	9.14274	7.19514
628	2	1	1	0.378003	6.21142	7.47242
580	2	1	1	2.63265	8.56838	6.4431
60	1	1	1	2.74992	5.77566	7.59021
173	1	1	1	1.8113	9.65164	6.37304
561	2	1	1	4.10641	8.02875	7.58241
143	1	1	1	3.59897	5.75292	7.06013
959	2	1	1	4.97917	8.6913	6.52475
346	1	1	1	0.140878	7.92057	6.87298
685	2	1	1	4.56457	7.15724	6.86887
613	2	1	1	0.897622	5.46305	7.06022
850	2	1	1	0.648812	7.06888	7.01194
57	1	1	1	2.72822	8.79727	7.85061
729	2	1	1	0.570311	9.87667	7.15617
602	2	1	1	4.0119	8.42847	6.56744
65	1	1	1	2.30725	7.24645	8.00955
538	2	1	1	3.18709	9.18393	7.03995
581	2	1	1	1.74938	5.98958	6.95371
566	2	1	1	1.95461	8.96447	7.08602
704	2	1	1	3.89205	9.41927	6.34928
586	2	1	1	1.42804	7.6457	6.72788
51	1	1	1	4.32439	6.43676	7.66631
595	2	1	1	0.240383	8.79785	7.34272
185	1	1	1	4.38342	6.1873	6.61748
345	1	1	1	0.374333	8.29445	5.97508
652	2	1	1	2.69398	5.18893	6.77111
53	1	1	1	2.56648	7.15661	6.2802
31	1	1	1	2.26657	8.0485	7.34617
731	2	1	1	2.36794	9.72831	7.90867
49	1	1	1	3.68795	7.14754	7.36192
67	1	1	1	0.968173	9.12284	6.6304
665	2	1	1	4.68512	5.55017	7.37544
48	1	1	1	2.03467	6.93719	7.09815
246	1	1	1	3.64759	9.93408	7.52433
630	2	1	1	0.358102	7.15227	7.96525
534	2	1	1	2.02577	5.36973	6.00374
59	1	1	1	1.87128	6.45133	6.04836
567	2	1	1	3.75466	6.01386	9.26351
702	2	1	1	3.50318	9.37414	8.7612
83	1	1	1	1.14679	7.73314	8.74297
563	2	1	1	2.05533	6.14984	8.27022
77	1	1	1	2.35863	8.31976	9.48229
88	1	1	1	1.69751	6.9052	8.89778
753	2	1	1	0.178931	8.50808	9.28022
81	1	1	1	2.58626	6.46985	9.05684
498	1	1	1	3.67272	9.64404	9.71851
600	2	1	1	4.51245	6.62521	9.49676
589	2	1	1	3.91927	8.02742	8.56488
726	2	1	1	1.66349	9.00354	8.04206
85	1	1	1	3.05422	8.48013	8.78174
644	2	1	1	0.568709	9.95746	8.70985
588	2	1	1	2.98783	5.63577	9.795
84	1	1	1	2.17012	8.17022	8.40913
207	1	1	1	4.80743	8.42215	8.32685
989	2	1	1	4.64393	8.37412	9.40114
571	2	1	1	3.02498	6.54925	8.16114
74	1	1	1	2.33543	9.18101	8.76121
617	2	1	1	3.34021	8.63463	9.79668
89	1	1	1	4.83191	5.28535	9.89761
501	2	1	1	0.656676	5.45651	8.50035
75	1	1	1	3.35854	6.89179	9.53243
92	1	1	1	1.0279	5.68164	9.40115
311	1	1	1	4.5337	5.99096	8.6217
70	1	1	1	4.73714	7.24255	8.4783
980	2	1	1	4.51083	9.51675	8.11515
560	2	1	1	3.76005	7.04211	8.62676
121	1	1	1	1.50465	9.97014	8.35168
46	1	1	1	0.271443	9.45124	9.59954
76	1	1	1	0.4973	6.85259	8.94046
593	2	1	1	1.1314	6.64672	9.73945
222	1	1	1	2.61508	9.31818	9.71169
72	1	1	1	3.80111	7.78854	9.52875
131	1	1	1	1.42427	8.5758	9.2108
493	1	1	1	4.46072	9.52602	9.11399
558	2	1	1	2.87142	5.6311	8.58024
133	1	1	1	0.572147	7.62281	9.57408
218	1	1	1	0.679643	9.11435	8.18376
745	2	1	1	0.472878	8.13354	8.12044
68	1	1	1	2.74675	7.47398	8.87875
132	1	1	1	1.49585	9.58587	9.27547
71	1	1	1	2.13954	5.57153	9.25945
614	2	1	1	1.07506	6.37839	8.19713
30	1	1	1	3.73385	5.73222	8.0784
574	2	1	1	3.62073	5.05037	9.03156
78	1	1	1	1.92751	7.2966	9.97108
903	2	1	1	9.60337	4.83652	1.74729
387	1	1	1	7.66665	0.805361	1.7497
755	2	1	1	6.73824	2.0577	1.26822
661	2	1	1	9.52724	2.53956	0.924729
854	2	1	1	5.89539	2.38234	1.69946
284	1	1	1	8.75559	0.081811	0.119261
289	1	1	1	6.33182	0.153538	0.0491962
109	1	1	1	9.38806	4.19385	0.374202
871	2	1	1	5.43699	3.93466	0.632768
853	2	1	1	6.19497	3.87724	1.475
659	2	1	1	9.19107	3.55901	1.14556
259	1	1	1	7.39127	1.21096	0.420843
798	2	1	1	5.44184	0.589406	0.329214
832	2	1	1	6.55842	4.12168	0.248879
262	1	1	1	8.73445	1.23506	0.400407
368	1	1	1	8.24865	4.71884	0.858017
393	1	1	1	8.57993	2.64944	1.30883
373	1	1	1	6.15479	3.117	0.826652
266	1	1	1	8.55836	0.531391	1.24436
376	1	1	1	5.04799	3.01472	0.685256
292	1	1	1	7.81458	0.286801	0.582787
269	1	1	1	6.72513	1.33088	1.96785
361	1	1	1	6.82915	3.0149	0.0881787
13	1	1	1	8.98569	1.59322	1.29981
771	2	1	1	7.7171	1.87858	1.09097
430	1	1	1	7.68572	2.53962	1.8413
274	1	1	1	5.65198	1.56838	0.230098
389	1	1	1	6.75646	2.92515	1.78029
872	2	1	1	7.94024	4.36678	1.98486
697	2	1	1	9.66996	2.99705	1.82002
514	2	1	1	5.1745	1.7044	1.84608
770	2	1	1	6.02315	1.33779	1.15002
147	1	1	1	9.85748	1.14744	1.50315
359	1	1	1	8.41623	2.19589	0.432579
858	2	1	1	7.21065	4.26804	1.3041
768	2	1	1	9.70977	1.60515	0.610318
758	2	1	1	6.67052	1.85796	0.161463
779	2	1	1	7.55208	4.19622	0.366466
895	2	1	1	9.51175	0.226002	1.28707
761	2	1	1	5.03026	1.01447	1.13617
762	2	1	1	6.72758	0.612597	0.87078
882	2	1	1	8.05318	3.44288	1.61894
806	2	1	1	5.31897	0.116703	1.5307
362	1	1	1	7.2073	3.30922	0.973803
638	2	1	1	8.32157	3.61429	0.635757
333	1	1	1	5.4347	4.59757	1.38187
370	1	1	1	7.8346	2.93498	0.0801054
382	1	1	1	5.85238	2.6134	0.0129147
899	2	1	1	8.2585	0.799834	2.65643
909	2	1	1	8.4491	4.4776	3.81764
366	1	1	1	5.06784	3.00103	2.61079
399	1	1	1	7.21323	0.81446	2.80476
893	2	1	1	7.46921	4.32044	3.6606
263	1	1	1	5.39529	3.69227	3.41254
873	2	1	1	7.67709	2.73864	2.82161
405	1	1	1	6.56001	2.30883	3.652
439	1	1	1	9.66503	3.22135	2.80149
891	2	1	1	6.29821	3.94005	3.06003
291	1	1	1	6.02056	1.50302	3.919
920	2	1	1	7.02049	1.16488	3.73393
293	1	1	1	7.69826	0.383235	3.56568
865	2	1	1	5.23659	3.97206	2.44159
915	2	1	1	9.97564	4.62108	2.66272
410	1	1	1	8.53763	2.78496	2.30419
275	1	1	1	6.5489	2.19924	2.4383
400	1	1	1	9.01275	3.69666	2.15939
898	2	1	1	6.53893	4.18872	4.00386
775	2	1	1	5.81281	1.03209	2.248
411	1	1	1	7.43955	1.75137	2.5271
901	2	1	1	8.70885	3.31699	3.13551
780	2	1	1	6.35395	0.343237	3.01476
508	2	1	1	5.48838	0.39447	3.56763
767	2	1	1	5.37175	1.30948	3.18116
413	1	1	1	6.826	0.272987	2.04915
921	2	1	1	9.29726	2.55576	3.45276
866	2	1	1	6.0569	4.50731	2.23956
905	2	1	1	7.42746	3.32195	3.61081
916	2	1	1	8.28052	1.59648	2.00876
272	1	1	1	5.48663	0.126439	2.51914
434	1	1	1	9.39277	1.63018	3.07408
416	1	1	1	9.18728	2.03348	2.18037
369	1	1	1	5.64117	2.72039	3.55272
423	1	1	1	8.83428	0.0711419	2.10975
431	1	1	1	8.41011	1.80739	2.97814
422	1	1	1	9.94709	0.497352	2.2577
392	1	1	1	5.98867	3.26859	2.32416
801	2	1	1	9.18564	0.417144	2.97974
889	2	1	1	7.76985	3.79708	2.80021
990	2	1	1	7.003	4.80838	2.11954
999	2	1	1	6.72724	3.03544	2.9569
298	1	1	1	8.42646	1.06373	3.64739
910	2	1	1	9.10675	1.03345	2.17712
425	1	1	1	8.46062	2.15141	3.91901
402	1	1	1	6.38842	1.37967	2.98894
900	2	1	1	7.51129	2.01288	3.48995
777	2	1	1	5.57702	2.14221	2.66696
456	1	1	1	9.35595	4.37047	3.4065
395	1	1	1	8.58791	4.37138	2.76534
973	2	1	1	6.90074	3.81988	2.27049
415	1	1	1	5.69186	4.68864	3.77067
313	1	1	1	9.42051	0.870468	3.84439
419	1	1	1	6.53019	4.89981	3.26757
427	1	1	1	7.69995	4.83733	2.83623
408	1	1	1	5.17408	4.9763	2.27043
490	1	1	1	8.55674	0.511056	5.46875
340	1	1	1	8.65771	1.99409	5.4253
465	1	1	1	9.2779	4.84099	4.29709
314	1	1	1	7.78856	3.65755	5.69173
930	2	1	1	7.64771	2.65543	4.32301
428	1	1	1	6.19132	3.1831	5.17968
250	1	1	1	5.50472	2.72794	4.60207
268	1	1	1	5.78181	3.6669	4.39708
783	2	1	1	8.72597	1.38795	4.54494
837	2	1	1	7.26361	1.15442	5.44924
939	2	1	1	7.76547	4.87046	4.47334
855	2	1	1	9.7895	0.416436	4.66167
315	1	1	1	9.39192	4.57202	5.27305
437	1	1	1	7.53527	1.6674	4.42854
16	1	1	1	5.36086	1.21597	4.87212
931	2	1	1	9.10946	3.01435	4.32339
894	2	1	1	8.266	4.15996	4.96944
320	1	1	1	9.72229	3.61452	5.17706
449	1	1	1	7.19768	4.46726	5.70226
933	2	1	1	9.65681	3.85137	4.20712
323	1	1	1	9.52736	1.84293	4.15024
39	1	1	1	5.99616	0.582429	4.4089
658	2	1	1	5.24852	3.98423	5.88672
943	2	1	1	7.38911	3.87549	4.55258
332	1	1	1	8.14255	1.30768	5.94827
299	1	1	1	6.31449	1.35609	5.81027
548	2	1	1	5.81014	2.02658	5.24922
804	2	1	1	6.97429	0.312033	4.25578
908	2	1	1	6.63177	2.30033	4.66115
795	2	1	1	6.6424	2.43214	5.66271
518	2	1	1	5.13851	1.93489	4.11402
435	1	1	1	5.77425	4.43962	5.03179
283	1	1	1	7.91602	0.80293	4.75673
335	1	1	1	7.63884	2.0852	5.42907
817	2	1	1	8.33387	2.91845	5.08078
679	2	1	1	6.26327	4.07777	5.82569
848	2	1	1	8.80136	0.375407	4.47003
805	2	1	1	6.63918	1.29956	4.67795
37	1	1	1	5.41339	0.301369	5.27828
913	2	1	1	8.28518	3.52754	4.08336
487	1	1	1	9.47228	1.32532	5.2101
737	2	1	1	9.43789	2.56806	5.16898
542	2	1	1	6.41323	0.323528	5.28678
816	2	1	1	8.78819	3.65521	5.65689
445	1	1	1	7.20169	3.07234	5.11814
918	2	1	1	6.68485	3.22043	4.27284
570	2	1	1	5.34276	1.08045	5.91401
228	1	1	1	9.42059	0.0081568	5.4994
161	1	1	1	6.7485	4.69973	4.83772
822	2	1	1	7.15576	3.08799	6.22065
329	1	1	1	9.42729	3.53694	6.41705
388	1	1	1	8.18122	2.25523	7.67425
643	2	1	1	8.85719	1.62952	7.19881
304	1	1	1	8.13479	2.80107	6.07622
500	1	1	1	9.29241	2.43522	6.26209
318	1	1	1	8.08739	4.43703	6.29303
944	2	1	1	5.30572	1.45228	6.84939
565	2	1	1	6.98347	3.59765	7.60764
819	2	1	1	7.78121	4.20373	7.59101
271	1	1	1	9.1183	1.44604	6.13751
97	1	1	1	9.82305	4.19027	7.21543
851	2	1	1	7.55766	2.8725	7.11207
956	2	1	1	5.92909	1.71586	7.69738
681	2	1	1	5.13187	4.57538	6.68954
655	2	1	1	8.69967	0.263839	7.41722
924	2	1	1	7.24652	4.93447	6.70912
310	1	1	1	8.56624	3.93457	7.01366
365	1	1	1	6.7764	0.382047	7.12883
802	2	1	1	6.75575	4.56733	7.51339
348	1	1	1	7.11965	1.78695	6.26012
384	1	1	1	8.5646	2.93508	6.97736
656	2	1	1	8.27764	1.0618	7.85012
317	1	1	1	6.81398	4.03391	6.65949
385	1	1	1	7.7291	0.0987667	7.24123
194	1	1	1	5.75164	0.492363	6.72433
354	1	1	1	8.16877	3.33709	7.90749
358	1	1	1	9.08337	3.75444	7.85467
572	2	1	1	5.53928	2.60968	7.92376
40	1	1	1	5.26448	3.44044	6.91198
372	1	1	1	8.87841	4.72481	7.72546
559	2	1	1	7.14939	0.376224	6.06754
56	1	1	1	5.57995	3.60883	7.91836
249	1	1	1	7.38597	1.27308	7.3964
69	1	1	1	6.7221	2.40503	7.42365
238	1	1	1	9.85039	0.830926	7.10292
357	1	1	1	7.9657	1.8303	6.79285
125	1	1	1	9.908	1.74589	6.69007
677	2	1	1	5.91462	4.16193	7.15541
862	2	1	1	6.41171	1.26036	6.81455
377	1	1	1	5.32988	0.884536	7.67438
568	2	1	1	5.64182	4.63975	7.99064
35	1	1	1	6.23196	3.21674	7.06898
852	2	1	1	8.10866	0.3714	6.35175
995	2	1	1	9.08205	0.526766	6.5314
42	1	1	1	5.99869	2.17264	6.76041
406	1	1	1	9.50697	2.70929	7.22495
790	2	1	1	9.51525	4.58458	6.32297
247	1	1	1	9.98178	0.118326	6.3775
43	1	1	1	5.87137	3.21126	6.1359
554	2	1	1	5.2432	2.10443	6.0738
258	1	1	1	7.33493	1.93413	9.35534
835	2	1	1	5.79465	3.62227	9.75257
360	1	1	1	6.62465	2.09333	8.37001
195	1	1	1	5.27492	1.83404	8.49682
248	1	1	1	5.85112	0.822738	9.4462
786	2	1	1	9.51142	1.15672	9.73799
867	2	1	1	6.2059	0.90411	8.21302
265	1	1	1	9.76504	3.08719	8.15677
10	1	1	1	9.2736	2.47113	8.77477
861	2	1	1	9.99448	4.32394	9.42338
778	2	1	1	7.18231	0.490504	8.03633
273	1	1	1	8.53697	1.80685	8.49707
776	2	1	1	7.56743	1.6265	8.32853
253	1	1	1	9.82418	1.6391	8.84744
488	1	1	1	5.12401	0.318885	8.47669
772	2	1	1	7.62985	3.08696	9.07685
787	2	1	1	8.95312	0.797247	8.98998
270	1	1	1	7.36693	2.7699	8.15587
339	1	1	1	5.81324	4.7328	9.95783
342	1	1	1	6.39352	4.05352	8.29315
846	2	1	1	6.46023	4.571	9.14627
255	1	1	1	8.34585	2.26958	9.42794
784	2	1	1	6.82754	0.924216	9.64627
379	1	1	1	8.58538	3.82154	9.69138
856	2	1	1	6.78548	3.6254	9.11933
828	2	1	1	5.56422	2.97661	8.96951
261	1	1	1	9.37999	3.2746	9.9757
840	2	1	1	7.65871	4.03939	9.38465
276	1	1	1	7.51735	0.720532	8.95039
485	1	1	1	5.01136	0.280167	9.47214
849	2	1	1	7.33875	4.32114	8.48014
380	1	1	1	5.03111	1.62603	9.44401
869	2	1	1	6.31909	1.68116	9.23338
669	2	1	1	9.85774	0.649912	8.57044
870	2	1	1	9.42977	4.61297	8.55394
763	2	1	1	9.06179	4.68394	9.51938
859	2	1	1	8.40126	4.12478	8.59052
633	2	1	1	9.28437	1.28812	8.04931
842	2	1	1	5.57117	4.0637	8.86409
845	2	1	1	6.35184	3.05419	8.30171
863	2	1	1	6.48438	2.66739	9.21595
108	1	1	1	9.29609	2.27723	9.95075
756	2	1	1	9.09788	3.45306	8.84854
764	2	1	1	8.19946	1.11898	9.56354
277	1	1	1	7.89694	0.0686307	9.60687
267	1	1	1	9.58161	0.175421	9.55536
789	2	1	1	8.29056	0.0923088	8.66408
991	2	1	1	6.0588	7.18235	0.334786
296	1	1	1	9.69343	7.41783	0.0419032
282	1	1	1	9.11016	8.62479	0.898379
375	1	1	1	5.18802	6.16661	0.209993
483	1	1	1	5.97045	7.3731	1.43982
674	2	1	1	9.25953	5.09613	0.793326
420	1	1	1	7.02249	7.10761	1.77949
290	1	1	1	7.05637	9.31869	1.62424
288	1	1	1	7.62182	8.49407	1.60095
394	1	1	1	8.67865	5.20598	1.61807
297	1	1	1	6.48044	8.98624	0.872838
286	1	1	1	7.24873	9.52914	0.187805
826	2	1	1	8.60502	7.99883	1.57344
782	2	1	1	8.92395	7.66743	0.676896
281	1	1	1	7.7573	7.55931	1.2722
367	1	1	1	5.37984	7.86391	0.720629
982	2	1	1	7.68328	5.22881	1.51561
254	1	1	1	7.08042	6.29604	0.146051
363	1	1	1	5.84408	6.42021	1.12527
794	2	1	1	5.2775	9.6363	0.653886
797	2	1	1	8.80544	9.49086	1.29472
279	1	1	1	6.26482	9.85453	1.33031
407	1	1	1	5.16361	8.04069	1.68438
494	1	1	1	6.18446	5.5231	0.44602
793	2	1	1	8.11081	8.38633	0.548553
833	2	1	1	5.76641	5.51837	1.6147
800	2	1	1	7.90284	9.29783	0.908131
93	1	1	1	9.94518	5.30299	0.095351
799	2	1	1	6.09323	8.8181	1.8443
300	1	1	1	9.52808	9.48695	0.592449
996	2	1	1	6.43384	6.19363	1.92891
328	1	1	1	5.02677	5.50114	0.93905
904	2	1	1	6.69619	8.10498	1.3183
791	2	1	1	9.4356	5.81968	1.8421
433	1	1	1	7.90431	9.83366	1.76568
115	1	1	1	8.38918	5.69556	0.37207
983	2	1	1	7.52633	6.35969	1.28664
44	1	1	1	8.72002	6.12601	1.21186
489	1	1	1	7.05588	7.2077	0.577445
880	2	1	1	5.12536	9.14558	1.67076
881	2	1	1	8.02708	7.40361	0.321958
541	2	1	1	9.80018	6.42699	0.273689
481	1	1	1	5.19029	8.77038	0.159003
306	1	1	1	9.27768	8.69108	1.88839
857	2	1	1	6.73122	5.46522	1.2903
765	2	1	1	7.14661	8.49688	0.307691
442	1	1	1	9.04138	7.04442	1.45025
491	1	1	1	7.4272	5.45219	0.570455
321	1	1	1	9.96253	7.07885	1.03251
810	2	1	1	9.66443	7.78911	1.69588
994	2	1	1	6.00397	8.18997	0.0103606
454	1	1	1	7.18369	8.4377	3.34919
885	2	1	1	6.08084	5.45488	2.56658
809	2	1	1	9.08916	7.26018	2.42743
940	2	1	1	8.38053	5.46831	3.93495
391	1	1	1	5.01276	6.02233	3.94907
353	1	1	1	9.5149	9.5612	3.80084
307	1	1	1	8.34316	8.98305	2.09374
403	1	1	1	8.20649	6.0955	2.06938
424	1	1	1	7.31616	5.33293	3.70889
294	1	1	1	6.857	8.3147	2.28657
305	1	1	1	7.35484	9.12401	2.59922
337	1	1	1	8.80981	8.87986	3.52781
319	1	1	1	9.84215	6.75044	2.0068
473	1	1	1	9.948	7.27079	2.94341
788	2	1	1	7.93898	7.96968	2.50108
397	1	1	1	7.1662	5.68238	2.57745
902	2	1	1	8.14403	5.71933	2.99396
785	2	1	1	6.94949	9.62127	3.36997
309	1	1	1	9.11727	6.27386	2.67414
938	2	1	1	9.24392	5.74362	3.51245
923	2	1	1	9.21724	7.79706	3.58025
993	2	1	1	5.23404	7.52834	3.15213
917	2	1	1	6.85748	6.17156	3.40888
821	2	1	1	9.50028	9.12424	2.84681
440	1	1	1	7.43255	7.04758	2.72064
421	1	1	1	5.91576	7.81284	2.42523
29	1	1	1	5.59583	8.76425	3.97104
285	1	1	1	6.37808	9.44816	2.56737
447	1	1	1	9.90751	5.61831	2.77018
823	2	1	1	9.82418	9.53988	1.99676
769	2	1	1	5.21996	8.81946	2.61431
301	1	1	1	6.4647	7.56824	3.36027
897	2	1	1	8.9954	5.26269	2.56687
325	1	1	1	8.91062	8.20752	2.69344
452	1	1	1	7.83313	6.46223	3.58677
972	2	1	1	5.59901	6.84636	2.21538
890	2	1	1	5.87702	5.82097	3.47625
950	2	1	1	9.30169	6.77226	3.52113
796	2	1	1	6.11783	8.4852	3.16048
912	2	1	1	5.65112	6.7774	3.67001
830	2	1	1	9.99816	8.26383	2.55596
906	2	1	1	8.17578	7.09536	2.05297
535	2	1	1	5.65003	9.45853	3.25291
167	1	1	1	8.21577	8.07724	3.46525
582	2	1	1	7.85351	9.16852	3.48096
386	1	1	1	6.4628	6.79153	2.73034
455	1	1	1	8.43926	7.14517	3.1788
693	2	1	1	7.44049	7.45861	3.63267
409	1	1	1	8.05861	9.82499	2.75503
575	2	1	1	8.58992	9.91176	3.60865
696	2	1	1	5.0856	7.13193	5.33865
177	1	1	1	6.55241	8.4209	4.1339
664	2	1	1	5.06603	6.17575	4.93596
186	1	1	1	6.39587	7.61318	4.71989
432	1	1	1	7.18324	6.13098	4.35393
448	1	1	1	6.68641	5.65882	5.13164
464	1	1	1	8.81553	5.86126	5.21247
955	2	1	1	9.44238	6.32301	4.40339
451	1	1	1	5.69619	5.43875	5.29921
556	2	1	1	5.45894	9.29899	4.90244
338	1	1	1	8.7442	8.29425	4.33653
969	2	1	1	8.65213	8.50904	5.37498
163	1	1	1	5.39494	8.25287	4.80678
961	2	1	1	9.8338	5.96191	5.29665
457	1	1	1	6.03592	6.39353	4.79486
733	2	1	1	9.91987	9.36914	4.70784
813	2	1	1	7.89922	9.85614	4.43378
962	2	1	1	8.44235	6.34631	4.4097
960	2	1	1	7.12717	8.64037	5.7086
469	1	1	1	7.13225	7.63232	5.39766
576	2	1	1	6.16359	9.64718	4.09322
927	2	1	1	7.82388	5.7948	5.0491
948	2	1	1	8.16139	7.70116	5.04857
929	2	1	1	6.36615	5.10678	5.96341
952	2	1	1	8.88148	6.99295	5.05255
841	2	1	1	9.88048	8.49587	4.0478
212	1	1	1	7.03594	9.51564	5.23216
169	1	1	1	5.60753	9.6068	5.9767
349	1	1	1	7.89516	8.95422	4.86659
935	2	1	1	8.26622	5.01972	5.50027
971	2	1	1	8.7582	9.34265	4.41703
436	1	1	1	5.1658	5.10219	4.52054
691	2	1	1	5.15389	6.30898	5.92325