ITEM: TIMESTEP
104500
ITEM: NUMBER OF ATOMS
1000
ITEM: BOX BOUNDS xy xz yz pp pp pp
0.0000000000000000e+00 1.0000000000000000e+01 0.0000000000000000e+00
0.0000000000000000e+00 1.0000000000000000e+01 0.0000000000000000e+00
0.0000000000000000e+00 1.0000000000000000e+01 0.0000000000000000e+00
ITEM: ATOMS id type x y z ix iy iz vx vy vz fx fy fz omegax omegay omegaz radius c_2[1] c_2[2] c_2[3] c_2[4] c_2[5] c_2[6] 
120 1 3.17036 1.51411 0.0611007 0 1 0 -0.0264786 0.0532356 0.021319 0.0333806 -0.0571287 -0.0216809 0.00891836 -0.00990512 -0.00911347 0.5 -0.0176774 -0.0467734 -0.00219739 0.00199785 -0.000204256 -0.00981719 
525 2 2.12182 1.25826 1.72441 0 0 0 -0.011005 -0.0320405 -0.0239679 0.0115137 0.0232735 0.0169248 0.00168989 0.00446858 0.0119869 0.5 0.00190296 -0.00205596 -0.000197446 0.00155909 0.000977888 -0.00137391 
371 1 4.95572 3.69985 1.55292 0 0 1 0.000463352 -0.0258167 0.0544385 0.00855721 0.0228811 -0.0468448 0.0145849 0.00469334 -0.000868946 0.5 0.00169387 -0.0387233 0.0503799 -0.00855934 -0.00412615 0.000530459 
18 1 1.98474 2.68391 0.509282 0 0 0 -0.008048 0.0168981 0.0357226 0.0144121 -0.0174155 -0.0120365 0.0229668 -0.016037 0.0113113 0.5 0.00383749 -0.0555409 -0.0229952 0.0377013 0.049649 -0.0435658 
94 1 2.46844 3.52138 1.97703 0 0 1 -0.0174231 -0.0305775 0.0452973 0.0286896 0.0171888 -0.0329301 0.0201102 -0.00673368 0.010487 0.5 0.0218974 0.0275278 0.0129785 0.0118364 0.0202377 0.0154916 
25 1 1.41245 0.709098 1.12639 0 0 0 0.0117548 0.00477552 -0.0755119 -0.0145869 -0.010905 0.0702125 0.0246198 0.00747202 0.0107296 0.5 -0.0517216 -0.178932 -0.0757103 0.0858634 0.0431335 -0.0905189 
378 1 4.62638 2.39209 0.0471659 0 0 1 -0.0210019 0.0302999 0.0439046 0.0290752 -0.0338899 -0.0389418 0.0291014 0.00797766 -0.00289883 0.5 -0.0138536 -0.0356299 -0.0139738 -0.0332313 -0.0134877 -0.0496165 
8 1 3.44007 2.0798 1.72784 0 0 0 0.00271135 -0.0129602 0.0265241 -0.00224619 -0.00143542 -0.0233832 0.0250033 -0.00319545 0.00359138 0.5 -0.0206409 -0.0017585 0.0123655 0.0185744 0.0284972 -0.0176735 
629 2 4.07404 2.61827 1.17242 0 0 1 0.000286636 0.00309061 0.0391576 0.00669798 -0.0137657 -0.024389 0.0288756 0.0012623 -0.000713235 0.5 -0.00116944 -0.0117481 -0.0059768 0.0044 0.00540422 -0.010529 
5 1 2.35237 3.89659 1.01448 0 0 0 -0.0169936 0.02817 0.0680972 0.0326751 -0.0399107 -0.0523338 0.0311049 0.000305285 -0.0110892 0.5 0.0100571 0.00323375 -0.00380227 -0.00496888 -0.0029877 0.000773199 
650 2 0.481843 3.4628 1.14939 0 0 0 -0.0414759 -0.0504989 -0.0320462 0.0491167 0.0619964 0.0221464 0.0275652 0.00684139 0.0116701 0.5 -0.0440545 -0.0456102 -0.0339999 0.0324837 0.0340428 -0.0350589 
14 1 3.29881 3.14662 1.51877 0 0 0 -0.0102259 -0.0149484 0.0423433 0.014722 0.00574663 -0.036235 0.0273672 0.000961488 -0.0021815 0.5 0.0111496 -0.0112468 -0.00781965 0.0025332 0.00928554 -0.0265584 
264 1 3.99279 3.88243 1.34715 0 0 0 0.00165849 -0.0169748 0.0565166 0.00609457 0.00530656 -0.0492211 0.0270816 0.00440385 -0.00575709 0.5 0.00459155 0.00105628 0.00721411 0.0127767 -0.00169577 -0.00735202 
223 1 0.762815 2.50131 1.15353 0 0 1 -0.0204501 -0.0432253 -0.0157936 0.0078909 0.0490381 0.0167177 0.0325336 -0.0017572 0.0199887 0.5 -0.0390868 -0.0654101 -0.220337 0.0248915 0.0836001 -0.0696457 
364 1 4.42589 4.22408 0.500085 0 0 1 -0.00177521 0.0212776 0.0670457 -0.000367448 -0.0153593 -0.0549891 0.0213366 0.00258613 -0.000207297 0.5 0.0121241 -0.0195921 0.0239197 0.00477649 -0.0046293 -0.0132278 
107 1 1.67072 1.6117 0.781648 0 0 1 -0.0149264 0.0150201 -0.0687352 0.0066387 -0.0133164 0.0804321 0.0342894 0.00600639 0.00794672 0.5 0.0386323 -0.00215782 0.0119907 -0.0131629 0.0136216 -0.0314326 
529 2 2.66684 2.19822 1.05638 0 0 0 0.00714739 0.0114855 0.0128167 0.0181956 -0.0206805 -0.0222817 0.0308153 -0.00696514 0.00999249 0.5 -0.00733772 -0.00202234 0.00383197 0.00167546 0.0338362 -0.00959245 
515 2 4.38571 0.451316 1.6514 0 0 0 0.00127481 -0.0200006 -0.0126276 -0.00114039 0.0076167 0.0103125 0.0206244 0.00442056 -0.00204908 0.5 -0.0389405 -0.0338446 -0.0911168 -0.0745862 0.0179446 0.0223587 
244 1 4.11433 0.563782 0.68554 0 1 1 -0.00309432 0.0162986 -0.00292478 0.00551341 -0.0257929 -0.00273536 0.0252488 0.00713037 -0.00220948 0.5 -0.0473193 -0.0458703 -0.0820631 -0.0263386 0.0266088 0.027604 
20 1 2.89885 0.581616 1.79636 0 0 0 0.00446841 -0.0147265 -0.024572 -0.00458813 0.00841897 0.0336686 0.0193543 -0.00374519 0.00419086 0.5 -0.0370755 -0.0612755 -0.114307 0.0169746 0.0609215 -0.0613045 
280 1 4.08806 1.58167 1.13747 0 0 0 0.00198308 0.00715018 0.0151542 0.00528393 -0.0201036 -0.00885559 0.0251823 0.000247629 -0.00487472 0.5 -0.0622465 -0.0326618 -0.0869054 -0.00843231 0.0569215 -0.00167516 
620 2 1.41318 4.38545 0.8572 0 0 1 -0.0236836 -0.023242 -0.00757516 0.00683283 0.0234813 0.0043816 0.0376456 -0.0041615 0.0164931 0.5 -0.00840495 -0.0473452 -0.0987634 0.0100615 0.00574785 0.00690249 
1000 2 3.60391 2.38105 0.316525 0 1 1 -0.0132919 0.0409835 0.0365464 0.0251359 -0.0526681 -0.0205916 0.0179136 -0.00259549 -0.0101588 0.5 -0.0167975 -0.0467123 -0.00561423 -0.0149679 -0.00161539 -0.00704344 
103 1 3.2902 3.67873 0.662224 0 0 1 -0.0157287 0.0205026 0.062948 0.0256804 -0.0362273 -0.055488 0.0233187 0.0010312 -0.00416123 0.5 0.0319966 0.0102197 0.0106508 -0.0105419 0.00120687 -0.0051905 
622 2 0.953547 4.78872 0.0659372 0 0 1 -0.0305298 0.0440845 0.0306704 0.00448792 -0.0485069 -0.0260085 0.045131 -0.00367621 0.00601587 0.5 0.000384586 0.00867242 -0.0520989 0.00503436 -0.0159951 0.0017414 
506 2 0.755464 1.47699 1.22227 0 0 0 -0.0120726 -0.0494243 -0.0686184 -0.00747767 0.055879 0.0555427 0.0271503 0.00288424 0.0242919 0.5 -0.025113 -0.0760702 0.00616136 0.115323 0.04087 -0.0517905 
626 2 1.30946 3.4244 0.583115 0 0 1 -0.0415934 -0.0120055 -0.0316838 0.0517651 0.0107477 0.02835 0.00672907 -0.015436 0.0165622 0.5 -0.0362669 -0.0592567 -0.0135422 0.0301149 0.0305423 -0.0285015 
553 2 0.732833 0.0989039 1.61975 0 0 0 0.0286273 -0.0407617 -0.101619 -0.0347002 0.0430196 0.0997992 0.0166436 -0.00491796 0.0138042 0.5 0.0110737 0.0142174 -0.00289226 0.000165032 -8.60412e-05 -0.00561111 
135 1 1.54122 3.23463 1.68803 0 0 0 0.00687694 -0.0580494 -0.0204891 0.00360448 0.0720432 0.0170814 0.00583427 -0.0306847 0.0127189 0.5 0.00771804 -0.153448 -0.0196582 0.0399548 0.0200151 -0.0178822 
624 2 4.32289 4.93341 1.43171 0 0 1 0.00185266 -0.0154464 0.0768314 -0.000317086 -0.000793619 -0.0848106 0.0203284 0.00758424 0.0062488 0.5 0.00452618 0.0183907 -0.0215921 0.0041411 -0.00964538 -0.0393092 
256 1 4.58745 1.35839 0.300378 0 0 0 -0.00491109 0.0208993 0.00733817 0.00926553 -0.0272798 -0.00400939 0.0273736 0.0105077 -0.0117629 0.5 -0.0445247 -0.0731124 -0.143297 -0.0444482 0.0386893 -0.0273076 
260 1 3.31943 0.0744034 1.04416 0 0 0 -0.00251072 -0.00716793 -0.0336111 0.00289181 0.00921429 0.03735 0.0121159 0.0133581 -0.0105677 0.5 -0.0543342 -0.0894979 -0.0858078 -0.0170648 0.0303543 -0.0462265 
616 2 3.18522 4.49819 1.47117 0 0 1 0.00509125 -0.0236401 0.0654091 0.0083421 0.0150279 -0.0629427 0.0118325 -0.00346064 0.00657993 0.5 -0.0237953 -0.00870429 -0.00830537 0.017436 0.0122439 -0.00476131 
106 1 1.73718 2.26606 1.53497 0 0 1 0.0201792 -0.0571449 -0.00949967 -0.0392336 0.0644056 0.0113486 0.0277593 -0.0122839 0.00561284 0.5 -0.0102837 -0.0869321 -0.00311592 0.0309049 0.053596 -0.00737772 
157 1 1.39086 4.21118 1.84198 0 0 0 -0.00792974 -0.0611875 -0.0147085 0.0102265 0.0734372 0.0135867 0.0199541 -0.00287493 0.00336064 0.5 -0.0460842 -0.109404 -0.10682 0.0131058 0.045554 -0.0317973 
516 2 2.34328 0.872844 0.708375 0 0 0 0.00935524 0.0340596 -0.0417183 -0.0149528 -0.0313488 0.0491304 -0.00523204 -0.0258127 -0.00787722 0.5 -0.00249714 -0.00131917 -0.00505212 0.000596565 0.0366095 -0.0229993 
183 1 0.441301 4.62986 0.995933 0 0 0 -0.0519401 -0.124309 -0.0300102 0.03742 0.109561 0.0293669 0.00541015 -0.0135582 0.0613713 0.5 0.00197327 -0.0125733 -0.00128811 0.0144425 0.00490414 -0.00339187 
625 2 0.415356 3.91086 0.219327 0 0 1 -0.0214009 0.0240419 -0.000740172 0.0149858 -0.00627205 0.00168346 0.0447137 -0.00630585 0.00444786 0.5 0.0015755 0.0164723 -0.000470817 0.00438585 -0.00298237 -0.00233691 
91 1 2.22007 4.74735 1.68157 0 0 1 -0.00596083 -0.0536205 0.0244847 0.0166633 0.0488472 -0.0360079 0.0118919 -0.0259197 0.00691994 0.5 -0.0396964 -0.0301662 -0.00820274 -0.0127707 0.0207588 -0.00029455 
257 1 4.93613 2.70862 1.68357 0 0 0 0.00279985 -0.0276728 0.0407403 0.00433853 0.0248927 -0.032811 0.0224855 0.00362039 -0.000952149 0.5 0.0161227 -0.0534516 -0.132878 -0.0117752 -0.00570749 -0.0442709 
4 1 3.71971 1.14316 1.95723 0 0 0 0.00171122 -0.0203723 0.00032879 0.00190648 0.00817295 0.00394488 0.0255261 0.00168496 -0.00138003 0.5 0.00610015 0.0166545 -0.0218989 -0.0334966 0.0223914 0.0306702 
522 2 2.58747 2.52865 1.99687 0 0 0 -0.00561157 -0.0297387 0.0262275 0.000508975 0.0140989 -0.0374979 0.0200371 -0.00982372 0.016832 0.5 -0.0354517 0.00709801 0.0295647 0.0367995 0.0643174 -0.00738813 
117 1 3.12455 1.31457 1.15462 0 1 0 0.00169028 0.00716517 -0.000554021 0.00661414 -0.0237148 0.00188447 0.029321 -0.00851276 -0.000740015 0.5 -0.00362152 -0.00553076 0.0211884 -0.00557893 0.03017 0.00769954 
511 2 1.08721 2.22614 0.248552 0 0 0 -0.011182 0.0454608 -0.039474 0.00812611 -0.0408699 0.0482645 0.0510197 0.00136537 -0.00387305 0.5 -0.0160458 -0.0805519 -0.186414 0.0373039 0.104938 -0.0725687 
911 2 0.488635 0.568784 0.744775 1 0 0 0.0113385 -0.00384205 -0.0782637 -0.0127838 -0.000577696 0.0718686 0.00809507 0.0103462 -0.0161579 0.5 0.0141707 0.00615481 -0.00164685 0.00529089 0.0084729 -0.0036403 
668 2 0.00292983 3.87167 1.92768 0 0 0 -0.00977141 -0.0929642 0.00830105 0.0200048 0.0935142 -0.0133211 0.000817882 0.0191549 0.00500634 0.5 -0.0431279 -0.127585 -0.0494253 0.0429968 0.00502303 -0.0178523 
90 1 2.95042 4.576 0.37927 0 0 1 -0.0180899 0.0207508 0.0661177 0.0251165 -0.0371528 -0.0549062 0.0195335 -0.0164206 -0.00293765 0.5 0.0401319 0.0190093 0.00693807 0.0263333 0.0389851 0.0064805 
734 2 4.13667 3.22965 0.336607 0 1 1 -0.00593479 0.0348015 0.0605488 0.0135374 -0.0436385 -0.0473054 0.0236856 0.000846629 -0.00950363 0.5 0.0113548 -0.0204356 0.00361138 -0.027409 -0.00126297 -0.00545831 
672 2 0.0825776 2.02895 1.71576 0 0 0 -0.0169417 -0.0803559 -0.0440473 0.000499003 0.0839798 0.0363267 0.0275645 0.0011076 0.0127746 0.5 -0.128285 -0.143597 -0.07465 0.0570126 0.0764375 0.00826413 
759 2 4.95168 2.04404 0.936536 0 0 0 0.0111257 -0.00679831 0.0223156 -0.011072 0.00659483 -0.0171041 0.0283059 0.00861294 -0.00214681 0.5 -0.014241 -0.101835 -0.0209805 -0.0381431 0.00439712 -0.059477 
609 2 2.00275 4.75547 0.108399 0 0 1 -0.00968442 0.0315837 0.0428648 0.0221474 -0.0573121 -0.044045 0.0241949 -0.0231483 0.00533917 0.5 -0.0518333 -0.319845 -0.0337482 0.0924157 0.0393214 -0.0622283 
868 2 2.87205 2.99278 0.00795828 0 0 1 -0.00823633 0.0425586 0.0295762 0.0133399 -0.0645248 -0.015 0.0263232 -0.00791009 0.00273643 0.5 -0.0160662 -0.0575949 0.00808144 0.0411113 0.00939599 -0.00245354 
21 1 1.84696 0.389511 2.46762 0 0 0 0.00915534 -0.0582003 -0.0690037 -0.0357434 0.0550854 0.0726345 0.00908474 -0.0141087 0.0126104 0.5 -0.0279603 -0.00682321 -0.00188976 0.0213479 0.00114181 -0.00798913 
682 2 2.72755 4.10445 2.74755 0 0 0 0.000775908 -0.0350126 0.0430905 0.00670511 0.0319615 -0.0375785 0.00636638 -0.00581943 -0.00450101 0.5 -0.0474995 -0.0523239 -0.038485 0.000116114 0.0713306 0.0336806 
907 2 0.975887 4.66184 2.63234 1 0 0 0.00840015 -0.0629377 -0.00505292 -0.00403868 0.0588637 0.0139681 -0.00332157 -0.00539349 0.00639048 0.5 -0.085039 -0.129607 -0.0970764 0.0198353 0.0627772 -0.0376426 
144 1 1.67654 3.63325 2.80771 0 0 0 0.0105928 -0.0556111 0.0102094 -0.0151302 0.0490882 0.00030286 0.00730864 -0.0122237 0.00149851 0.5 0.00663237 -0.0133455 0.00906022 0.00393352 0.0162921 -0.000277701 
675 2 2.8129 4.76087 3.51973 0 0 0 0.0315021 -0.0376598 0.0422405 -0.024005 0.0351637 -0.0328412 -0.00433287 -0.00184385 -0.0103473 0.5 -0.00174146 -0.00599999 -0.00853221 -0.000805049 0.00891248 0.00807653 
502 2 4.38135 1.34151 3.26885 0 0 0 0.0157476 -0.0600367 0.00146875 -0.0137709 0.0645812 -0.00513702 0.0120412 0.00346898 -0.00417941 0.5 -0.0719023 -0.0802756 -0.0536537 -0.0456034 0.0186801 0.0404948 
27 1 2.59884 0.326501 3.22664 0 0 0 0.0179612 -0.0454754 -0.0271652 -0.014979 0.0388821 0.0198787 0.00210768 -0.00368482 -0.00121585 0.5 -0.069056 -0.0588492 -0.081608 0.0233631 0.0389212 0.0233696 
965 2 1.33691 3.68918 3.80808 1 0 0 0.0378244 -0.0475912 -0.0186138 -0.0393143 0.0344283 0.0122517 -0.0145272 0.00180865 -0.0164176 0.5 -0.0129387 -0.0563296 -0.0337794 0.0288095 -0.0255112 0.0235572 
61 1 1.65597 0.477423 3.54856 0 0 0 0.0140675 -0.0484885 -0.0507368 -0.017161 0.0437411 0.0273337 -0.0130306 -0.00883893 0.00318003 0.5 -0.0563317 -0.00231299 -0.00611516 0.00475629 0.0315582 -0.00410136 
680 2 1.1943 2.80946 3.35401 0 0 0 -0.00197215 -0.0448873 -0.0107779 -0.0112153 0.0339531 0.00570639 -0.00231982 0.0067738 -0.00326662 0.5 -0.0109875 -0.0241623 -0.0544844 0.00263411 0.0223777 0.00530208 
251 1 4.69417 3.07053 3.86508 0 0 0 0.0323071 -0.079208 0.0632308 0.00617122 0.180757 -0.0898963 0.0181316 0.00729949 -0.0188914 0.5 -0.0558808 -0.0603653 -0.0011831 -0.0689657 0.0227699 0.0361711 
517 2 4.01132 2.9216 2.19758 0 0 0 -0.00991303 -0.0475774 0.0346075 0.0142193 0.0366796 -0.0351102 0.00873547 0.0172785 -0.0176031 0.5 0.0020139 -0.00670758 0.0066479 -0.00291765 0.00618891 0.0013124 
6 1 3.41477 1.7978 2.71736 0 0 0 0.0174943 -0.030283 0.0269542 -0.0229938 0.0276637 -0.027197 0.021047 -0.00292781 0.00165681 0.5 -0.085593 0.00345346 0.0135601 -0.00934754 0.0333421 0.0125936 
519 2 4.42803 3.64317 2.99593 0 0 0 0.00762858 -0.0560306 0.0622172 -0.00771491 0.0547846 -0.0628162 0.00974333 0.00690313 -0.00760415 0.5 -0.0557488 0.00436709 -0.00832295 -0.0143137 0.0322831 -0.00675928 
509 2 1.91536 1.53107 3.65708 0 0 0 0.0444665 -0.0269252 -0.0564858 -0.046258 0.0411852 0.0407744 -0.013524 0.0209648 3.82164e-05 0.5 0.0118749 -0.0116229 -0.0762117 -0.0101392 0.0208978 0.0216562 
142 1 1.03948 1.97431 2.18945 0 0 0 5.533e-05 -0.0572896 -0.0313356 -0.0193597 0.0553563 0.0290492 0.0167387 -0.00287711 0.0127656 0.5 -0.0157343 -0.0275477 -0.0112338 0.0122396 -0.00094994 0.0196135 
941 2 0.20321 2.30843 2.79419 1 0 0 -0.00885086 -0.0905892 -0.0376862 -0.00837065 0.0904315 0.0373132 0.00327769 -0.001942 0.00664604 0.5 -0.0137036 -0.030805 -0.0606252 -0.00396669 0.00810826 0.0129385 
919 2 0.640906 4.3523 3.53271 1 0 0 0.0213277 -0.0601244 -0.00718838 -0.0240888 0.0536593 0.0211228 -0.011051 0.0130682 -0.00666696 0.5 -0.043747 -0.0865644 -0.041486 0.0461055 0.00725745 0.0233145 
95 1 3.53244 3.80202 2.237 0 0 1 0.00883602 -0.0389484 0.0580672 -0.00374049 0.0294839 -0.0528234 0.0154141 -0.000482969 -0.00878475 0.5 -0.0644155 -0.0340054 -0.0274664 0.00109209 0.0227687 -0.0245957 
458 1 1.55317 4.79087 3.8404 1 0 0 0.00267309 -0.0716228 0.0378343 -0.00283304 0.0644528 -0.0325735 -0.00807872 -0.00258666 0.0178072 0.5 -0.00107185 -0.00939684 -0.00604776 0.0112195 0.00408672 -0.00485916 
41 1 1.1389 0.989444 2.04648 0 0 0 0.0124746 -0.0518931 -0.0580012 -0.0332372 0.0520854 0.0432739 0.0224621 0.00242349 0.0135565 0.5 -0.0259813 -0.0220503 -0.00568683 0.0201005 0.0271542 -0.0357685 
814 2 0.26383 1.25655 3.43357 1 0 0 0.0160228 -0.0449582 -0.0497112 -0.0222904 0.0350709 0.0403825 -0.00289602 -0.00868015 0.0171161 0.5 -0.0295864 -0.0603727 -0.0529682 0.0320998 0.00929338 0.0550344 
130 1 1.71389 2.6761 2.51008 0 0 0 -0.0103827 -0.0478645 -0.0155131 -0.00361575 0.0468809 0.00845293 0.00972093 -0.00516043 0.00300434 0.5 -0.0494677 -0.0675254 -0.0685424 0.0271757 0.0444868 0.0289345 
12 1 2.69212 1.11388 2.61729 0 0 0 0.0238363 -0.0317895 -0.00860156 -0.0332841 0.0337363 0.00958849 0.0165215 -0.0124993 0.00238454 0.5 -0.0940021 -0.109503 -0.0791116 0.0308117 0.0349844 -0.0105411 
512 2 3.16906 2.03688 3.77919 0 0 0 0.0370926 -0.00637249 0.0220409 -0.0453464 0.00358352 -0.0395805 0.011509 -0.00624543 0.0075104 0.5 -0.00490818 -0.0183766 -0.00407603 -0.00200932 0.0109311 0.0180985 
151 1 2.47686 3.3278 3.32542 0 0 0 0.00233836 -0.0459898 0.0290637 -0.000179064 0.0406126 -0.0291465 -0.000324132 -0.00369685 0.00893227 0.5 -0.00939562 -0.0983089 -0.0769806 -0.0179632 0.0411575 0.0425274 
667 2 0.283632 1.36356 2.43833 0 0 0 0.0104291 -0.0787522 -0.0527998 -0.0337468 0.0795881 0.0446709 0.00827431 -0.000883317 0.0174747 0.5 -0.0269427 -0.0823126 -0.0599861 0.0102803 0.0109624 0.01958 
38 1 3.77577 0.750314 3.87826 0 0 0 0.0300112 -0.0208394 -0.00937269 -0.0344384 0.0118267 0.0100573 -0.0110215 3.61425e-06 -0.0107477 0.5 -0.0399096 -0.0160945 -0.0684817 -0.0590395 0.0361551 0.0793144 
936 2 0.328218 3.39963 3.51299 1 0 0 -0.00838057 -0.0494812 -0.0125319 -0.00641432 0.0469749 0.0136305 -0.000659178 -0.00818097 -0.00477285 0.5 -0.00411305 -0.0861174 -0.0363367 -0.00209748 0.0293031 0.0567239 
531 2 4.79944 0.842741 2.4819 0 0 0 0.0052275 -0.0577518 -0.00415887 -0.00750159 0.0466322 0.00568183 0.014427 0.00343882 -0.00610787 0.5 -0.0249599 -0.0211545 -0.0644882 -0.0231471 -0.0368334 -0.0371328 
527 2 4.00956 4.33983 3.57862 0 0 0 0.0373747 -0.0428048 0.0678442 -0.0235106 0.0274926 -0.0435992 -0.000707695 -0.00251105 -0.00718547 0.5 -0.157192 -0.0756984 -0.0371941 -0.0696824 0.0681672 0.0407792 
383 1 4.35997 4.3632 2.25324 0 0 1 0.00507459 -0.0335485 0.0647755 -0.00570535 0.0323704 -0.0626935 0.0144467 0.00415612 -0.00327783 0.5 -0.0542948 0.000737051 0.0309072 -0.0121414 -0.00085116 -0.0286867 
992 2 0.682028 0.465642 3.88771 1 1 0 0.0282158 -0.0373915 -0.0566505 -0.0318101 0.0223075 0.0406728 -0.0120386 0.0061958 0.00460107 0.5 -0.0436192 -0.107288 -0.01288 0.0295688 -0.0117506 0.0515385 
521 2 4.91778 4.54839 3.21178 0 0 0 0.0377215 -0.0414256 0.073809 -0.0361971 0.0494138 -0.0705983 -0.000283957 0.0122568 0.00369267 0.5 -0.0594551 0.0117015 0.0102053 -0.0294217 -0.00538028 0.0454006 
136 1 1.88316 1.70072 2.65135 0 0 0 0.0101391 -0.0485273 -0.0445498 -0.0217411 0.0473044 0.0284414 -0.00365598 0.00949544 0.0111464 0.5 -0.0918285 -0.0844783 -0.0648766 0.0580659 0.00856387 0.0163654 
540 2 4.50299 0.208357 3.41821 0 0 0 0.017465 -0.052272 -0.00506872 -0.0186566 0.0478817 0.00266576 -0.0003048 0.00422767 -0.013314 0.5 0.0163031 0.0110777 0.00652448 -0.0133641 -0.00660588 0.00941389 
510 2 3.84541 2.59195 3.1475 0 0 0 0.0215756 -0.0401703 0.0419726 -0.0255399 0.0359817 -0.042282 0.00436391 0.00762224 -0.00185148 0.5 0.0375299 0.0391445 -0.00162913 -0.0188371 0.00603889 0.0165059 
19 1 4.35853 1.85678 2.39207 0 0 0 0.0179256 -0.0232335 0.0293837 -0.0219254 0.0403644 -0.0213068 0.0238279 0.00252446 -0.00947382 0.5 -0.112271 -0.00377853 -0.0481225 0.00418635 0.0534102 0.00552851 
543 2 1.06425 1.81449 3.21387 0 0 0 0.0224795 -0.0456799 -0.0271348 -0.0320323 0.0383407 0.0148178 0.00815007 0.0115481 0.00724461 0.5 -0.00363309 -0.00839354 -0.00262004 -0.0102553 0.0238666 0.00790946 
773 2 4.77971 2.25854 3.28745 0 0 0 0.0163734 -0.06093 0.0346506 -0.0269867 0.0786456 -0.0176931 0.00958418 0.00882219 -0.00713604 0.5 -0.0541242 -0.130011 -0.158531 -0.0702597 0.0765015 0.127198 
555 2 2.22457 2.53393 3.87868 0 0 0 0.0321442 -0.0483076 0.039343 -0.0400008 0.0427511 -0.0449772 -0.0045328 0.000140208 0.0071386 0.5 -0.00927024 -0.0037152 0.00904359 -0.0136507 0.0138331 0.0359339 
429 1 0.317517 2.43499 3.77954 1 0 0 -0.0121213 -0.0562185 -0.0417077 -0.00822229 0.0537722 0.0413379 -0.000797711 -0.00193142 0.0130878 0.5 -0.00243346 -0.134304 -0.0838362 0.0239316 -0.0149396 0.0822569 
316 1 0.882966 0.549705 2.90777 1 0 0 0.0205576 -0.0644973 -0.0617199 -0.0301925 0.0565236 0.0455104 -0.00307064 -0.0053003 0.0107209 0.5 0.0116451 0.00364806 0.0318327 0.0104885 0.00177498 -0.00559927 
503 2 3.60988 0.793794 2.88999 0 0 0 0.016876 -0.0440017 -0.00740683 -0.0263571 0.039517 0.011418 0.00816134 0.0055641 -0.00131026 0.5 -0.0256489 0.00424815 -0.0344222 -0.00995436 -0.00826477 0.00481105 
896 2 0.69339 3.70258 2.631 1 0 0 0.0130684 -0.0643131 -0.00722276 -0.0160969 0.0623766 0.013363 -0.00518652 0.00130054 0.000701826 0.5 -0.00919836 -0.0717259 -0.0687102 -0.00449572 0.0101158 -0.00176849 
690 2 1.93662 4.69499 2.90781 0 0 0 -0.0034557 -0.0379863 0.033368 0.00736005 0.0294326 -0.0270008 0.00994506 -0.0159001 0.0116178 0.5 -0.0458742 -0.0129869 -0.00308453 0.02627 0.0162404 -0.00438883 
641 2 3.45534 3.52362 3.19488 0 0 0 0.00479265 -0.0412762 0.0572419 -0.00306214 0.0355263 -0.0513289 -0.00199478 0.00183243 0.000451423 0.5 0.00356092 0.038285 0.0288337 -0.0317944 0.015903 0.0131982 
528 2 3.33152 4.82486 2.4061 0 0 0 0.0152731 -0.0358144 0.0680152 -0.0024737 0.0260585 -0.0653569 0.0191902 0.00630638 -0.00908579 0.5 -0.00317013 -0.0163492 -0.0143597 -0.0136254 0.00653249 0.0100006 
225 1 2.66698 2.40569 2.98651 0 0 1 0.00690111 -0.0427332 0.0242813 -0.0174847 0.038264 -0.0339769 -0.000116319 0.0115511 0.014772 0.5 -0.00590831 -0.0394259 0.0543931 0.0210759 0.00243913 -0.0158416 
119 1 0.626802 2.87743 2.07004 0 0 0 -0.0161026 -0.0617524 -0.00752734 0.00391804 0.0628925 0.0106527 0.0149955 0.00505455 0.00811538 0.5 0.0037873 -0.0629129 -0.110812 0.00837896 0.0335226 -0.0285183 
200 1 2.44094 0.221801 4.20852 0 1 0 0.043158 -0.0193961 -0.0205426 -0.0388494 0.0165804 0.0211743 -0.0199582 -0.0103705 0.00681571 0.5 -0.0373447 -0.0273083 -0.0684654 -0.00368493 0.0282903 0.0198568 
114 1 4.69241 1.02374 4.16982 0 0 0 0.0314387 -0.0382561 0.00248547 -0.0383353 0.0388136 -0.00382708 -0.000541358 0.00134721 -0.00630824 0.5 -0.0254866 0.00774938 -0.0252332 0.00333536 -0.0228413 0.00448836 
820 2 1.30526 2.31167 4.21417 1 0 0 0.0127199 -0.028289 -0.00305098 -0.0199322 0.0185716 -0.00243461 -0.0116177 -0.0141247 0.00736128 0.5 -0.0237342 -0.0166062 -0.0404792 0.00152959 0.0208623 0.0348876 
47 1 4.62625 1.60051 5.42717 0 0 0 0.0592718 -0.0374047 0.0157234 -0.0879553 0.0512842 -0.0264016 0.0125886 0.00925785 0.00627148 0.5 -0.0504448 -0.0459137 -0.0259553 -0.012938 -0.0292975 0.0323456 
824 2 1.63678 3.81987 5.76701 1 0 0 0.0296052 0.031693 0.0451715 -0.0434793 -0.0508429 -0.0472927 -0.0368141 -0.00219008 -0.0134364 0.5 -0.0249217 -0.0157543 -0.0593433 -0.0190295 0.0201446 0.017723 
172 1 3.42478 0.332837 4.71748 0 1 0 0.0311732 0.0118415 0.00552717 -0.0258731 -0.0213761 -0.0026654 -0.0172971 -0.00686485 -0.00221725 0.5 -0.0407662 -0.040932 -0.119484 -0.0360731 0.03103 0.0532251 
718 2 0.198121 2.02679 5.51724 0 1 0 0.00674798 0.0224831 -0.0104464 -0.000883759 -0.0212362 0.0110193 -0.0155118 0.00127736 0.00275033 0.5 -0.0607111 0.00896431 -0.0243171 0.0377195 -0.04591 0.100491 
505 2 0.482573 3.45906 5.81849 0 0 -1 0.0137605 0.0806981 0.0182818 -0.0300943 -0.0708301 -0.003422 -0.00405776 -0.00829738 0.0149371 0.5 -0.022208 -0.131215 -0.0707031 0.00370262 -0.0122125 0.0994485 
524 2 3.95622 2.72773 5.6618 0 0 0 0.0558593 0.00375787 0.0710251 -0.037136 0.00950489 -0.0500826 -0.00241197 0.0184848 0.00866018 0.5 0.00081478 0.0180364 0.00576044 -0.00670883 -0.00928404 0.00949055 
839 2 0.568626 1.64367 4.33695 1 0 0 0.023286 -0.0473719 -0.0450135 -0.0378386 0.0462793 0.0426898 -0.0108662 -0.00799358 0.0228347 0.5 -0.018383 -0.122699 -0.0796738 0.0362064 0.000561257 0.103287 
937 2 2.43091 3.41085 4.32149 1 0 0 0.0225363 -0.0381819 0.0286678 -0.0206139 0.0307221 -0.0288369 -0.00840659 -0.0107638 0.00181749 0.5 -0.109104 -0.000438489 -0.0871567 -0.0392513 0.0623918 0.0644292 
811 2 2.59209 3.95164 5.50054 1 0 0 0.0335354 -0.00542027 0.0420514 -0.0445325 -0.0131576 -0.0314077 -0.00879825 -0.0120964 -0.0132447 0.5 -0.0368191 -0.0461205 -0.017318 -0.037844 0.00927423 0.0346312 
827 2 1.51527 3.19982 4.6636 1 0 0 0.00841148 -0.0270667 -0.00207462 -0.00637533 0.0203307 -0.00137402 -0.0200957 -0.0217162 -0.0153813 0.5 -0.106576 -0.0383601 -0.104251 -0.0162059 0.039389 0.0588173 
149 1 4.03952 3.94292 4.58626 0 0 0 0.0299055 -0.0179018 0.0557751 -0.0263895 0.0168805 -0.053338 0.00445876 0.00716869 0.00383482 0.5 -0.0176562 -0.0195708 0.0219879 0.0196406 0.0149129 0.0298729 
925 2 0.608366 3.60043 4.53314 1 0 0 0.0241101 0.00272626 -0.0200067 -0.0185407 -0.00654216 0.00888229 -0.0179762 -0.0024738 -0.00996824 0.5 -0.0620285 -0.0231257 -0.00732177 0.019603 -0.0283663 0.0175662 
168 1 3.31743 4.6099 5.29469 0 0 0 0.0426462 -0.00997412 0.0643475 -0.065392 0.00327927 -0.057183 -0.00477305 -0.00267616 0.00872464 0.5 -0.0718682 -0.0500295 -0.0658186 -0.0199383 -0.0130955 0.0347588 
928 2 1.56796 4.40811 4.96056 1 0 0 0.0100996 0.00482632 0.0279774 -0.00861035 -0.0115958 -0.021582 -0.0239947 -0.00556209 -0.0188984 0.5 -0.0866669 -0.0604372 -0.0572149 -0.0449476 0.0554172 0.0323928 
148 1 3.92568 3.73484 5.69914 0 0 0 0.0273976 0.00462487 0.0806186 -0.0295211 0.0086944 -0.0775581 -0.0163285 -0.0139197 0.0157952 0.5 0.00821699 0.0463897 0.0211 0.0220881 0.017643 0.0217607 
914 2 4.68393 4.39808 5.20136 0 0 0 0.022621 -0.0329098 0.0753583 -0.0293956 0.0453364 -0.0731961 -0.0100879 -0.00828822 -0.0146399 0.5 0.0180936 0.00995263 0.037333 -0.00375798 0.0123575 0.0259321 
23 1 2.86406 1.12907 4.07131 0 0 0 0.0311411 -0.0160542 -0.0156807 -0.0371301 0.0148903 -0.00278848 0.00558971 -0.00828982 -0.00290862 0.5 -0.0360151 -0.0311596 -0.0232771 -0.0223047 0.00929159 0.0188009 
594 2 2.04078 1.95889 4.80261 0 0 0 0.0305993 0.0174614 -0.00245151 -0.0343516 -0.00443295 0.00647246 0.00388436 -0.0152091 0.0087948 0.5 -0.0102743 -0.0550124 -0.0173257 0.0184843 -0.00909928 0.0259535 
539 2 3.76298 1.02898 5.45316 0 0 0 0.0478882 0.0135555 0.0241509 -0.0610309 -0.0123213 -0.0239301 -0.00359495 0.00552351 -0.0109607 0.5 -0.0253703 -0.16772 -0.0791498 -0.0453691 -0.0472374 0.129785 
730 2 0.452807 1.11031 5.17485 0 1 0 0.0114924 0.0135802 -0.00778343 0.000313582 -0.0147004 0.00570668 -0.00810746 0.00693528 0.0128171 0.5 0.0514077 -0.0211145 -0.0472705 -0.0245608 -0.0126679 0.0766732 
689 2 3.51119 0.0913984 5.69563 0 1 0 0.01175 0.0189591 -0.00154137 -0.00226852 -0.0206603 0.00383277 -0.00904849 -0.0157285 -0.0197546 0.5 -0.0459593 -0.190658 -0.129424 -0.0236822 0.00829575 0.123377 
450 1 0.586468 4.80724 4.47551 1 0 0 0.0671365 -0.00295047 -0.0267539 -0.0478262 0.00592345 0.0438218 -0.0564445 0.00736663 -0.0236999 0.5 -0.0159358 -0.0288445 -0.079667 0.0190621 -0.0319159 0.0432551 
549 2 4.49578 0.509468 5.00795 0 0 0 0.0155466 -0.0233041 0.00862794 -0.0256372 0.0293603 -0.00787773 -0.00461462 0.00883932 -0.0188282 0.5 0.0415865 0.0542578 0.0281456 -0.0206967 -0.0245161 0.0282543 
591 2 1.42426 1.13445 4.43388 0 0 0 0.0455943 -0.00958164 -0.0479796 -0.05997 0.005075 0.0148865 -0.013215 0.0017597 0.00704467 0.5 -0.0247276 -0.0579671 -0.071641 0.0117987 0.0138427 0.0489732 
243 1 1.20073 1.81939 5.3623 0 1 0 0.000715973 0.0315397 -0.044747 0.0102358 -0.0202767 0.0598419 -0.00406606 -0.00541518 0.00955583 0.5 -0.0263618 -0.0451336 -0.0258789 -0.00271775 -0.00122143 0.0369758 
646 2 3.71937 3.13619 4.07824 0 0 0 0.0346402 -0.0217144 0.0567837 -0.0076879 0.0159522 -0.0566674 -0.00246759 0.00635028 -0.00702765 0.5 -0.0262339 -0.0996085 -0.024992 0.0136138 0.0115654 0.050155 
374 1 0.573827 2.63487 4.81725 1 0 0 0.0115431 0.00467415 -0.0225433 -0.010472 -0.00440084 0.0202683 -0.0172825 -0.0154895 -0.00479186 0.5 -0.0157722 -0.0268305 -0.0183849 -0.0147699 0.0176129 0.0223788 
418 1 0.653624 4.33186 5.35961 1 0 0 6.63747e-05 0.0812323 0.0171777 0.00773567 -0.0754191 -0.0013949 -0.0316425 -0.0135101 -0.0184769 0.5 -0.0518916 -0.0854664 -0.0837898 -0.0325647 0.0298248 0.0546668 
190 1 2.17237 2.42036 5.99922 0 1 0 -0.0174124 0.044124 0.0480549 0.0172619 -0.0564752 -0.041843 -0.00776874 -0.0232917 -0.0105031 0.5 -0.00219181 -0.0329752 -0.0611298 -0.00352934 0.0147931 0.0606719 
507 2 3.66543 1.48873 4.5687 0 0 0 0.0140694 -0.025875 0.0102792 -0.0415356 0.00828204 -0.00196285 0.0103111 -0.00238938 -0.000541417 0.5 -0.0434821 -0.0388481 -0.0897485 -0.0558972 0.0163606 0.138424 
155 1 4.85332 3.42526 4.85477 0 0 0 0.0328733 -0.0222553 0.035973 -0.0231611 0.0324166 -0.0308855 -0.00611161 0.00856204 -0.00177082 0.5 -0.0233247 -0.0771676 -0.105105 0.00990509 -0.0265563 0.0869517 
573 2 2.48048 2.83287 5.13751 0 0 0 0.0357408 -0.0110272 0.0458025 -0.0427609 0.0223122 -0.0319231 -0.0166635 -0.0201073 -0.0101897 0.5 -0.0163502 -0.0636217 -0.0715575 -0.0314736 0.0318279 0.0616695 
678 2 3.19811 3.9906 4.04717 0 0 0 0.0262449 -0.0282557 0.059676 -0.0243027 0.0201822 -0.0541594 -0.00368653 -0.0069149 -0.00056206 0.5 -0.162212 -0.0913273 -0.0182723 -0.0258654 0.103296 0.0487502 
513 2 3.44832 2.44823 4.75144 0 0 0 0.029915 -0.028672 0.0478267 -0.0273922 0.0276854 -0.0446897 0.00898675 0.00503562 -0.0102703 0.5 -0.0139911 -0.000390448 -0.082294 -0.0315196 0.0280752 0.102595 
180 1 2.37405 4.4556 4.37069 0 0 0 0.020585 -0.0244519 0.0398899 -0.02284 0.0126077 -0.0379329 -0.0190474 -0.00826436 0.00127879 0.5 -0.0704906 0.00602717 -0.0427997 0.0170294 0.0528549 0.00294339 
154 1 3.29037 3.41973 4.99251 0 0 0 0.0471122 -0.0268093 0.0760901 -0.0448848 0.0295073 -0.0724065 -0.00718315 -0.0056924 0.00352045 0.5 -0.0183121 0.0195042 0.0275974 -0.0253901 0.015331 0.0353493 
740 2 1.28699 2.79808 5.55042 0 1 0 -0.0269258 0.0227182 0.0114551 0.0287249 -0.00990673 -0.00877584 -0.0193949 -0.0209028 0.00788903 0.5 -0.00697029 -0.0501722 -0.0953057 -0.0100531 0.0171063 0.0549946 
657 2 4.08074 4.71638 5.93452 0 0 0 0.0356432 0.0146255 0.0660601 -0.0485832 0.00505354 -0.0736477 -0.0293631 -0.00664103 -0.00669313 0.5 -0.0485322 -0.0485779 -0.0410938 -0.00166178 -0.0528996 0.0506801 
187 1 2.43518 1.05542 4.97824 0 1 0 0.0404006 0.0211596 -0.0103931 -0.0238117 -0.00147666 0.00486389 -0.00945249 -0.00647509 0.000380689 0.5 -0.00949805 -0.0612959 -0.0321901 -0.00678849 0.00493536 0.0474115 
127 1 3.20583 1.85976 5.52272 0 0 0 0.0222647 -0.00794335 0.0612862 -0.0191283 0.0186575 -0.04893 -0.0307611 0.00037666 0.00311044 0.5 -0.00834683 -0.0530008 -0.0946491 -0.00724081 0.0179018 0.048081 
708 2 1.36441 0.776248 5.41605 0 1 0 0.0341822 0.0352292 -0.0617123 -0.0323325 -0.0439063 0.0773087 -0.0134703 -0.00731812 0.00474002 0.5 0.0618334 0.0127143 -0.0367966 -0.014753 0.0136921 0.066213 