ITEM: TIMESTEP
185000
ITEM: NUMBER OF ATOMS
1000
ITEM: BOX BOUNDS xy xz yz pp pp pp
0.0000000000000000e+00 1.0000000000000000e+01 0.0000000000000000e+00
0.0000000000000000e+00 1.0000000000000000e+01 0.0000000000000000e+00
0.0000000000000000e+00 1.0000000000000000e+01 0.0000000000000000e+00
ITEM: ATOMS id type x y z ix iy iz vx vy vz fx fy fz omegax omegay omegaz radius c_2[1] c_2[2] c_2[3] c_2[4] c_2[5] c_2[6] 
120 1 3.15852 1.54146 0.0722925 0 1 0 -1.61194e-08 4.23013e-08 2.86317e-08 1.46336e-08 -3.63035e-08 -2.51046e-08 2.53829e-08 2.8448e-09 -1.55211e-08 0.5 -2.132e-08 -1.11488e-07 -1.01441e-08 -1.23326e-08 -5.11133e-09 -2.65185e-08 
525 2 2.11627 1.23431 1.69988 0 0 0 -3.57077e-08 -9.78095e-08 -7.08359e-08 2.95229e-08 8.33336e-08 6.24364e-08 -1.04152e-08 5.29924e-09 2.95108e-08 0.5 1.45726e-09 -6.85782e-09 3.98967e-09 8.57767e-09 4.43786e-09 -2.85146e-09 
371 1 4.95931 3.68326 1.58374 0 0 1 2.19029e-08 -4.14281e-08 6.27097e-08 -1.87998e-08 3.69159e-08 -5.50749e-08 5.01354e-09 -3.11283e-09 3.16762e-09 0.5 -1.29198e-08 -5.72799e-08 3.85702e-08 -6.719e-09 -6.64435e-09 7.50802e-09 
18 1 1.98117 2.69195 0.532518 0 0 0 -1.77427e-08 -1.28622e-09 6.72909e-08 1.45856e-08 9.16754e-10 -5.79189e-08 4.196e-08 -1.43345e-08 1.31715e-08 0.5 -3.24279e-08 -8.21148e-08 -4.84815e-08 6.58438e-08 3.15768e-08 -3.83572e-08 
868 2 2.87004 3.00634 0.028912 0 0 1 1.03295e-08 -8.43654e-09 5.94286e-08 -8.0138e-09 7.15418e-09 -5.17987e-08 3.57934e-08 -6.70908e-09 1.47976e-08 0.5 -5.28886e-08 -8.48108e-08 -1.81333e-08 6.29551e-08 -7.92703e-10 3.44153e-09 
25 1 1.41548 0.708705 1.0832 0 0 0 -1.47979e-08 -3.23175e-08 -7.30484e-08 1.25191e-08 2.66673e-08 6.48191e-08 3.00936e-08 -7.83728e-09 1.73357e-08 0.5 -2.65847e-08 -1.808e-07 -9.95557e-08 6.39969e-08 5.06933e-08 -7.86779e-08 
378 1 4.61919 2.40719 0.0725815 0 0 1 3.30758e-09 2.60827e-08 4.71285e-08 -2.51341e-09 -2.15603e-08 -4.15758e-08 4.03753e-08 1.04483e-08 -7.64203e-09 0.5 -2.24369e-08 -5.92957e-08 -3.37001e-08 -7.99279e-09 -8.13136e-09 -4.72021e-08 
8 1 3.44143 2.06796 1.74253 0 0 0 -1.11418e-09 -4.63401e-08 1.98193e-08 5.06777e-10 4.02915e-08 -1.77902e-08 3.38496e-08 -9.31015e-09 6.47579e-09 0.5 9.79698e-09 1.33363e-09 1.47032e-08 1.39345e-08 1.37986e-09 1.1262e-08 
629 2 4.07713 2.6156 1.19812 0 0 1 1.21497e-08 -2.36508e-08 5.78179e-08 -1.08459e-08 2.10318e-08 -5.01987e-08 3.89159e-08 -9.64505e-09 8.10352e-10 0.5 -6.18673e-08 -1.76117e-08 -5.55111e-08 8.04642e-09 -3.87665e-08 -2.06788e-08 
5 1 2.34651 3.9005 1.05345 0 0 0 -7.9772e-09 -7.72697e-08 7.7626e-08 7.35411e-09 6.68765e-08 -6.6911e-08 2.41117e-09 5.49703e-09 1.59098e-08 0.5 -5.74097e-09 -9.15652e-09 -1.33329e-08 1.09426e-08 3.63444e-09 -3.0474e-09 
650 2 0.459129 3.43666 1.12967 0 0 0 -4.56928e-08 -7.69498e-08 1.01885e-08 3.92006e-08 6.50499e-08 -7.015e-09 4.45169e-08 5.24562e-09 5.92601e-10 0.5 -6.30976e-08 -7.21714e-08 -7.62939e-08 5.05362e-08 5.30656e-08 -3.43335e-08 
14 1 3.29515 3.13364 1.54473 0 0 0 3.43555e-09 -4.11007e-08 6.42686e-08 -3.05986e-09 3.65085e-08 -5.5775e-08 1.20545e-08 7.84296e-09 4.96758e-09 0.5 -4.74313e-09 -1.69604e-08 -3.08056e-08 2.38398e-08 -3.09472e-09 -1.62741e-08 
264 1 3.99643 3.86789 1.37953 0 0 0 2.1012e-08 -4.7052e-08 6.30472e-08 -1.80658e-08 4.17016e-08 -5.52134e-08 1.85155e-08 4.32289e-09 2.59304e-09 0.5 -1.68973e-08 -6.13691e-10 -3.3323e-08 2.07603e-08 3.58458e-09 -5.16942e-09 
223 1 0.747634 2.47805 1.14565 0 0 1 -4.59256e-08 -7.58277e-08 1.05772e-08 3.89623e-08 6.39328e-08 -7.86349e-09 4.56535e-08 -1.80391e-08 6.77133e-09 0.5 -3.31799e-08 -8.02385e-08 -1.91773e-07 2.65164e-08 7.67279e-08 -4.75534e-08 
364 1 4.4227 4.23693 0.53984 0 0 1 5.16774e-09 1.88267e-08 8.38749e-08 -3.00864e-09 -1.57945e-08 -7.2985e-08 2.36498e-08 -2.16757e-09 1.12899e-08 0.5 9.40615e-10 7.08764e-09 -1.7515e-10 2.51051e-09 1.37893e-08 -1.08091e-08 
107 1 1.66076 1.61825 0.747451 0 0 1 -3.43184e-08 -1.34628e-08 -3.50867e-08 2.88967e-08 1.05261e-08 3.20332e-08 4.61899e-08 -3.30828e-09 4.96382e-09 0.5 3.36391e-08 -4.15588e-08 -4.08479e-08 -2.47964e-09 4.67263e-10 -2.63483e-08 
529 2 2.67265 2.1996 1.06195 0 0 0 1.32207e-09 -2.64143e-08 1.85476e-08 -2.1116e-09 2.24361e-08 -1.57397e-08 4.19682e-08 2.47259e-10 1.08728e-08 0.5 -1.23492e-08 -2.90714e-08 -3.43528e-08 2.09644e-08 -1.07533e-08 6.74233e-09 
515 2 4.38643 0.435908 1.64385 0 0 0 5.01435e-09 -4.89474e-08 -2.92853e-08 -4.09783e-09 4.27257e-08 2.42094e-08 2.53124e-08 -1.77076e-09 5.10427e-09 0.5 -1.18905e-08 -2.7905e-08 -5.53799e-08 -4.87291e-08 5.90943e-09 1.13973e-08 
244 1 4.11373 0.570462 0.682724 0 1 1 6.02589e-09 1.15468e-08 -1.93606e-08 -4.96766e-09 -9.03158e-09 1.5736e-08 3.67408e-08 1.10611e-08 5.64819e-12 0.5 -1.92565e-08 -1.68853e-08 -5.21985e-08 -4.32991e-09 1.24088e-08 7.65699e-09 
20 1 2.90179 0.570818 1.78382 0 0 0 3.00883e-09 -4.42364e-08 -3.78664e-08 -2.78708e-09 3.8107e-08 3.2251e-08 1.6646e-08 -1.10838e-08 8.48658e-09 0.5 -3.18159e-08 -7.17881e-08 -1.04505e-07 2.24289e-08 4.75124e-08 -6.03455e-08 
280 1 4.09077 1.582 1.14626 0 0 0 5.96079e-09 -1.51299e-08 3.11389e-09 -5.52863e-09 1.36645e-08 -3.69451e-09 3.87889e-08 -4.11235e-09 4.34279e-10 0.5 -1.9998e-08 -2.52092e-08 -7.2037e-08 4.72209e-09 4.23174e-08 1.44474e-08 
620 2 1.3946 4.37082 0.857654 0 0 1 -1.6943e-09 -5.09557e-08 5.81071e-08 3.30501e-09 4.37952e-08 -4.88433e-08 3.16354e-08 1.99521e-08 -1.51052e-08 0.5 -1.69123e-08 -7.83898e-08 -1.16224e-07 3.38149e-10 -7.68408e-09 1.31826e-08 
1000 2 3.60332 2.39824 0.339819 0 1 1 3.10341e-08 1.11931e-08 4.32641e-08 -2.55729e-08 -9.5542e-09 -3.82771e-08 2.87921e-08 -1.566e-09 -1.4393e-09 0.5 -4.60496e-08 -8.45338e-08 -5.00838e-08 -6.08597e-09 -3.95945e-08 -1.31576e-08 
103 1 3.28431 3.68319 0.698946 0 0 1 1.20675e-09 -2.29356e-08 7.76947e-08 -7.37773e-10 1.99361e-08 -6.78083e-08 2.37656e-08 1.60186e-09 1.2158e-08 0.5 -1.57696e-08 -1.26383e-08 -2.29216e-08 1.57801e-08 3.92117e-09 -4.32822e-09 
622 2 0.930663 4.80385 0.0848388 0 0 1 -2.61304e-09 -2.21133e-09 8.59535e-08 3.99708e-09 1.48862e-09 -7.29411e-08 4.24745e-08 -4.18851e-09 -4.56276e-09 0.5 -8.73476e-10 8.07433e-09 -5.312e-08 -5.35512e-09 -2.24991e-08 1.20309e-08 
506 2 0.74356 1.4513 1.18235 0 0 0 -5.01474e-08 -7.73719e-08 -6.34829e-08 4.2732e-08 6.53387e-08 5.65969e-08 3.64061e-08 -6.87555e-09 2.34582e-08 0.5 1.5457e-08 -1.0581e-07 -1.655e-08 1.22695e-07 2.64576e-08 -6.55234e-08 
626 2 1.28815 3.41645 0.566227 0 0 1 -4.46849e-08 -2.98969e-08 1.34898e-08 3.81655e-08 2.58116e-08 -1.01669e-08 2.17414e-08 -1.49073e-08 6.18584e-09 0.5 -6.00205e-08 -8.74366e-08 -1.6678e-08 4.69037e-08 4.06896e-08 -2.5992e-08 
553 2 0.744043 0.0774005 1.56305 0 0 0 -8.49006e-09 -5.8384e-08 -9.48645e-08 6.78247e-09 4.94612e-08 8.43005e-08 3.2818e-09 -1.92334e-08 2.9137e-08 0.5 1.10013e-08 6.03497e-09 8.78544e-09 3.19234e-10 5.3101e-09 -1.43163e-08 
135 1 1.54769 3.20472 1.67709 0 0 0 1.80908e-08 -7.53443e-08 5.44802e-09 -1.61863e-08 6.44126e-08 -3.47859e-09 2.55739e-08 -3.61847e-08 -8.05846e-09 0.5 4.22825e-09 -1.62137e-07 -3.13696e-08 4.01771e-08 1.67876e-08 -1.07237e-09 
624 2 4.32461 4.92098 1.47156 0 0 1 2.96468e-08 -1.61767e-08 6.51816e-08 -2.39907e-08 1.57054e-08 -5.73624e-08 1.65161e-08 1.15217e-09 9.22575e-09 0.5 1.4234e-08 1.1117e-08 -4.26043e-08 1.33137e-08 -2.66115e-08 -3.256e-08 
256 1 4.58719 1.36786 0.305 0 0 0 8.34572e-09 1.74379e-08 -3.78941e-09 -7.34436e-09 -1.39075e-08 2.26478e-09 3.89236e-08 7.75121e-09 -1.2518e-08 0.5 -1.04646e-08 -3.59274e-08 -5.16666e-08 -2.31475e-08 8.34274e-09 -5.04621e-08 
260 1 3.31854 0.0700552 1.02517 0 0 0 1.35444e-08 -2.00662e-08 -4.80715e-08 -1.0813e-08 1.77834e-08 4.12754e-08 1.70508e-08 1.87304e-08 -1.3983e-09 0.5 -2.23233e-08 -6.73979e-08 -7.47377e-08 -2.00497e-09 1.31016e-08 -4.48544e-08 
616 2 3.19106 4.4806 1.50664 0 0 1 1.72481e-08 -6.38179e-08 6.19953e-08 -1.53659e-08 5.55566e-08 -5.45142e-08 -3.63414e-09 6.43045e-09 9.73715e-09 0.5 -2.94127e-08 -1.16125e-08 -1.30892e-08 1.77981e-08 3.48548e-09 -7.69087e-09 
106 1 1.74522 2.23558 1.52961 0 0 1 1.89225e-09 -7.98875e-08 1.34489e-08 -2.62521e-09 6.82087e-08 -1.01075e-08 3.32993e-08 -1.29498e-08 -8.07593e-09 0.5 1.791e-08 -8.58517e-08 -2.71185e-08 2.46692e-08 2.74678e-08 -3.14365e-08 
157 1 1.3897 4.17879 1.83903 0 0 0 2.23366e-08 -8.23796e-08 5.21005e-08 -1.90168e-08 7.06212e-08 -4.37206e-08 3.13737e-08 5.81019e-09 3.7347e-09 0.5 -3.6256e-08 -1.22079e-07 -1.29358e-07 2.68141e-08 4.27813e-08 -2.42539e-08 
516 2 2.34691 0.89043 0.68796 0 0 0 -7.16322e-09 1.11428e-08 -2.19544e-08 5.64672e-09 -1.04345e-08 1.975e-08 3.65758e-09 -1.33622e-08 -3.75762e-10 0.5 7.74347e-09 -3.21917e-08 -9.69327e-09 7.31975e-09 2.35262e-08 -3.1559e-08 
183 1 0.415258 4.58221 1.00381 0 0 0 3.0485e-09 -7.21591e-08 1.22991e-07 -5.75523e-10 6.20515e-08 -1.03739e-07 6.20903e-08 3.08431e-08 3.7127e-09 0.5 1.65201e-09 -4.126e-09 6.66557e-09 5.24607e-09 -8.80038e-09 6.4267e-09 
625 2 0.399951 3.91216 0.210014 0 0 1 -1.89581e-08 3.4171e-09 5.79484e-08 1.7746e-08 -3.21448e-09 -4.77557e-08 6.02283e-08 -4.76012e-09 -2.50615e-08 0.5 -2.73319e-09 4.12833e-12 -1.21187e-08 -3.01893e-09 -4.79283e-09 1.11517e-08 
91 1 2.22066 4.71676 1.69645 0 0 1 2.06153e-08 -7.54804e-08 7.10338e-08 -1.80979e-08 6.53011e-08 -6.10551e-08 2.43656e-09 3.36837e-10 1.54583e-09 0.5 -3.34005e-08 -2.26732e-08 -9.42847e-09 -8.42464e-09 7.36484e-09 -7.26213e-09 
257 1 4.94043 2.69123 1.70827 0 0 0 1.29841e-08 -4.29137e-08 4.95993e-08 -1.14082e-08 3.82235e-08 -4.3564e-08 1.65004e-08 6.68871e-10 -5.47997e-09 0.5 -7.04633e-08 -4.93455e-08 -1.23489e-07 5.19194e-09 -4.03103e-08 -2.33301e-08 
4 1 3.72174 1.12777 1.95711 0 0 0 4.24711e-09 -5.32688e-08 -1.901e-08 -3.7485e-09 4.62388e-08 1.53539e-08 2.54987e-08 -2.33714e-09 1.69259e-09 0.5 -1.16584e-08 -2.05028e-08 -8.88867e-08 -1.74688e-08 1.71589e-08 4.41436e-08 
609 2 1.99624 4.76004 0.136921 0 0 1 2.47467e-09 -2.79153e-08 8.61744e-08 -1.07141e-09 2.39284e-08 -7.42681e-08 1.3352e-08 -1.05366e-08 1.32948e-08 0.5 -1.42697e-07 -4.37783e-07 -6.29164e-08 1.21711e-07 3.36254e-08 -9.26673e-08 
117 1 3.12746 1.31374 1.15363 0 1 0 8.80588e-09 -2.59804e-08 -1.42747e-08 -7.82328e-09 2.23826e-08 1.18539e-08 3.3374e-08 -2.19968e-09 1.34917e-09 0.5 4.87533e-09 -2.41914e-08 -2.5209e-09 1.16782e-08 4.17731e-09 1.8056e-08 
511 2 1.08079 2.25054 0.230642 0 0 0 -1.70145e-08 2.79947e-08 -4.76371e-09 1.4372e-08 -2.52514e-08 5.40804e-09 5.84448e-08 -1.21967e-08 -1.19736e-08 0.5 -2.47308e-08 -7.44532e-08 -1.74439e-07 1.56234e-08 7.36329e-08 -4.6314e-08 
911 2 0.492018 0.563612 0.697613 1 0 0 -1.16367e-08 -4.12425e-08 -8.91716e-08 9.80959e-09 3.38419e-08 7.89956e-08 7.15819e-09 -1.1664e-08 1.9543e-09 0.5 1.88275e-08 -7.96142e-08 1.67088e-10 -8.1047e-09 6.80073e-09 -3.18498e-08 
668 2 0.00216516 3.81975 1.93315 0 0 0 -8.64054e-09 -1.3892e-07 5.88058e-08 6.51592e-09 1.18175e-07 -4.9208e-08 1.4897e-08 1.21197e-08 -1.19655e-08 0.5 -1.09526e-07 -2.69369e-07 -1.13041e-07 8.12815e-08 -2.92661e-08 -3.82217e-09 
90 1 2.93989 4.58015 0.420403 0 0 1 6.22917e-10 -1.78929e-08 9.47463e-08 1.00354e-09 1.58807e-08 -8.29856e-08 1.43453e-08 -4.09826e-09 1.61844e-08 0.5 -3.01568e-08 3.67919e-08 -4.15705e-09 5.82187e-08 3.2552e-08 1.36544e-08 
734 2 4.13742 3.24508 0.37494 0 1 1 1.88335e-08 1.69104e-08 8.24819e-08 -1.59073e-08 -1.39254e-08 -7.20965e-08 3.67011e-08 4.77356e-09 4.95996e-09 0.5 -2.82741e-08 -2.04073e-08 -3.30196e-09 1.6514e-08 1.19907e-08 -1.48944e-08 
672 2 0.0675425 1.98557 1.68985 0 0 0 -5.97264e-08 -1.11552e-07 -4.01785e-08 5.10723e-08 9.49844e-08 3.64403e-08 3.84581e-08 -7.36903e-09 1.32073e-08 0.5 -1.32875e-07 -2.68318e-07 -1.01771e-07 1.039e-07 7.39911e-08 1.08848e-09 
759 2 4.95866 2.03867 0.950748 0 0 0 1.20492e-08 -1.65388e-08 2.6842e-08 -1.09544e-08 1.53308e-08 -2.38249e-08 3.3983e-08 -4.83853e-09 -8.99901e-09 0.5 -8.27791e-09 -8.90147e-08 -4.06091e-08 -1.52992e-08 -6.57793e-09 -1.08743e-08 
21 1 1.84566 0.35675 2.43115 0 0 0 -1.76794e-08 -8.06434e-08 -6.75272e-08 1.54272e-08 6.93769e-08 5.90148e-08 1.59271e-08 -1.6616e-08 2.40026e-08 0.5 1.73562e-09 -8.95877e-10 -1.17158e-09 3.23876e-09 3.3948e-09 -8.84867e-09 
682 2 2.73058 4.0836 2.7725 0 0 0 1.5489e-08 -5.27099e-08 5.5962e-08 -1.36375e-08 4.57768e-08 -4.85742e-08 -5.53127e-10 2.06785e-09 5.92879e-09 0.5 -7.95702e-08 -5.22156e-08 -1.22106e-08 4.67801e-08 3.76879e-08 6.10904e-08 
907 2 0.982097 4.62503 2.63573 1 0 0 1.13124e-08 -1.14537e-07 6.45189e-08 -1.05169e-08 9.72606e-08 -5.43336e-08 5.23189e-09 -1.16986e-08 6.27604e-09 0.5 -8.68678e-08 -1.07449e-07 -1.19626e-07 3.99947e-08 5.29719e-08 -3.82181e-08 
144 1 1.68507 3.60062 2.81087 0 0 0 1.93399e-08 -9.9447e-08 1.14088e-08 -1.74305e-08 8.4972e-08 -9.41443e-09 -2.1178e-09 6.30766e-09 8.91089e-10 0.5 -5.15419e-08 -1.51677e-08 -2.22609e-08 3.14913e-08 -1.02601e-08 -2.67816e-10 
675 2 2.83107 4.7385 3.54541 0 0 0 2.97363e-09 -3.6343e-08 5.684e-08 -4.53202e-09 3.24405e-08 -4.9557e-08 -1.27601e-08 8.32305e-09 -2.16158e-09 0.5 3.65053e-09 1.76857e-08 3.48676e-08 1.67455e-08 -6.51304e-09 3.09801e-08 
502 2 4.38953 1.31124 3.26921 0 0 0 -4.20983e-09 -3.91863e-08 -1.49642e-08 2.1544e-09 3.51909e-08 1.18777e-08 6.38136e-09 1.56835e-09 -3.87964e-09 0.5 -6.13597e-08 -3.1473e-08 -3.90993e-08 -3.18846e-08 3.10656e-08 6.46687e-08 
27 1 2.60908 0.300739 3.21066 0 0 0 -1.4706e-09 -6.42777e-08 -4.51432e-08 2.16887e-11 5.50958e-08 3.85593e-08 -6.66967e-10 -9.64632e-09 1.12341e-08 0.5 -5.62815e-08 -7.05873e-08 -1.34067e-07 2.75974e-08 4.62525e-08 1.10164e-08 
965 2 1.35576 3.65812 3.79896 1 0 0 2.71415e-08 -1.18219e-07 1.85036e-09 -2.39426e-08 1.00314e-07 -7.90419e-10 -7.25954e-09 1.91469e-08 -1.62601e-08 0.5 -2.30394e-08 -6.92102e-08 -7.7028e-08 4.00649e-08 -2.55612e-08 4.72635e-08 
61 1 1.66165 0.448609 3.51352 0 0 0 -1.87249e-08 -1.00748e-07 -8.90544e-08 1.51534e-08 8.52435e-08 7.80525e-08 2.21116e-09 -4.27578e-09 1.86498e-08 0.5 -3.98498e-08 -1.67917e-09 -7.97996e-09 9.40013e-09 2.69561e-08 -3.05936e-09 
680 2 1.1901 2.78151 3.34693 0 0 0 -2.25081e-08 -1.07046e-07 -1.29813e-09 1.85027e-08 9.07289e-08 1.96771e-09 4.67716e-09 1.0411e-08 -2.70837e-09 0.5 9.91631e-10 -2.3088e-08 -3.55906e-08 5.15339e-09 1.5391e-08 1.06904e-08 
251 1 4.71421 3.03382 3.89556 0 0 0 3.14303e-08 -4.96248e-08 4.90999e-08 -2.84165e-08 4.40961e-08 -4.32971e-08 1.99369e-08 1.49167e-08 -2.20238e-08 0.5 -6.95773e-08 -1.4274e-08 2.62198e-09 -4.92654e-08 2.23165e-08 4.16605e-08 
517 2 4.0089 2.89361 2.21821 0 0 0 1.72409e-08 -4.65399e-08 4.61748e-08 -1.47539e-08 4.18394e-08 -4.03213e-08 8.04463e-09 2.25773e-09 -3.74419e-09 0.5 -5.17817e-10 -7.63942e-10 -2.26365e-08 -8.52022e-10 -4.6266e-09 1.16705e-08 
6 1 3.42179 1.77987 2.73262 0 0 0 -7.3679e-09 -4.27491e-08 2.40639e-08 5.15198e-09 3.72145e-08 -2.14675e-08 2.40468e-08 -3.95922e-09 1.5067e-08 0.5 -7.61882e-08 1.40132e-08 1.05123e-08 2.98268e-08 3.6098e-08 2.19282e-08 
519 2 4.43345 3.61408 3.03093 0 0 0 1.12478e-08 -3.15381e-08 7.01234e-08 -1.0155e-08 2.89773e-08 -6.1497e-08 8.3316e-09 5.86345e-09 -2.71581e-09 0.5 3.61636e-09 3.86676e-08 2.60507e-08 -2.73082e-08 -9.75124e-09 2.02483e-08 
509 2 1.93621 1.51608 3.62332 0 0 0 2.25687e-08 -9.23787e-08 -7.56612e-08 -2.05951e-08 7.7841e-08 6.66142e-08 -6.53836e-09 3.18699e-08 -3.05785e-10 0.5 9.30874e-09 -1.05434e-08 -8.27815e-08 -1.02779e-08 1.77523e-08 2.34184e-08 
142 1 1.03537 1.94217 2.17003 0 0 0 -3.4467e-08 -8.91082e-08 -3.1083e-08 2.87443e-08 7.56834e-08 2.8124e-08 3.33347e-08 3.85963e-10 6.12381e-09 0.5 -1.39833e-09 -1.56667e-08 -2.14086e-08 2.36981e-08 -9.39233e-09 2.53656e-08 
941 2 0.192203 2.2584 2.77344 1 0 0 -4.88035e-08 -1.30349e-07 -2.61817e-08 4.13453e-08 1.11299e-07 2.39979e-08 1.99754e-08 2.46639e-09 4.98994e-09 0.5 -1.68932e-08 -5.38667e-08 -7.57323e-08 2.0921e-09 1.0355e-08 6.42171e-09 
919 2 0.650389 4.31552 3.53385 1 0 0 9.0348e-10 -1.2665e-07 5.06704e-08 -1.43857e-09 1.07676e-07 -4.23418e-08 1.73328e-08 6.28743e-09 -2.03003e-08 0.5 -5.24947e-08 -9.21803e-08 -5.41534e-08 5.17947e-08 -4.34448e-10 3.32373e-08 
95 1 3.53903 3.77814 2.2694 0 0 1 2.18706e-08 -4.4874e-08 6.14312e-08 -1.89711e-08 4.03083e-08 -5.38033e-08 1.40866e-09 7.44502e-10 2.7098e-09 0.5 -3.97011e-08 -1.31892e-08 -6.91514e-08 6.75265e-09 2.35342e-08 -8.76052e-09 
458 1 1.5569 4.7536 3.86468 1 0 0 8.83084e-09 -8.6479e-08 7.62963e-08 -8.79613e-09 7.32027e-08 -6.54898e-08 -1.6949e-08 3.52147e-09 5.06046e-09 0.5 -3.37707e-08 -2.06418e-08 -2.00708e-08 2.77325e-08 -5.58923e-09 -1.27256e-09 
41 1 1.14045 0.960462 2.01108 0 0 0 -2.39134e-08 -8.27421e-08 -6.20429e-08 1.97875e-08 7.01589e-08 5.51484e-08 2.91145e-08 -4.18997e-09 1.44058e-08 0.5 -2.74262e-08 -2.28578e-08 -6.61308e-08 1.54179e-08 4.35063e-08 -2.39993e-08 
814 2 0.27112 1.22753 3.40348 1 0 0 -5.08264e-09 -1.06069e-07 -5.33607e-08 3.26306e-09 8.99759e-08 4.78569e-08 1.57142e-08 -9.94366e-09 3.02184e-08 0.5 -5.86405e-08 -6.01431e-08 -7.01861e-08 2.34933e-08 5.03729e-08 7.40031e-08 
130 1 1.70518 2.6475 2.50033 0 0 0 -2.62657e-08 -9.45281e-08 -5.57866e-09 2.20516e-08 8.05411e-08 5.75484e-09 2.66245e-08 -1.07125e-08 -1.21011e-08 0.5 -2.02974e-08 -7.53166e-08 -6.64668e-08 3.64292e-08 2.60232e-08 4.76502e-08 
12 1 2.70258 1.09575 2.61132 0 0 0 1.23427e-08 -5.40015e-08 -2.93943e-08 -1.12385e-08 4.62017e-08 2.5058e-08 1.5554e-08 -2.0493e-08 1.60485e-08 0.5 -8.47375e-08 -1.06647e-07 -7.47615e-08 5.44559e-08 3.74138e-08 2.13397e-09 
512 2 3.18635 2.03167 3.78747 0 0 0 1.27433e-08 -1.28635e-08 2.79837e-08 -1.2722e-08 1.08035e-08 -2.36227e-08 1.89542e-08 -5.17199e-09 1.28113e-08 0.5 -2.00873e-08 -4.03955e-08 -3.41208e-08 6.72731e-09 -6.32575e-09 4.20492e-08 
151 1 2.47925 3.30049 3.34132 0 0 0 1.28283e-08 -6.26671e-08 4.11175e-08 -1.1131e-08 5.45495e-08 -3.54009e-08 -5.87758e-09 -6.87231e-09 4.35586e-09 0.5 -2.39184e-08 -1.01916e-07 -9.20311e-08 1.94362e-08 2.45856e-08 2.89895e-08 
667 2 0.284319 1.3208 2.4071 0 0 0 -2.4195e-08 -1.10182e-07 -5.28748e-08 2.0105e-08 9.37559e-08 4.7461e-08 1.95853e-08 5.79484e-09 1.70885e-08 0.5 -3.35153e-08 -1.54016e-07 -1.18372e-07 8.09582e-09 -1.70361e-10 1.69411e-08 
38 1 3.79042 0.738149 3.87284 0 0 0 7.3307e-09 -9.66881e-09 -2.16952e-08 -8.04474e-09 9.1043e-09 1.78959e-08 -2.07136e-08 -5.1547e-09 5.50257e-10 0.5 -6.01251e-08 -2.00961e-08 -1.4787e-07 -6.7219e-08 3.63278e-08 1.07167e-07 
936 2 0.319906 3.36948 3.50683 1 0 0 -4.4752e-08 -1.09153e-07 1.70842e-08 3.77077e-08 9.26661e-08 -1.31397e-08 1.91034e-08 -1.67846e-08 -1.12452e-08 0.5 4.88433e-09 -1.11585e-07 -4.54426e-08 1.59106e-09 5.37881e-08 7.32001e-08 
531 2 4.80013 0.808197 2.48028 0 0 0 -1.97175e-08 -6.54133e-08 -1.3426e-08 1.60569e-08 5.79035e-08 1.06548e-08 2.03823e-09 -1.34017e-09 -1.05195e-08 0.5 -2.02198e-08 1.46441e-09 -4.21733e-08 -2.51438e-08 -3.91119e-08 -2.10419e-08 
527 2 4.03024 4.31517 3.61908 0 0 0 2.12688e-08 -3.28484e-08 7.94075e-08 -1.94791e-08 2.96041e-08 -6.93492e-08 -9.9356e-09 -5.54921e-11 3.56297e-09 0.5 -1.68097e-08 4.18004e-09 2.69653e-08 -2.59136e-08 -5.96382e-09 4.09228e-08 
383 1 4.36293 4.34454 2.28892 0 0 1 7.6684e-09 -2.41905e-08 6.08924e-08 -6.61917e-09 2.23161e-08 -5.37972e-08 3.27744e-09 -4.89209e-09 1.36768e-09 0.5 -3.85118e-08 -7.61468e-09 1.93341e-08 3.04478e-08 -8.33848e-09 -1.60215e-08 
992 2 0.695682 0.439322 3.85269 1 1 0 -1.1538e-09 -1.12021e-07 -7.24592e-08 -1.67378e-10 9.47782e-08 6.3826e-08 3.07078e-09 1.76263e-08 1.14988e-08 0.5 -4.79233e-08 -1.16234e-07 -2.5294e-08 3.43745e-08 -1.61682e-08 5.95543e-08 
521 2 4.93615 4.52796 3.25037 0 0 0 1.38352e-08 -2.47142e-08 6.61652e-08 -1.30973e-08 2.23609e-08 -5.82459e-08 -7.35072e-09 5.32529e-09 4.31592e-09 0.5 4.2618e-09 -2.81665e-08 -3.2292e-08 -3.4031e-09 -4.32264e-09 4.15033e-08 
136 1 1.88498 1.67143 2.62265 0 0 0 -2.11217e-08 -1.00813e-07 -6.31078e-08 1.72195e-08 8.59542e-08 5.58838e-08 1.07087e-08 1.59966e-08 1.1728e-08 0.5 -9.81611e-08 -1.04461e-07 -6.93262e-08 7.0387e-08 -7.22898e-09 3.07362e-08 
540 2 4.51129 0.178592 3.415 0 0 0 -3.41889e-09 -4.12305e-08 -2.48672e-08 1.53048e-09 3.7182e-08 2.00129e-08 -1.93984e-08 9.05678e-09 -1.2523e-08 0.5 3.04777e-08 1.99857e-08 3.90095e-09 -1.95525e-08 -1.31971e-08 1.88064e-08 
510 2 3.85504 2.56842 3.17077 0 0 0 -9.59755e-09 -4.72277e-08 3.59652e-08 6.67512e-09 4.15464e-08 -3.21673e-08 4.09554e-09 -1.61518e-09 5.85118e-10 0.5 3.01584e-08 4.20132e-08 -2.5329e-08 5.98443e-09 4.87664e-09 3.51994e-08 
19 1 4.3655 1.84749 2.40882 0 0 0 -1.35348e-08 -7.60164e-09 1.33644e-08 1.02114e-08 7.45616e-09 -1.28722e-08 1.07878e-08 2.86231e-09 8.69198e-10 0.5 -1.08767e-07 -4.30288e-09 -5.60553e-08 5.3727e-09 4.86557e-08 1.01711e-08 
543 2 1.07326 1.78713 3.19513 0 0 0 -1.70774e-09 -1.04025e-07 -3.49169e-08 3.54598e-10 8.80501e-08 3.15465e-08 2.30086e-08 2.07074e-08 7.78253e-09 0.5 -1.03939e-08 -1.4145e-08 -6.41925e-09 -2.07558e-08 1.74562e-08 1.0867e-08 
773 2 4.78774 2.22773 3.30763 0 0 0 -5.54613e-09 -4.05225e-08 3.08752e-08 3.34842e-09 3.63295e-08 -2.77011e-08 9.27137e-09 1.05924e-08 -7.62349e-09 0.5 2.28235e-09 -8.48866e-08 -1.64275e-07 -1.6785e-08 3.65978e-08 1.64394e-07 
555 2 2.23907 2.5056 3.89852 0 0 0 1.11078e-08 -5.59089e-08 5.00334e-08 -1.09834e-08 4.91202e-08 -4.30733e-08 -6.32362e-09 -1.72623e-09 5.9491e-09 0.5 1.78863e-08 2.48799e-08 2.61604e-08 9.42548e-09 4.24983e-09 3.39838e-08 
429 1 0.306925 2.40106 3.75655 1 0 0 -3.50499e-08 -1.19539e-07 -2.934e-08 2.93137e-08 1.01605e-07 2.68096e-08 1.24985e-08 4.86606e-09 2.25901e-08 0.5 -2.29723e-08 -1.81767e-07 -1.05547e-07 4.23987e-08 -2.7104e-08 1.01436e-07 
316 1 0.889712 0.512877 2.86992 1 0 0 -2.96476e-08 -1.09861e-07 -7.8241e-08 2.45222e-08 9.32005e-08 6.88764e-08 1.24343e-08 1.71966e-09 1.71066e-08 0.5 1.01212e-08 -2.19551e-08 -1.55106e-08 7.85131e-09 6.11647e-09 2.17449e-08 
503 2 3.61689 0.768796 2.88623 0 0 0 6.75861e-09 -5.39031e-08 -2.06185e-08 -6.21204e-09 4.68281e-08 1.67221e-08 -3.00867e-09 -3.33018e-09 8.37015e-09 0.5 -1.6724e-08 3.80839e-09 -1.10963e-07 4.81722e-09 -8.0727e-09 3.08505e-08 
896 2 0.702247 3.66501 2.63024 1 0 0 1.35322e-08 -1.1506e-07 4.18798e-08 -1.26356e-08 9.77603e-08 -3.45573e-08 1.38256e-08 5.64921e-09 -6.64955e-09 0.5 -7.19273e-08 -4.20444e-08 -1.17766e-07 1.91762e-08 -3.84431e-08 3.33298e-08 
690 2 1.93672 4.67095 2.92999 0 0 0 5.59341e-09 -7.15254e-08 7.6403e-08 -5.40038e-09 6.1361e-08 -6.53584e-08 -2.14396e-09 3.56792e-09 1.78646e-08 0.5 -8.15426e-08 -4.18427e-08 -1.6323e-08 5.38386e-08 -1.17258e-10 -9.47342e-09 
641 2 3.45948 3.5005 3.22725 0 0 0 1.01727e-08 -3.39983e-08 6.31828e-08 -9.13931e-09 3.05452e-08 -5.54431e-08 -6.54983e-09 -1.10797e-09 7.37456e-09 0.5 -5.72755e-09 1.25785e-08 -5.18055e-08 1.18588e-08 -2.53715e-08 6.54227e-08 
528 2 3.34275 4.80215 2.44243 0 0 0 2.06501e-08 -5.5936e-08 5.84913e-08 -1.86576e-08 4.87051e-08 -5.14172e-08 -3.87356e-10 2.01616e-09 3.13341e-09 0.5 -7.80326e-09 -1.45745e-08 -2.6384e-08 -1.35301e-08 -3.51463e-09 -4.79731e-09 
225 1 2.66658 2.37982 2.99794 0 0 1 -2.16636e-08 -6.58544e-08 3.34533e-08 1.77305e-08 5.70082e-08 -2.85134e-08 -5.22266e-09 1.33748e-08 7.53887e-09 0.5 -2.74962e-08 -7.04787e-08 -5.42445e-09 4.29193e-08 -1.9897e-08 -1.90138e-09 
119 1 0.614476 2.84343 2.06694 0 0 0 -4.88546e-08 -9.07173e-08 1.60854e-08 4.12536e-08 7.70781e-08 -1.27576e-08 3.18383e-08 3.08932e-09 -1.28683e-09 0.5 1.65779e-08 -4.6855e-08 -8.86175e-08 1.41796e-08 3.43174e-08 8.74961e-11 
94 1 2.46189 3.50067 2.00487 0 0 1 -2.8227e-09 -6.94069e-08 7.43646e-08 2.1045e-09 5.97e-08 -6.40588e-08 1.26509e-08 -3.73443e-09 3.48189e-09 0.5 1.74067e-08 2.26028e-08 8.67629e-09 2.07372e-08 1.8234e-08 2.85284e-08 
522 2 2.58373 2.50801 2.00903 0 0 0 -9.82139e-09 -7.05646e-08 3.18876e-08 8.0105e-09 6.06743e-08 -2.72396e-08 2.47933e-08 -1.02013e-08 8.91448e-09 0.5 -7.06414e-10 4.25179e-09 -2.56285e-08 2.3969e-08 2.65467e-08 7.28861e-09 
200 1 2.46549 0.208501 4.19599 0 1 0 2.84718e-08 -3.78323e-08 -3.8279e-08 -2.67904e-08 3.2186e-08 3.25352e-08 -2.45508e-08 -1.69264e-08 3.76685e-08 0.5 -5.85679e-08 -3.20422e-08 -1.0444e-07 1.52462e-08 3.87391e-08 2.73589e-08 
114 1 4.70709 1.00384 4.17137 0 0 0 3.99255e-09 -1.26961e-08 -8.71462e-09 -5.32863e-09 1.23913e-08 6.56259e-09 -8.57799e-09 -5.08351e-09 -9.75297e-09 0.5 -3.59152e-08 1.24361e-09 -5.77792e-09 -4.83352e-09 -2.28198e-08 -3.28099e-09 
820 2 1.30996 2.29325 4.21136 1 0 0 2.58595e-09 -8.07517e-08 1.0083e-08 -2.93397e-09 6.83556e-08 -7.69466e-09 -1.44155e-08 -1.05923e-08 2.25108e-08 0.5 4.46853e-09 2.13951e-08 -2.48919e-08 6.8435e-08 2.15741e-08 4.09006e-08 
47 1 4.65574 1.582 5.43553 0 0 0 2.88973e-08 2.44401e-09 9.69552e-09 -2.72408e-08 -3.51489e-10 -9.22892e-09 3.21294e-09 1.48394e-08 6.36935e-09 0.5 -4.08034e-08 -6.62336e-08 -2.71938e-08 -1.67421e-08 -3.23197e-08 5.35098e-08 
824 2 1.64908 3.83184 5.79238 1 0 0 8.38708e-09 2.40329e-08 7.6437e-08 -7.34703e-09 -2.06408e-08 -6.50931e-08 -2.16212e-08 1.67923e-09 -7.72221e-09 0.5 -1.28704e-08 -1.06704e-08 -4.62775e-08 -3.62418e-09 3.05469e-10 1.64729e-08 
172 1 3.44268 0.338821 4.72114 0 1 0 2.48934e-09 3.0468e-08 -4.72899e-09 -4.78923e-09 -2.61641e-08 2.59764e-09 -2.70681e-08 -7.07463e-09 1.13784e-08 0.5 -5.42192e-08 -5.66157e-08 -1.93236e-07 -4.78501e-08 4.77832e-08 8.11285e-08 
718 2 0.202285 2.03673 5.5128 0 1 0 -5.68128e-09 -3.06564e-08 1.76709e-08 3.59013e-09 2.48697e-08 -1.37698e-08 -2.05328e-08 -9.63587e-09 -1.65355e-09 0.5 -8.81715e-08 -2.01756e-08 -5.79305e-08 4.26928e-08 -4.44681e-08 1.21977e-07 
505 2 0.484433 3.5018 5.83385 0 0 -1 -9.21253e-09 3.64632e-08 5.76864e-08 7.89617e-09 -3.34262e-08 -4.86392e-08 4.56389e-09 -1.09435e-08 2.76256e-08 0.5 -1.06079e-09 -1.59439e-07 -8.14925e-08 8.42857e-09 -1.93766e-09 1.31342e-07 
524 2 3.99535 2.7352 5.70679 0 0 0 7.16271e-08 7.5862e-08 9.3952e-08 -6.47858e-08 -6.34975e-08 -8.30668e-08 -2.25006e-08 6.23624e-08 3.22701e-08 0.5 1.39226e-09 1.49643e-08 1.70816e-08 -1.22356e-08 -1.38821e-08 1.40952e-08 
839 2 0.579387 1.61472 4.31101 1 0 0 1.95355e-08 -1.08722e-07 -4.07307e-08 -1.7561e-08 9.25042e-08 3.68452e-08 -7.27025e-09 1.76306e-10 2.4334e-08 0.5 -9.17274e-09 -1.20455e-07 -7.18598e-08 7.98558e-08 -5.70635e-09 1.27165e-07 
937 2 2.44361 3.38654 4.3372 1 0 0 1.69861e-08 -4.66995e-08 3.89386e-08 -1.53089e-08 4.10747e-08 -3.35655e-08 -1.60207e-08 -1.07257e-08 1.79474e-08 0.5 2.53942e-08 3.31653e-08 -8.32875e-08 4.73194e-08 9.37641e-09 4.06962e-08 
811 2 2.60623 3.94632 5.52498 1 0 0 9.35264e-10 2.09973e-08 4.88311e-08 -1.15371e-09 -1.7209e-08 -4.17734e-08 -1.98012e-08 -1.23396e-08 6.27109e-11 0.5 -8.89834e-09 -3.8292e-08 -1.27344e-08 -1.63185e-08 -1.34032e-08 3.92054e-08 
827 2 1.52088 3.18133 4.66349 1 0 0 1.87188e-08 -8.14552e-08 2.23846e-08 -1.60811e-08 6.89781e-08 -1.84072e-08 -2.73729e-08 -1.4277e-08 -1.28172e-09 0.5 1.31177e-08 -7.27934e-09 -6.95733e-08 3.6753e-09 8.6667e-09 5.46443e-08 
149 1 4.05563 3.93275 4.61881 0 0 0 7.07777e-09 9.72492e-09 6.82073e-08 -7.54839e-09 -6.96695e-09 -5.97452e-08 -9.1428e-09 3.65993e-09 1.61521e-08 0.5 -2.76081e-08 -2.91799e-08 2.42002e-08 9.22994e-08 -5.5923e-08 2.74346e-08 
925 2 0.623246 3.59905 4.52293 1 0 0 3.00526e-08 -6.14113e-08 7.75775e-09 -2.63181e-08 5.0803e-08 -5.61279e-09 -2.4914e-08 9.83846e-09 -4.95201e-09 0.5 1.86116e-08 -4.15473e-08 -1.21033e-08 -9.16874e-09 -8.22115e-09 2.18003e-08 
168 1 3.33522 4.60361 5.33159 0 0 0 8.77105e-09 1.78406e-08 7.02889e-08 -8.43227e-09 -1.42625e-08 -6.15895e-08 -1.60318e-08 -1.07663e-08 1.50028e-08 0.5 -5.33835e-08 -4.28015e-08 -4.55234e-08 1.32883e-08 -2.59811e-08 3.60463e-08 
928 2 1.57471 4.4088 4.9787 1 0 0 1.39464e-08 1.48173e-08 7.01581e-08 -1.21123e-08 -1.22078e-08 -5.93453e-08 -1.30898e-08 2.71808e-09 -1.31925e-08 0.5 -2.42304e-08 -3.03199e-08 -3.01753e-08 -1.61942e-08 3.73302e-09 2.57119e-08 
148 1 3.93983 3.74234 5.7457 0 0 0 -2.86123e-09 7.3216e-08 9.65695e-08 1.20358e-09 -6.12038e-08 -8.42019e-08 -2.26782e-08 -8.83154e-09 4.21684e-08 0.5 2.23555e-08 4.71739e-08 5.42475e-08 3.2971e-08 3.77442e-08 3.28761e-08 
914 2 4.69244 4.38506 5.24423 0 0 0 -2.14764e-08 3.99434e-08 7.60613e-08 1.72695e-08 -3.19709e-08 -6.74824e-08 -3.40249e-08 -1.07253e-08 -4.92109e-09 0.5 -1.26562e-09 1.20973e-08 2.16133e-08 3.22967e-09 7.71293e-09 1.37133e-08 
23 1 2.87773 1.11847 4.05716 0 0 0 -9.48777e-10 -2.59714e-08 -3.45031e-08 -1.20146e-09 2.20861e-08 2.98865e-08 8.69875e-09 -2.09037e-09 8.99276e-09 0.5 -4.64951e-08 -4.44876e-08 -3.62323e-08 -1.7598e-08 2.38558e-08 3.30398e-08 
594 2 2.05586 1.97089 4.80241 0 0 0 2.02153e-08 1.24612e-08 3.37439e-08 -1.84586e-08 -1.15732e-08 -2.75349e-08 9.36809e-09 -1.15807e-08 3.20956e-08 0.5 -1.82243e-10 -5.65839e-08 -1.1499e-08 4.11482e-08 -1.94866e-08 3.32766e-08 
539 2 3.78455 1.04074 5.46912 0 0 0 1.34658e-08 6.04965e-08 2.38511e-08 -1.37074e-08 -5.13911e-08 -2.19018e-08 -1.1395e-08 2.03665e-08 -4.86727e-09 0.5 -1.95618e-08 -1.84857e-07 -7.91404e-08 -6.03723e-08 -4.92977e-08 1.53513e-07 
730 2 0.461765 1.11568 5.16957 0 1 0 2.64152e-09 -3.36695e-08 6.13024e-10 -3.91672e-09 2.74489e-08 8.55834e-10 -9.39537e-09 -5.07982e-09 3.11069e-08 0.5 5.08225e-08 -1.02473e-08 -4.25564e-08 8.25499e-09 -1.10571e-08 8.80858e-08 
689 2 3.51933 0.103669 5.69619 0 1 0 -1.13581e-09 5.69534e-08 -7.5926e-09 -9.17993e-10 -4.83809e-08 5.24865e-09 -6.64536e-09 -8.70538e-09 -2.3974e-09 0.5 -7.68215e-08 -2.27173e-07 -1.97552e-07 -2.6282e-08 6.02631e-09 1.70056e-07 
450 1 0.619288 4.79871 4.46892 1 0 0 6.86067e-08 -4.63018e-08 4.69222e-08 -5.93076e-08 3.87623e-08 -3.88223e-08 -4.92191e-08 -1.23885e-08 8.44904e-09 0.5 -2.46274e-08 -6.85215e-08 -1.46338e-07 5.35351e-09 -2.53812e-08 8.14866e-08 
549 2 4.49944 0.500888 5.01435 0 0 0 -2.40041e-08 1.75051e-08 3.65663e-09 1.88102e-08 -1.40859e-08 -4.42336e-09 -8.09712e-09 8.66911e-09 -2.11376e-08 0.5 5.68214e-08 7.63751e-08 3.93164e-08 -3.41991e-08 -2.22852e-08 3.52593e-08 
591 2 1.44655 1.12499 4.40334 0 0 0 3.74615e-08 -7.90883e-08 -6.07482e-08 -3.33669e-08 6.62828e-08 5.37457e-08 -1.51851e-08 1.53301e-08 4.0785e-09 0.5 -4.4724e-08 -7.03423e-08 -5.47027e-08 1.81288e-08 6.53354e-09 5.38699e-08 
243 1 1.20287 1.83742 5.34381 0 1 0 -9.21164e-09 2.20761e-09 -6.035e-09 6.4548e-09 -3.40912e-09 6.29611e-09 -7.81909e-09 -6.65835e-09 1.74609e-08 0.5 -2.58189e-08 -2.81837e-08 -1.23869e-08 3.36718e-08 -1.04331e-08 4.15836e-08 