ITEM: TIMESTEP
102000
ITEM: NUMBER OF ATOMS
1000
ITEM: BOX BOUNDS xy xz yz pp pp pp
0.0000000000000000e+00 1.0000000000000000e+01 0.0000000000000000e+00
0.0000000000000000e+00 1.0000000000000000e+01 0.0000000000000000e+00
0.0000000000000000e+00 1.0000000000000000e+01 0.0000000000000000e+00
ITEM: ATOMS id type x y z ix iy iz vx vy vz fx fy fz omegax omegay omegaz radius c_2[1] c_2[2] c_2[3] c_2[4] c_2[5] c_2[6] 
120 1 3.1797 1.49647 0.0548716 0 1 0 -0.0523871 0.0919163 0.0270764 0.0861176 -0.112686 -0.00246492 0.00356471 -0.0209241 -0.0138396 0.5 -0.0214027 -0.0109114 -0.00545234 0.0183747 0.00837736 -0.0042825 
525 2 2.12536 1.26788 1.73146 0 0 0 -0.0171813 -0.0464848 -0.0325134 0.0107017 0.0421991 0.0174028 0.00579219 0.0118923 0.0148459 0.5 8.80394e-05 -0.00622874 -0.000614803 0.0053514 -0.000933146 -0.000225351 
371 1 4.95655 3.70788 1.53578 0 0 1 -0.00979386 -0.0387495 0.0858639 0.0447032 0.0283975 -0.08382 0.0280133 0.00731121 -0.00154724 0.5 0.0142583 -0.0297203 0.0897826 -0.0115611 -0.00695349 -0.00400705 
18 1 1.98787 2.67789 0.498909 0 0 0 -0.0173025 0.0329032 0.050131 0.0214226 -0.0440191 -0.0512115 0.0321977 -0.0198906 0.0197062 0.5 -0.016821 -0.0995067 -0.0325724 0.0726237 0.0669865 -0.0567149 
94 1 2.47489 3.53042 1.96349 0 0 1 -0.0342935 -0.0431358 0.0647276 0.0375156 0.0338812 -0.0516854 0.0267219 -0.00760029 0.023435 0.5 0.0509776 0.0307256 0.0279808 0.0204594 0.0352761 0.0181574 
25 1 1.40849 0.707301 1.1504 0 0 0 0.0214774 0.0080683 -0.121252 -0.031721 -0.0116554 0.124537 0.0379098 0.0199008 0.0116699 0.5 -0.0700069 -0.265438 -0.103431 0.132571 0.0583708 -0.140185 
36 1 2.07504 0.00288717 1.5903 0 0 0 0.0572431 -0.0583914 -0.125349 -0.0324824 0.0596911 0.12231 0.00873625 -0.0324794 0.0209779 0.5 -0.00814637 -0.0287054 0.00463941 0.011968 0.0331929 -0.00841249 
8 1 3.43919 2.08271 1.71969 0 0 0 0.00446346 -0.00923081 0.0392388 -0.0046084 -0.0199935 -0.0311227 0.0422051 0.00264806 0.00406801 0.5 -0.042667 -0.00443901 0.0365459 0.04607 0.0485939 -0.0376105 
629 2 4.07432 2.61652 1.16117 0 0 1 -0.00264928 0.0111611 0.0500516 0.00801595 -0.0186299 -0.0122398 0.0476253 0.00564849 -0.0025711 0.5 0.0272049 -0.027444 0.0245555 0.0120415 0.022647 -0.0120877 
5 1 2.35928 3.88652 0.993908 0 0 0 -0.0422791 0.0559615 0.0978436 0.0845095 -0.0864081 -0.068809 0.0392696 0.00138721 -0.0158823 0.5 0.0248998 0.00635773 -0.00120627 -0.0108513 -0.00431102 -0.00182877 
650 2 0.495727 3.48006 1.15855 0 0 0 -0.0719275 -0.0921823 -0.0399596 0.0782521 0.12243 0.00495969 0.0395452 0.0109875 0.03031 0.5 -0.0695627 -0.0679394 -0.0387972 0.0485118 0.0535317 -0.0585215 
14 1 3.30225 3.15094 1.50546 0 0 0 -0.0173533 -0.0212438 0.0662934 0.0166302 0.0286204 -0.066543 0.0420047 0.00336707 0.00235541 0.5 0.0299098 -0.0106699 0.00360301 -0.000600099 0.0147519 -0.0453534 
264 1 3.99307 3.88688 1.3296 0 0 0 -0.00602807 -0.0177104 0.0855096 0.0350037 -0.00674332 -0.0697427 0.0404698 0.00549887 -0.00817198 0.5 0.0222069 0.0064738 0.0297957 0.0179212 -0.0142041 -0.0185503 
223 1 0.768222 2.51577 1.15817 0 0 1 -0.0201641 -0.0757753 -0.0193982 -0.026259 0.0922644 -0.00811574 0.0534022 0.000917203 0.0380723 0.5 -0.0701935 -0.114735 -0.431088 0.0460627 0.154292 -0.144872 
364 1 4.426 4.21772 0.479448 0 0 1 0.00306279 0.0324879 0.101855 -0.0265694 -0.0425408 -0.097152 0.0401766 0.00707865 -0.00489239 0.5 0.0323867 -0.000418724 0.0652245 0.0119427 -0.0281768 -0.0172693 
107 1 1.6751 1.60719 0.804873 0 0 1 -0.0201023 0.0201548 -0.122172 -0.00298104 -0.0138722 0.151669 0.0543737 0.0171448 0.0117464 0.5 0.0495758 -0.0204943 0.00548332 -0.0145564 0.0188177 -0.0645785 
529 2 2.66594 2.19319 1.05169 0 0 0 0.0044683 0.0334728 0.0244766 -0.0169077 -0.0719354 -0.0298244 0.047868 -0.00654287 0.00976808 0.5 0.0273105 -0.0182362 -0.0129319 -0.000592679 0.0244894 -0.018388 
515 2 4.38543 0.456803 1.65535 0 0 0 0.000693683 -0.0232325 -0.0205683 -0.00135817 -0.00885345 0.0375869 0.0307959 0.00600295 -0.00208707 0.5 -0.0252417 -0.0434877 -0.135434 -0.115989 0.0270255 0.0341615 
244 1 4.1159 0.557772 0.68623 0 1 1 -0.013683 0.0337228 -0.00322446 0.0562975 -0.0517903 0.0100888 0.0363671 0.00934359 0.00307437 0.5 -0.0647591 -0.0438168 -0.147489 -0.0255941 0.0375645 0.038958 
20 1 2.89748 0.585718 1.80534 0 0 0 0.00635458 -0.0183022 -0.0502678 -0.00390169 0.0128118 0.061972 0.029544 -0.00216902 0.00567427 0.5 -0.0575355 -0.135412 -0.220944 0.041021 0.11553 -0.0761427 
280 1 4.08817 1.57815 1.13335 0 0 0 -0.00471668 0.0236833 0.0168373 0.0311168 -0.0600446 0.00415086 0.039906 0.00151626 -0.0118278 0.5 -0.152682 -0.0841828 -0.195703 -0.028242 0.129785 -0.00213809 
620 2 1.41934 4.39288 0.859681 0 0 1 -0.0235038 -0.0374086 -0.0130944 -0.0164203 0.0371251 0.016075 0.0595087 -0.00512357 0.0259637 0.5 -0.028298 -0.0816566 -0.172521 0.0230928 0.0127993 0.0044769 
1000 2 3.60882 2.36694 0.306373 0 1 1 -0.027335 0.0748035 0.0430721 0.0412254 -0.0974083 0.00486394 0.0300242 -0.00187356 -0.0185956 0.5 -0.00496454 -0.0284247 0.0143811 -0.00165653 0.0150968 -0.000260233 
103 1 3.29618 3.67155 0.642472 0 0 1 -0.0352356 0.0369163 0.0977883 0.0658721 -0.0310792 -0.0924838 0.039321 0.00113023 -0.00753541 0.5 0.071688 0.0323494 0.0227429 -0.031455 -0.00759197 -0.0164554 
536 2 0.500191 1.4414 0.0128375 0 0 0 -0.0312145 0.0903227 -0.0905657 -0.00612618 -0.0471456 0.0876273 0.0466803 0.0227424 0.0200939 0.5 -0.320769 -0.175208 -0.20462 0.069636 0.140132 -0.0967253 
506 2 0.757749 1.49371 1.24313 0 0 0 -0.00420064 -0.0891578 -0.100847 -0.0335569 0.117444 0.0874718 0.0438662 0.0060726 0.0382742 0.5 -0.0290364 -0.103884 0.017821 0.162363 0.0589582 -0.0764446 
626 2 1.32365 3.42809 0.592663 0 0 1 -0.074655 -0.018368 -0.0444464 0.0890004 0.0185493 0.0258064 0.0125504 -0.0146606 0.0262424 0.5 -0.065631 -0.11167 -0.0242574 0.0575587 0.0468404 -0.0486775 
553 2 0.72328 0.112125 1.6522 0 0 0 0.0495419 -0.0676366 -0.162863 -0.0568213 0.0777976 0.160316 0.0262329 -0.00543045 0.0194878 0.5 0.0104579 0.0205887 -0.0102285 0.00428134 0.00600122 -0.0144337 
135 1 1.54029 3.25452 1.69384 0 0 0 0.00144633 -0.105512 -0.0256012 0.00396078 0.133549 0.00455725 0.00228445 -0.0290733 0.0264681 0.5 0.0506282 -0.24113 -0.0389413 0.0731775 0.0149177 -0.0197233 
624 2 4.32241 4.93684 1.40595 0 0 1 0.00141783 -0.0098036 0.135956 0.00197032 -0.0308609 -0.172046 0.0309313 0.0121891 0.00901457 0.5 0.0214487 0.0519416 -0.0120817 0.00753048 -0.0231055 -0.0881889 
256 1 4.58942 1.35123 0.298363 0 0 0 -0.0126864 0.0373261 0.00822378 0.0339299 -0.0450238 0.00243554 0.039315 0.0178278 -0.0198122 0.5 -0.0912982 -0.11085 -0.306793 -0.0526579 0.0558009 -0.0484553 
260 1 3.32035 0.0772173 1.05518 0 0 0 -0.00641127 -0.0175688 -0.0543117 0.014219 0.0486104 0.0437933 0.0141615 0.0197317 -0.013837 0.5 -0.0848935 -0.14214 -0.144978 -0.0202921 0.0540418 -0.0813161 
616 2 3.18498 4.50515 1.45078 0 0 1 -0.00613111 -0.0326442 0.0991577 0.0462516 0.023251 -0.0806771 0.0147783 0.00153991 0.0151116 0.5 -0.0426872 -0.0110573 -0.00863199 0.0271023 0.0177087 -0.00427989 
106 1 1.72921 2.28492 1.53843 0 0 1 0.0436226 -0.0981935 -0.018502 -0.0512757 0.11071 0.0209138 0.0439119 -0.020048 0.00981601 0.5 0.0306561 -0.140917 0.0132636 0.0356138 0.0447882 -0.0133274 
157 1 1.39372 4.23179 1.84688 0 0 0 -0.0157132 -0.108101 -0.0257098 0.0200613 0.135818 0.0328004 0.0305902 -0.0157608 0.00493728 0.5 -0.0842586 -0.173714 -0.185366 0.0213693 0.0863931 -0.0543559 
516 2 2.33992 0.862315 0.722644 0 0 0 0.0189759 0.0501109 -0.0769593 -0.0312619 -0.0287268 0.107185 -0.0131943 -0.0423333 -0.0115683 0.5 -0.00433938 -0.0188913 -0.00745084 0.0193218 0.0611593 -0.0391528 
183 1 0.45656 4.66859 1.00556 0 0 0 -0.0690233 -0.190967 -0.0489071 0.0224723 0.179145 0.0537229 0.00714376 -0.0183712 0.0815365 0.5 -0.0111569 -0.0283558 -0.00307937 0.0254377 0.0102902 -0.0083432 
625 2 0.422142 3.90513 0.219853 0 0 1 -0.0348857 0.0184743 -0.00470607 0.0433557 0.0389336 0.0193673 0.071035 -0.0118274 0.00201129 0.5 0.00738829 0.0447406 0.0156955 0.0136959 -0.00322327 -0.0131517 
91 1 2.22281 4.76407 1.6723 0 0 1 -0.0167405 -0.081927 0.055429 0.0281143 0.0729583 -0.111183 0.0183552 -0.0399815 0.0173794 0.5 -0.0792956 -0.0494224 -0.0198271 -0.0188011 0.0352579 -0.00172321 
257 1 4.93568 2.71729 1.67104 0 0 0 0.000437734 -0.042387 0.0608591 0.00644328 0.0358363 -0.0402034 0.0391922 0.00454864 0.00152448 0.5 0.058192 -0.0446948 -0.136197 -0.0202108 0.0120099 -0.0425379 
4 1 3.71935 1.14855 1.95759 0 0 0 0.000221264 -0.0227215 -0.00506272 0.00807655 0.00172877 0.0242143 0.0447924 0.00682338 -0.00377855 0.5 0.0360005 0.0423251 -0.0509258 -0.0402614 0.0722137 0.0735557 
522 2 2.58897 2.53722 1.98748 0 0 0 -0.00733287 -0.0404316 0.050695 0.0102681 0.0310513 -0.0690615 0.0326809 -0.0122093 0.033525 0.5 -0.0883277 -0.0147866 -0.0126808 0.0719922 0.108081 -0.0283132 
117 1 3.12482 1.31075 1.15524 0 1 0 -0.00481594 0.0251158 -0.00559811 0.026394 -0.045099 0.00542586 0.0511003 -0.0110828 0.00121272 0.5 -0.0167555 -0.0120981 0.0388615 -0.00848432 0.0662611 0.0330136 
511 2 1.09072 2.21164 0.26186 0 0 0 -0.0176417 0.0725216 -0.0691401 0.0193783 -0.0695068 0.0790305 0.0828832 0.0071164 -0.00455295 0.5 -0.0494385 -0.175606 -0.351276 0.0727166 0.19097 -0.139642 
911 2 0.484923 0.569439 0.769466 1 0 0 0.0197238 -0.000335442 -0.123305 -0.0305096 -0.0136997 0.122855 0.00952956 0.0177864 -0.0333237 0.5 0.0199907 0.0121516 -0.00392501 0.00736277 0.0148076 -0.00901002 
668 2 0.00718988 3.90166 1.9245 0 0 0 -0.0278468 -0.153207 0.0187412 0.0645394 0.17414 -0.0342089 -0.00401524 0.0340976 0.0105075 0.5 -0.071179 -0.1952 -0.0749722 0.0636153 0.0017146 -0.0174758 
90 1 2.95623 4.56832 0.358395 0 0 1 -0.0283003 0.0423602 0.105012 0.0237475 -0.0534191 -0.10912 0.0337052 -0.0261776 -0.0125949 0.5 0.15308 -0.00706503 -0.00483816 0.0151134 0.0727234 -0.0315892 
734 2 4.13916 3.21744 0.31825 0 1 1 -0.0152633 0.0658249 0.0870792 0.0261423 -0.0879734 -0.0607862 0.0423557 -0.00443007 -0.0179476 0.5 0.0501527 0.018612 0.0143215 -0.0440589 -0.0100561 0.00428442 
672 2 0.0867539 2.05536 1.72922 0 0 0 -0.0149773 -0.136826 -0.0652382 -0.0189191 0.159907 0.057339 0.0431775 0.0015396 0.0212337 0.5 -0.177249 -0.229732 -0.1168 0.0723828 0.105017 0.0254366 
759 2 4.94812 2.04606 0.929599 0 0 0 0.0173267 -0.00974822 0.0331468 -0.0116418 0.00961957 -0.0174265 0.0463663 0.0152497 -0.0027697 0.5 -0.0319466 -0.139167 0.0125889 -0.07682 0.0239962 -0.0716783 
609 2 2.00602 4.74315 0.0947735 0 0 1 -0.0151399 0.0714105 0.0682484 0.0055628 -0.121431 -0.0686888 0.0417724 -0.0332223 0.00900537 0.5 0.0735021 -0.33681 -0.0412523 0.0980354 0.0890662 -0.0639627 
622 2 0.963083 4.77519 0.0561496 0 0 1 -0.0491208 0.0636761 0.0499822 0.0515835 -0.0363409 -0.0630992 0.0745777 -0.00156419 0.0185668 0.5 0.0517451 -0.0037011 -0.0674436 0.0365971 -0.0172858 -0.00601299 
378 1 4.63363 2.38196 0.0334171 0 0 1 -0.0379856 0.0529829 0.0675025 0.039777 -0.066746 -0.0582727 0.045301 0.0126969 -0.0053855 0.5 -0.0156813 -0.0415392 -0.00325252 -0.0657798 -0.0209522 -0.08239 
21 1 1.84061 0.408655 2.49005 0 0 0 0.0491848 -0.102096 -0.112826 -0.0794689 0.106389 0.0976407 0.0170032 0.00436268 0.00202039 0.5 0.00622088 0.00193048 -0.0149159 -0.00316625 0.00989458 -0.0219347 
682 2 2.72807 4.11553 2.73425 0 0 0 -0.00682455 -0.0537202 0.0645923 0.0274382 0.0369293 -0.0523041 0.00956156 -0.00930039 -0.00451991 0.5 -0.0584461 -0.0538159 -0.0538041 -0.000740856 0.109607 0.031596 
907 2 0.973558 4.68153 2.635 1 0 0 0.00953888 -0.0971221 -0.0184443 0.00255627 0.0910844 0.0505449 -0.0112308 -0.00607421 0.0123932 0.5 -0.136626 -0.265537 -0.185517 0.0322805 0.101398 -0.0612184 
144 1 1.67295 3.65058 2.80567 0 0 0 0.0183993 -0.0859978 0.00397466 -0.0173645 0.0842726 0.0284023 0.000719178 -0.0171418 0.0037153 0.5 0.000551996 -0.0262701 0.013779 0.00347616 0.0254717 -0.00592039 
675 2 2.80384 4.77266 3.50704 0 0 0 0.0388075 -0.0574589 0.0605151 0.00696619 0.0448873 -0.0457421 -0.00954338 0.0116482 -0.0082773 0.5 -0.00495157 -0.0196204 -0.02559 -0.0109252 0.0203899 0.00503701 
502 2 4.37669 1.3609 3.26786 0 0 0 0.0216661 -0.0969306 0.00488874 -0.0137418 0.0893962 0.00939816 0.0276145 0.00306519 -0.00213835 0.5 -0.0645461 -0.0687955 -0.0385288 -0.032302 -0.0135936 0.0252892 
27 1 2.59326 0.340275 3.23471 0 0 0 0.0274972 -0.064203 -0.0367002 -0.023693 0.0364409 0.00897534 0.00692537 -0.0057907 -0.00715305 0.5 -0.120965 -0.121231 -0.164047 0.042807 0.0627853 0.0464621 
965 2 1.32468 3.70336 3.8134 1 0 0 0.0617927 -0.0673652 -0.0229955 -0.0631061 0.0516568 -0.00285471 -0.0237712 0.000758994 -0.0191379 0.5 -0.0204448 -0.0925731 -0.0512163 0.0505262 -0.0455142 0.0409841 
61 1 1.65111 0.492753 3.56287 0 0 0 0.0254181 -0.0773134 -0.065154 -0.0108707 0.0826053 0.0559818 -0.0194846 -0.013067 0.00761853 0.5 -0.0563482 -0.00411394 0.0166864 0.00316711 0.082346 -0.0151721 
680 2 1.1937 2.8229 3.35709 0 0 0 0.00903299 -0.0637567 -0.0140262 -0.0359259 0.04341 0.0089072 -0.00634154 0.0079903 -0.00284654 0.5 -0.0310932 -0.0265869 -0.106687 0.00499363 0.0470689 0.0178808 
251 1 4.68445 3.09653 3.84432 0 0 0 0.0451542 -0.131614 0.10735 -0.021232 0.131669 -0.115209 0.0257104 0.00525682 -0.0298552 0.5 -0.0768535 -0.018833 -0.00676992 -0.0415384 0.0279837 0.0283291 
517 2 4.01486 2.93582 2.18613 0 0 0 -0.0192046 -0.0671655 0.0608443 0.0258444 0.0457116 -0.0868927 0.0122721 0.0224305 -0.0198846 0.5 0.00510062 -0.0153089 0.0127545 -0.00372733 0.0179422 -1.24628e-05 
6 1 3.40853 1.80705 2.70872 0 0 0 0.0352726 -0.0446719 0.0430388 -0.0534979 0.0420059 -0.0363987 0.0390889 0.000788118 0.0030788 0.5 -0.218315 -0.00674141 0.027187 -0.0126574 0.0751175 0.0180634 
519 2 4.42573 3.66117 2.97579 0 0 0 0.00997656 -0.0937635 0.101891 -0.00640769 0.130801 -0.100912 0.00802667 0.00703197 -0.0151777 0.5 -0.132406 0.0567724 -0.0442397 -0.0159402 0.103861 -0.00143034 
509 2 1.90028 1.54093 3.6744 0 0 0 0.0826148 -0.0541166 -0.088362 -0.118099 0.0759342 0.109573 -0.0224546 0.0424605 -0.011884 0.5 0.0290739 -0.0148237 -0.106956 -0.0174819 0.0278459 0.0242632 
142 1 1.03792 1.99274 2.1995 0 0 0 0.0133596 -0.0947562 -0.0486017 -0.0401053 0.107075 0.0295924 0.023299 -0.00400406 0.0221102 0.5 -0.0372475 -0.0273427 0.000891448 0.0204894 -0.0165682 0.0312428 
941 2 0.2047 2.33758 2.80637 1 0 0 -0.00071205 -0.146553 -0.0630585 -0.0476426 0.134429 0.0850627 0.00234191 0.000951513 0.0109567 0.5 -0.0251392 -0.0616619 -0.127768 -0.0134943 0.0192121 0.0271828 
919 2 0.633505 4.37101 3.53632 1 0 0 0.0408919 -0.0917576 -0.0244071 -0.0608631 0.0800865 0.055799 -0.0237812 0.0131513 -0.0046196 0.5 -0.0789789 -0.157409 -0.0898911 0.0726838 0.0224645 0.02444 
95 1 3.53033 3.81362 2.21877 0 0 1 0.00703572 -0.0550297 0.0899252 0.0140349 0.0412037 -0.0792537 0.0241862 -0.003253 -0.0123639 0.5 -0.0943388 -0.057139 -0.0297901 0.0064085 0.0330605 -0.0421102 
458 1 1.5524 4.81363 3.82859 1 0 0 0.00262348 -0.117146 0.0581992 0.00336257 0.160546 -0.0495782 -0.0110448 -0.00286993 0.0288597 0.5 0.0154341 0.00693786 0.005908 0.00171432 0.00634419 -0.00432895 
41 1 1.13298 1.00631 2.064 0 0 0 0.0370854 -0.0872497 -0.0853978 -0.0556537 0.100478 0.0748929 0.0328903 0.00831031 0.0194868 0.5 -0.0110839 -0.0125499 0.0206109 0.0143371 0.0459194 -0.0653728 
814 2 0.257856 1.27002 3.44859 1 0 0 0.033945 -0.0644767 -0.0708222 -0.0386293 0.0470725 0.0437506 -0.0114935 -0.0150085 0.0224176 0.5 -0.0399363 -0.107911 -0.113614 0.0473472 0.0117854 0.0828137 
130 1 1.71604 2.69146 2.51457 0 0 0 -0.0053411 -0.0782709 -0.0207349 -0.0241595 0.0879313 0.00958615 0.00787204 -0.00367787 0.00981195 0.5 -0.0896025 -0.138923 -0.139268 0.0503806 0.0801977 0.0535709 
12 1 2.68343 1.12411 2.62036 0 0 0 0.0492573 -0.0513976 -0.0170896 -0.0791156 0.0519753 0.015368 0.0271692 -0.0160833 0.00165855 0.5 -0.217258 -0.23436 -0.144549 0.0746882 0.0546012 -0.0140744 
512 2 3.15708 2.03899 3.77076 0 0 0 0.0605801 -0.0119621 0.0496578 -0.064527 0.022313 -0.0943503 0.0112295 -0.0064884 0.0110531 0.5 0.000301281 -0.024675 0.00477226 -0.00544265 0.0210319 0.0191373 
151 1 2.47646 3.34207 3.31645 0 0 0 0.000212613 -0.070516 0.0425405 0.00688459 0.0661208 -0.0232269 -0.00532152 -0.00354891 0.0184634 0.5 -0.0318289 -0.125843 -0.102699 -0.0250246 0.0642627 0.0412155 
667 2 0.278463 1.38905 2.45449 0 0 0 0.0322993 -0.129614 -0.0771637 -0.0552219 0.134729 0.0534199 0.00811291 -0.00278761 0.0268916 0.5 -0.0424169 -0.164325 -0.110863 0.00563922 0.0144248 0.0335103 
38 1 3.76567 0.755602 3.88176 0 0 0 0.0510278 -0.0221046 -0.0208313 -0.0612646 0.000325782 0.0344408 -0.0131828 0.00250303 -0.0230317 0.5 -0.0585054 0.00957187 -0.0325035 -0.0624349 -0.0113623 0.0705983 
936 2 0.329625 3.41518 3.51695 1 0 0 -0.000622339 -0.0766656 -0.0194633 -0.0361358 0.0687034 0.0170881 -0.00388268 -0.00696694 -0.00140812 0.5 -0.0165371 -0.177764 -0.0911633 -0.00412976 0.0650216 0.0997843 
531 2 4.79752 0.860099 2.48355 0 0 0 0.0118041 -0.0818304 -0.0108202 -0.0234327 0.0541108 0.0242073 0.0258832 0.00122784 -0.00968861 0.5 -0.0315318 -0.0292521 -0.087368 -0.038218 -0.0536406 -0.0529541 
527 2 3.9991 4.35154 3.56004 0 0 0 0.0469479 -0.0496766 0.0769357 -0.0468671 0.0308766 -0.0160357 0.000723729 -0.0143802 -0.0252044 0.5 -0.399406 -0.159655 -0.098061 -0.191834 0.185982 0.0439747 
383 1 4.35837 4.37411 2.23241 0 0 1 0.00693327 -0.0552244 0.106436 0.00798886 0.0505213 -0.122036 0.0310038 0.00718764 -0.0090636 0.5 -0.0638885 0.0254854 0.0700524 -0.0429541 0.00757111 -0.0635282 
992 2 0.672615 0.476294 3.90449 1 1 0 0.0489827 -0.0493608 -0.0787291 -0.0594519 0.01928 0.0494851 -0.0134266 0.0113183 -0.00210645 0.5 -0.0679002 -0.170405 -0.0266325 0.0452415 -0.0164954 0.0864938 
521 2 4.90566 4.56257 3.18799 0 0 0 0.0634833 -0.0742067 0.12236 -0.0848968 0.0869674 -0.142337 0.00303311 0.0109727 -0.00589927 0.5 -0.122017 0.107349 0.0287368 -0.0589965 0.0124754 0.136748 
136 1 1.8789 1.7163 2.66459 0 0 0 0.0260042 -0.0794755 -0.0622958 -0.050164 0.088769 0.0370972 -0.00634378 0.0166683 0.0171903 0.5 -0.207285 -0.176546 -0.116437 0.127878 0.0134428 0.0311739 
540 2 4.49724 0.224695 3.41962 0 0 0 0.0306309 -0.0801177 -0.00597221 -0.046648 0.0699023 -6.54635e-05 0.00786858 0.00543025 -0.0246866 0.5 0.022494 0.0204152 0.00970078 -0.0250703 -0.00794833 0.0125028 
510 2 3.83795 2.60443 3.13374 0 0 0 0.0408562 -0.0619831 0.0717351 -0.0352522 0.058638 -0.0892634 0.00891002 0.0111416 -0.00172702 0.5 0.0910769 0.091499 -0.0112891 -0.0446648 0.0148378 0.0337648 
19 1 4.35236 1.86517 2.38356 0 0 0 0.033187 -0.0417568 0.0373802 -0.0378165 0.0309921 0.00519532 0.0348259 0.00388138 -0.0153779 0.5 -0.238065 0.0137667 -0.0624601 0.0214487 0.127623 0.00434768 
543 2 1.05587 1.82855 3.22152 0 0 0 0.0474951 -0.0694128 -0.0343679 -0.065812 0.0711038 0.0172565 0.0128273 0.0216618 0.00538979 0.5 -0.00444289 0.00559732 0.00606515 -0.0161522 0.0486381 0.00946294 
773 2 4.77417 2.27847 3.27603 0 0 0 0.0309916 -0.101414 0.0614513 -0.0306909 0.0955592 -0.0624381 0.0162147 0.0116684 -0.0100312 0.5 -0.0423776 -0.152135 -0.167374 -0.11687 0.141357 0.136082 
555 2 2.21343 2.54881 3.86569 0 0 0 0.0602753 -0.0726244 0.0667888 -0.0810873 0.0630138 -0.0736727 -0.0128088 0.0042714 0.0135005 0.5 -0.0464756 -0.0243613 -0.0291888 -0.0282457 0.0403681 0.0255662 
429 1 0.319518 2.45274 3.79305 1 0 0 -0.000142218 -0.0878687 -0.0699229 -0.058987 0.0805716 0.0911543 -0.00153517 -0.00286796 0.0244643 0.5 -0.0133864 -0.260628 -0.163792 0.0406799 -0.023406 0.154117 
316 1 0.87571 0.569134 2.9261 1 0 0 0.0371907 -0.0907847 -0.0865728 -0.0212997 0.0571871 0.062766 -0.00347668 -0.00736795 0.0103639 0.5 0.0394218 0.00316731 0.0571713 0.0198815 0.011156 -0.00666482 
503 2 3.60362 0.807658 2.89303 0 0 0 0.0358944 -0.0691326 -0.0193113 -0.060991 0.0699342 0.0409818 0.0159808 0.00931525 -0.00170549 0.5 -0.0707271 -0.0126571 -0.0735043 -0.0177448 -0.0197604 0.0142377 
896 2 0.689195 3.72283 2.63364 1 0 0 0.0206455 -0.100582 -0.0145911 -0.0153505 0.0975344 0.0192745 -0.0131227 0.0113905 0.00701093 0.5 -0.0296823 -0.168422 -0.151539 -0.019681 0.0159891 -0.00900446 
690 2 1.93808 4.70639 2.89789 0 0 0 -0.00958792 -0.0520644 0.0453846 0.0203387 0.0171032 -0.016439 0.0178679 -0.0259644 0.0201634 0.5 -0.070353 -0.0157711 0.0062824 0.0364651 0.0234911 -0.00602462 
641 2 3.45415 3.53671 3.17709 0 0 0 0.00325086 -0.0656817 0.0869652 0.00930906 0.0525812 -0.0767034 -0.00460236 0.00285763 -0.00155177 0.5 -0.00937282 0.0868066 0.059255 -0.0717246 0.0379246 0.0153534 
528 2 3.32823 4.83545 2.3849 0 0 0 0.00772272 -0.0478457 0.10246 0.0387837 0.012855 -0.0766166 0.0382364 0.0134378 -0.0183465 0.5 0.00480136 -0.00894848 -0.0028342 -0.0113923 0.0130515 0.0179286 
225 1 2.66391 2.41909 2.97792 0 0 1 0.0195414 -0.067005 0.0461459 -0.0394847 0.0717907 -0.0623178 -0.00210458 0.0203358 0.0272105 0.5 -0.0337265 -0.0740772 0.0307423 0.0469186 0.0337276 -0.0407783 
119 1 0.630911 2.89742 2.07217 0 0 0 -0.0174352 -0.10301 -0.00735942 0.010737 0.122304 -0.0169177 0.0197487 0.00669787 0.0156477 0.5 0.0572075 -0.129626 -0.241197 0.0093041 0.0602431 -0.0752239 
200 1 2.42837 0.227412 4.21481 0 1 0 0.052632 -0.024989 -0.0296543 0.020919 0.00711567 0.0139688 -0.0264874 -0.0167586 0.0123632 0.5 -0.0723586 -0.0387749 -0.114386 -0.0122434 0.0920213 0.0281483 
114 1 4.6815 1.03631 4.16906 0 0 0 0.0566518 -0.0665717 0.00052999 -0.0750441 0.0631641 0.0159121 0.00223337 0.00246164 -0.00915131 0.5 -0.106117 0.00727159 -0.0676119 -0.010796 -0.0803332 -0.00440188 
820 2 1.30037 2.31964 4.21466 1 0 0 0.0284316 -0.0339814 -3.71098e-05 -0.0490963 -0.00323315 -0.0157141 -0.0116262 -0.022283 0.0116221 0.5 -0.0834207 -0.0580777 -0.0871733 -0.0175923 0.0313204 0.0648496 
47 1 4.60562 1.61334 5.4213 0 0 0 0.101901 -0.0655081 0.0321125 -0.0687717 0.0542593 -0.0518741 0.0235068 0.0195256 0.0144093 0.5 -0.0698112 -0.0606139 -0.0345483 -0.0501485 -0.0391951 0.0224102 
824 2 1.62581 3.80778 5.75222 1 0 0 0.0628051 0.0707774 0.0766345 -0.102799 -0.124991 -0.0905523 -0.0641701 0.000418814 -0.0145295 0.5 -0.0506363 -0.0350261 -0.111476 -0.0293052 0.0333307 0.0334096 
172 1 3.41509 0.327713 4.71639 0 1 0 0.0471237 0.032784 0.00365415 -0.0429875 -0.074007 0.0026497 -0.0258361 -0.013064 -0.00279982 0.5 -0.0336702 -0.0325996 -0.0912124 -0.0279332 0.0229512 0.040843 
718 2 0.196602 2.01998 5.52046 0 1 0 0.00434159 0.0303033 -0.0149433 0.0114059 -0.000129298 0.00388426 -0.0203241 -8.25782e-05 0.00195971 0.5 -0.0932721 0.00948344 -0.0338364 0.0606107 -0.0755882 0.161889 
505 2 0.476617 3.43414 5.81416 0 0 -1 0.0370511 0.120751 0.0135092 -0.0785117 -0.097361 0.0295044 -0.00862713 -0.00197935 0.0112824 0.5 -0.0462154 -0.233374 -0.127777 0.00151512 -0.0281059 0.172945 
524 2 3.93977 2.72754 5.64112 0 0 0 0.076886 -0.00265435 0.0939514 -0.0499284 0.0131838 -0.0456107 0.00641913 0.0102571 0.00657919 0.5 -0.000558868 0.0233247 0.00233897 -0.00931213 -0.00979523 0.0160103 
839 2 0.559586 1.65868 4.35138 1 0 0 0.0531646 -0.0744554 -0.0734784 -0.0958228 0.0661389 0.0829979 -0.0161562 -0.0213867 0.0366622 0.5 -0.045171 -0.253549 -0.188466 0.0421297 0.00707996 0.194018 
937 2 2.42305 3.42246 4.31258 1 0 0 0.0450457 -0.055751 0.0427511 -0.0814776 0.0465907 -0.0276214 -0.0092958 -0.00873328 0.00289733 0.5 -0.28564 -0.059425 -0.174918 -0.127257 0.137881 0.121646 
811 2 2.58024 3.95135 5.48828 1 0 0 0.0650317 0.0126982 0.0554766 -0.0924608 -0.0800541 -0.0239979 -0.0129833 -0.0121916 -0.0307466 0.5 -0.0801744 -0.0865654 -0.0345519 -0.0782377 0.0186705 0.0631161 
827 2 1.51181 3.20773 4.66395 1 0 0 0.023887 -0.036244 0.000280875 -0.0681245 0.0212255 -0.0144762 -0.0237101 -0.0294342 -0.0228824 0.5 -0.23674 -0.0911882 -0.231139 -0.0331698 0.0817612 0.122235 
149 1 4.03 3.94884 4.56842 0 0 0 0.0480461 -0.032478 0.0910163 -0.051363 0.0570727 -0.0986301 0.00699876 0.00912442 0.00165301 0.5 -0.0441435 0.00406804 0.0409352 -0.0151401 0.0884218 0.0542497 
925 2 0.60044 3.59952 4.538 1 0 0 0.0430375 0.0037331 -0.0145178 -0.0689705 0.00455911 -0.0483291 -0.0187853 -0.00533028 -0.0131939 0.5 -0.104617 -0.033997 -0.000462625 0.0411523 -0.0484358 0.0251786 
168 1 3.30137 4.61238 5.2748 0 0 0 0.0934691 -0.00904809 0.0958913 -0.167065 -0.00614297 -0.0711948 -0.00693663 -0.00108172 0.0106618 0.5 -0.134708 -0.101451 -0.120752 -0.0543935 -0.00900735 0.0655494 
928 2 1.56462 4.40592 4.95221 1 0 0 0.0180168 0.0145747 0.0395102 -0.0285687 -0.0366242 -0.0285198 -0.0474163 -0.0160555 -0.0173379 0.5 -0.162098 -0.122698 -0.113948 -0.0816719 0.113415 0.0613254 
148 1 3.91668 3.73441 5.67358 0 0 0 0.0459486 -0.00193617 0.126483 -0.047492 0.0153694 -0.115635 -0.0194432 -0.0232361 0.0204148 0.5 0.00938449 0.0559676 0.0263784 0.0335696 0.0231448 0.0345095 
914 2 4.67596 4.40954 5.17743 0 0 0 0.0442299 -0.0610307 0.11846 -0.0691751 0.0748525 -0.0935555 -0.00741684 -0.00345222 -0.0200366 0.5 0.038331 0.00726688 0.0673856 -0.000341436 0.0283922 0.0362767 
23 1 2.85362 1.1342 4.07411 0 0 0 0.0545409 -0.0260776 -0.000749699 -0.0707054 0.0311963 -0.0793919 0.0156366 -0.00825582 -0.00781132 0.5 -0.0464784 -0.0488165 -0.0462813 -0.0245 0.0119943 0.0342683 
594 2 2.03044 1.95438 4.80407 0 0 0 0.0553663 0.0183212 -0.0121817 -0.0805761 -0.00264501 0.045944 0.00238774 -0.0284734 -0.00486411 0.5 -0.0208796 -0.0993615 -0.0347712 0.0345864 -0.0249789 0.0407513 
539 2 3.74631 1.02468 5.44514 0 0 0 0.0919648 0.0221433 0.0428171 -0.151988 -0.0282407 -0.0611001 -0.00593797 0.000253078 -0.0175143 0.5 -0.0474577 -0.273718 -0.110576 -0.0748595 -0.087575 0.226873 
730 2 0.450012 1.10583 5.17738 0 1 0 0.0114024 0.0215315 -0.0147189 -0.00427694 -0.0082269 0.0394897 -0.00599435 0.00570526 0.0201509 0.5 0.0468721 -0.119538 -0.115451 -0.0334671 -0.0271446 0.14593 
689 2 3.50825 0.0849899 5.69626 0 1 0 0.0107989 0.0358342 -0.00180628 0.0068355 -0.0636081 -0.00937018 -0.0076235 -0.0239204 -0.037449 0.5 -0.0305675 -0.283075 -0.140069 -0.0149635 0.00957169 0.170352 
450 1 0.566968 4.80871 4.48583 1 0 0 0.0875835 -0.0110237 -0.0610008 -0.0322571 0.0354154 0.110557 -0.0796441 -0.000251332 -0.0178513 0.5 -0.0310137 -0.0554733 -0.149929 0.0332198 -0.053026 0.0711836 
549 2 4.48985 0.517441 5.00521 0 0 0 0.0347886 -0.0423622 0.0127576 -0.0710599 0.0525305 -0.000878157 -0.00759618 0.0150999 -0.0319713 0.5 0.0924324 0.127586 0.089647 -0.0315318 -0.0507151 0.0488613 
591 2 1.40806 1.13718 4.44708 0 0 0 0.0893819 -0.0127119 -0.0637437 -0.133511 0.00472072 0.0632371 -0.0236391 0.00897855 -0.000829821 0.5 -0.0293158 -0.0989987 -0.0380214 0.0250849 0.0137904 0.0497264 
243 1 1.20128 1.81033 5.37859 0 1 0 -0.00667874 0.0393446 -0.0933601 0.0297717 -0.00205726 0.165138 -0.0101938 -0.0146797 0.0146128 0.5 -0.0361053 -0.107403 -0.0338542 -0.000951574 -0.0203949 0.0570994 
646 2 3.7091 3.14299 4.06036 0 0 0 0.046456 -0.0338895 0.0885884 -0.0156537 0.0272461 -0.0813454 -0.00276886 0.00865507 -0.0144064 0.5 -0.0693063 -0.123138 -0.0391415 0.0119175 0.0355226 0.0808879 
374 1 0.570011 2.63372 4.82394 1 0 0 0.0205161 0.00301063 -0.0290724 -0.031514 0.0150968 -0.00605756 -0.0169008 -0.0259746 -0.00864816 0.5 -0.026966 -0.038185 -0.0370052 -0.0227224 0.0158654 0.0316465 
418 1 0.65412 4.30646 5.35574 1 0 0 -0.00462861 0.124304 0.0110168 0.0108431 -0.105443 0.0339071 -0.0517747 -0.0230569 -0.0163397 0.5 -0.0951539 -0.153751 -0.140505 -0.0548167 0.056699 0.100652 
190 1 2.17786 2.40449 5.98455 0 1 0 -0.0269456 0.091023 0.0698564 0.0213703 -0.161673 -0.045952 -0.0157113 -0.0378072 -0.0243847 0.5 -0.00246709 -0.0647509 -0.111854 -0.00743735 0.022583 0.103702 
507 2 3.65926 1.49697 4.56501 0 0 0 0.0409251 -0.0424393 0.0208074 -0.105114 0.0498063 -0.0352639 0.016971 0.00454418 0.00455016 0.5 -0.0575046 -0.0521604 -0.137409 -0.0784223 0.0215001 0.208074 
155 1 4.84319 3.43297 4.84283 0 0 0 0.051244 -0.0402195 0.0658367 -0.0604863 0.0475244 -0.107718 -0.00702508 0.0142208 0.000256795 0.5 -0.00831197 -0.134157 -0.179581 -0.00309047 -0.0334955 0.142306 
573 2 2.46797 2.83754 5.12446 0 0 0 0.0709651 -0.0301628 0.0564081 -0.132292 0.0711581 -0.00162162 -0.0320951 -0.0348386 -0.0127944 0.5 -0.055538 -0.124631 -0.14018 -0.067166 0.0601738 0.122342 
766 2 5.00895 3.00352 5.73075 0 0 0 0.0604868 0.0278137 0.0937512 -0.0977327 0.019549 -0.107901 0.0037394 -0.00598875 -0.0261207 0.5 -0.0612542 -0.181603 -0.223371 0.0140438 -0.0141521 0.161105 
513 2 3.43892 2.45758 4.7365 0 0 0 0.0466081 -0.0492533 0.0731739 -0.0466772 0.0641001 -0.0562654 0.0144366 0.00242066 -0.00701116 0.5 -0.0276904 -0.00326453 -0.147678 -0.0486171 0.0535443 0.163974 
180 1 2.36674 4.46257 4.35779 0 0 0 0.0420767 -0.0311775 0.0675301 -0.0804001 0.0106309 -0.0936138 -0.0310723 -0.0081732 0.00565349 0.5 -0.131153 0.0127702 -0.0870011 0.0250947 0.112359 0.00748764 
154 1 3.27539 3.4286 4.96852 0 0 0 0.0746513 -0.0468605 0.118878 -0.0692475 0.0635528 -0.115275 -0.0100719 -0.0100832 0.00285232 0.5 -0.0861701 0.0113756 0.0216367 -0.0726233 0.0430336 0.065543 
740 2 1.29521 2.79205 5.54724 0 1 0 -0.0380133 0.0229646 0.0131401 0.0152288 0.0230646 0.00198047 -0.0244693 -0.0383162 0.00806256 0.5 -0.0216964 -0.110512 -0.259983 -0.0218573 0.0197658 0.113067 
657 2 4.068 4.7136 5.91251 0 0 0 0.0711744 0.00485261 0.114384 -0.115513 0.0408567 -0.125788 -0.0402913 -0.0112298 -0.0117905 0.5 -0.0869566 -0.0914783 -0.0576567 -0.0111101 -0.0923813 0.06838 
187 1 2.42434 1.05053 4.98079 0 1 0 0.0414214 0.0153207 -0.00793406 0.0396275 0.0321507 -0.0202397 -0.0169377 -0.0225927 -0.0175095 0.5 -0.0223835 -0.114729 -0.0776195 -0.00742254 0.0210792 0.0769848 
127 1 3.19896 1.86318 5.5042 0 0 0 0.033934 -0.0214968 0.0875757 -0.0356949 0.0497541 -0.0595088 -0.0523003 -0.0121559 0.0185467 0.5 -0.0130757 -0.0964114 -0.165247 -0.00886368 0.0338052 0.08269 
708 2 1.35332 0.763883 5.43754 0 1 0 0.0576422 0.0683779 -0.112184 -0.0757919 -0.111901 0.129089 -0.0208589 -0.0127533 0.00930401 0.5 0.115534 0.0574676 0.00262938 0.00920559 0.0174821 0.0714553 
204 1 1.51287 0.156167 4.61069 0 1 0 0.0312051 -0.0200526 -0.0782102 0.0324707 0.0198685 0.0428034 -0.0277347 -0.0237686 -0.00823596 0.5 -0.153058 -0.0673727 -0.0792325 -0.00116663 0.101847 0.0971078 