ITEM: TIMESTEP
10500
ITEM: NUMBER OF ATOMS
1000
ITEM: BOX BOUNDS xy xz yz pp pp pp
0.0000000000000000e+00 1.0000000000000000e+01 0.0000000000000000e+00
0.0000000000000000e+00 1.0000000000000000e+01 0.0000000000000000e+00
-0.0000000000000000e+00 1.0000000000000000e+01 0.0000000000000000e+00
ITEM: ATOMS id type x y z ix iy iz vx vy vz fx fy fz omegax omegay omegaz radius c_2[1] c_2[2] c_2[3] c_2[4] c_2[5] c_2[6] 
861 2 2.34297 4.47131 0.138425 1 0 1 -28.053 -2.68564 5.13009 -857.446 2125.93 -479.923 0 0 0 0.5 -1978.48 -848.321 -315.02 792.048 -299.793 84.8663 
98 1 3.42971 2.65377 0.663087 -5 0 0 -154.149 -9.63409 7.59817 100.541 1433.27 508.809 0 0 0 0.5 -13400.7 -1294.08 -719.047 -106.375 56.6978 308.844 
636 2 2.05908 0.261793 0.698585 -24 0 1 -455.765 14.4102 -16.7691 359.132 -558.346 -799.568 0 0 0 0.5 -111424 -3283.42 -1169.87 5770.65 -3706.87 -195.695 
87 1 3.86134 3.96475 0.713723 3 0 1 -87.2271 10.3871 -1.71595 543.818 627.029 -359.754 0 0 0 0.5 -4112.7 -386.141 -1101.89 445.933 57.2844 -229.544 
852 2 0.125696 1.42622 1.69088 -28 0 0 -278.487 8.21608 -29.4795 -854.785 -34.0855 1773.37 0 0 0 0.5 -40765.8 -927.742 -486.988 1310.59 -4114.09 462.379 
659 2 1.11692 2.35668 1.28912 -7 0 0 -202.103 15.6802 20.3951 70.6552 683.307 1532.24 0 0 0 0.5 -21568 -304.32 -1167.47 1656.4 2234.44 -43.324 
919 2 1.29198 3.25424 1.08076 -4 0 0 -105.564 6.4913 2.84511 431.107 -453.4 -167.94 0 0 0 0.5 -5977.51 -101.435 -27.139 489.878 215.261 -68.3125 
529 2 1.07778 1.70177 1.89717 -7 0 0 -270.928 -6.52888 2.598 -1292.6 601.861 -1105.61 0 0 0 0.5 -38735.4 -400.587 -678.161 -720.678 100.919 489.914 
889 2 2.22799 4.54894 1.05084 -2 0 0 -38.4347 10.1239 5.46442 1481.71 -817.856 655.668 0 0 0 0.5 -1524.03 -430.695 -351.708 458.375 26.1546 -37.6538 
762 2 3.94658 1.52937 1.32375 -34 0 0 -287.685 -12.9723 9.81664 866.384 -2192.97 2187.97 0 0 0 0.5 -43415.2 -658.651 -571.389 -1728.63 1273.63 635.912 
27 1 0.513107 0.643227 1.80934 -26 0 0 -346.419 -17.6074 -41.7052 -3068.6 3389.77 -4349.78 0 0 0 0.5 -63630.9 -1719.45 -1930.07 -2100.05 -8483.17 835.197 
227 1 2.36669 1.28706 0.403583 -13 0 1 -296.186 7.47623 -32.3375 -3014.67 2740.24 -25.1685 0 0 0 0.5 -48994.7 -2180.95 -1230.2 2887.04 -5574.49 414.062 
512 2 0.327357 2.04317 1.07036 -5 0 0 -204.581 -10.6459 -4.40033 -1439.34 3398.44 -36.0175 0 0 0 0.5 -22968.8 -1628.84 -917.557 -325.429 -62.733 -102.954 
299 1 0.730261 2.67278 0.438855 -12 0 0 -185.877 11.7715 17.619 -616.57 261.094 -941.644 0 0 0 0.5 -19553.9 -640.97 -1182.72 2096.04 2011.2 -177.846 
450 1 2.41087 3.76004 1.52023 -2 0 0 -65.6529 -2.1204 12.7566 17.7503 163.268 152.387 0 0 0 0.5 -2267 46.1328 -760.126 -52.3808 355.563 -63.2185 
526 2 1.91669 1.60816 1.60659 -18 0 1 -260.375 -1.98611 -14.0381 -3345.54 717.998 181.739 0 0 0 0.5 -36941.2 -60.5559 -124.227 17.4938 -1774.18 -39.824 
7 1 2.57071 2.24598 1.07037 -8 0 1 -175.22 -12.9608 -19.3732 84.1609 270.449 -804.926 0 0 0 0.5 -16094.8 -444.462 -409.229 -1121.45 -1749.96 -84.4042 
383 1 2.6545 1.45542 1.55064 -10 0 0 -283.315 -5.8801 9.72709 2544.47 -666.852 1826.04 0 0 0 0.5 -43550.6 -626.019 -901.166 -407.016 1854.24 -284.367 
775 2 1.24314 0.254922 0.727871 -34 0 0 -453.655 0.77112 -5.66222 -1321.13 1511.65 -240.041 0 0 0 0.5 -108431 619.74 14.5513 447.548 -1259.59 211.61 
11 1 0.854231 1.42346 0.810513 -6 0 0 -289.2 -7.93847 -12.3888 914.015 -2203.86 -1225.22 0 0 0 0.5 -45113.2 -1126.72 -255.862 -96.2731 -1542.99 -453.05 
486 1 0.350344 0.363702 0.188896 25 1 1 -431.842 8.92601 -16.8825 839.073 -2972.69 -26.5833 0 0 0 0.5 -97757.8 -1460.46 -149.348 2418.73 -3813.75 66.2156 
547 2 1.68889 1.72052 0.147291 49 1 1 -273.781 -5.38701 13.0542 417.517 -1213.38 -1101.02 0 0 0 0.5 -40791.6 -1732.54 -1387.91 543.518 1460.74 373.549 
94 1 2.3222 3.19981 0.826729 -6 0 0 -134.722 -5.30993 25.2188 -1541.64 68.7667 654.375 0 0 0 0.5 -9900.53 -316.584 -1115.88 -209.203 2088.02 -296.661 
787 2 1.88492 0.600482 1.8632 -26 0 1 -457.196 5.31979 9.91156 187.602 -22.6035 23.5847 0 0 0 0.5 -109364 -13.6138 -50.1268 1263.5 2383.13 -28.8644 
643 2 1.33264 2.27435 0.458883 -17 0 1 -195.878 15.0361 26.7285 1412.65 886.984 641.678 0 0 0 0.5 -21275.8 -1256.54 -1506.36 2592.9 3150.12 -735.728 
760 2 4.65625 3.02637 1.3349 -8 0 1 -127.539 -12.5299 13.1123 1036.24 359.326 -601.072 0 0 0 0.5 -9064.58 105.513 155.287 -698.896 788.93 -138.813 
389 1 0.080922 1.31822 0.197432 -17 0 0 -305.798 -14.8782 8.92288 -294.255 2297.1 -553.607 0 0 0 0.5 -49075.1 -1893.46 95.4351 -1766.72 1341.57 -119.691 
130 1 1.58132 1.06802 0.801076 -13 0 0 -289.937 -8.45344 -4.73758 -2400.69 1808.57 1456.77 0 0 0 0.5 -45386.7 -1881.4 -336.151 418.068 -424.576 51.8342 
153 1 2.35676 2.7752 1.64517 1 0 0 -124.271 -11.7672 34.2291 -2261.49 3809.12 -2788.88 0 0 0 0.5 -8535.19 -947.181 -1714.83 -75.5506 1666.49 798.133 
597 2 4.53298 4.63606 0.389914 -4 0 1 -35.3455 -8.09575 9.08009 50.4308 857.637 -717.666 0 0 0 0.5 -1494.78 -531.486 -459.318 225.567 436.884 142.752 
763 2 4.04618 2.98368 0.0587732 -5 0 1 -138.609 -16.2587 4.46852 1299.78 -1699.38 1464.68 0 0 0 0.5 -10601.2 -1280.94 -409.195 -683.94 443.803 -122.957 
364 1 3.7425 3.26322 1.22988 -2 0 0 -112.011 -9.09819 -6.9404 -625.205 496.274 -710.707 0 0 0 0.5 -7132.97 -867.644 -658.148 -444.637 -459.834 -88.4887 
865 2 2.83345 2.95121 0.323908 -9 0 0 -152.322 -10.0441 3.93658 -1610.33 647.585 -1125.29 0 0 0 0.5 -13320.1 -649.244 -989.845 -156.193 666.143 -208.935 
69 1 0.644581 3.81844 1.34807 -13 0 1 -98.298 26.288 4.04253 -78.5496 263.483 1000.79 0 0 0 0.5 -5301.93 -449.317 -33.5769 1483.91 71.6163 -139.705 
879 2 2.76921 0.493937 1.97437 42 1 1 -436.398 4.44756 29.3646 -1125.35 1077.71 -4761.5 0 0 0 0.5 -100268 -528.433 -2389.65 1550.36 6523.27 301.727 
996 2 3.17982 4.86774 1.37836 3 0 0 -45.3933 4.12192 4.45616 288.458 1218.08 -1585.52 0 0 0 0.5 -1903.73 -661.31 -623.007 639.732 716.538 -45.8199 
347 1 1.15784 3.80986 0.214529 0 0 1 -72.1278 -9.67318 12.5381 296.945 -813.243 162.433 0 0 0 0.5 -3401.76 -507.543 -88.9952 234.741 551.248 -19.9683 
616 2 3.90731 4.76987 1.01392 -2 0 0 -25.1263 28.7784 1.62758 -72.4011 -564.305 -225.978 0 0 0 0.5 -1112.26 -300.257 -1345.72 576.134 84.1886 -477.386 
106 1 2.996 1.11797 0.910138 -17 0 0 -329.392 24.4334 -18.3194 2117.76 920.531 -1353.02 0 0 0 0.5 -57813.9 -1218.94 -1750.02 4803.27 -3547.05 345.691 
598 2 1.30936 4.85544 0.915831 0 0 1 -9.97218 1.94941 -1.02608 -593.102 -826.286 -914.925 0 0 0 0.5 -1084.64 -775.383 -908.013 702.839 -406.993 557.003 
92 1 0.0913899 4.7269 0.919468 1 0 1 -27.3856 16.3436 -6.17769 512.061 624.962 1131.63 0 0 0 0.5 -1238.46 -206.759 -369.247 255.627 179.859 -67.0469 
599 2 1.4018 4.61706 1.82099 1 0 0 -11.1518 8.42228 -20.2542 -5.13978 395.976 -51.4917 0 0 0 0.5 -370.565 -235.59 -1464.48 181.549 -337.567 554.169 
135 1 0.17182 2.96774 0.910487 -6 0 0 -155.424 3.13702 29.7757 -2103.47 578.24 1889.73 0 0 0 0.5 -13266 -852.975 -910.406 671.97 2917.68 -214.885 
697 2 3.748 2.49809 1.66353 -7 0 0 -168.237 -19.4915 -8.27725 -1584.36 1774.26 -5.87887 0 0 0 0.5 -15257.9 -849.844 221.272 -1086.58 -856.973 673.56 
249 1 2.89379 0.49791 0.328952 -24 0 1 -441.557 13.1474 -11.0157 2556.12 -5133.2 -1635.99 0 0 0 0.5 -102824 -1654.59 125.222 4197.38 -2419.89 -183.406 
754 2 3.26598 1.52224 0.110551 -10 0 1 -319.478 21.7562 -25.3062 1292.41 421.789 -599.857 0 0 0 0.5 -54001.5 -306.019 -474.068 3481.64 -4026.65 375.792 
746 2 3.56722 4.04034 1.60519 -2 0 0 -68.6746 12.4288 -11.6447 1988 -50.7269 345.644 0 0 0 0.5 -2982.26 -710.386 -906.492 1278.39 14.2572 -215.887 
790 2 4.7125 3.70011 0.616245 -5 0 1 -74.0376 -5.02542 -4.25053 230.399 -1563.54 901.316 0 0 0 0.5 -2934.48 -199.684 219.911 -82.7542 -197.552 -153.023 
419 1 3.23655 4.72061 0.376114 -1 0 0 -32.0255 0.200025 14.887 -1087.64 243.916 1484.76 0 0 0 0.5 -1044.25 -99.7402 -1122.19 206.998 272.553 -300.564 
388 1 2.92487 3.83721 0.202806 -7 0 1 -91.015 -3.09392 26.9457 1317.49 -687.644 -20.48 0 0 0 0.5 -5481.42 -791.533 -163.109 995.614 1310.24 43.1136 
333 1 0.632331 4.47488 0.206899 -1 0 0 -34.8949 12.0321 5.59669 -98.498 956.52 -714.356 0 0 0 0.5 -1222.91 -620.229 -507.238 734.151 284.22 -114.976 
682 2 3.74855 2.0497 0.822479 -10 0 0 -185.851 -22.0434 -20.4702 755.025 -741.515 -1214.06 0 0 0 0.5 -18424.6 -1734.52 -766.393 -1440.99 -2331.91 592.03 
674 2 4.00476 4.87034 1.91236 1 0 0 -20.6538 5.4409 -19.039 -930.437 -929.255 64.9751 0 0 0 0.5 -266.482 -716.297 -1496.04 420.557 -467.178 241.262 
41 1 0.0556827 3.84406 0.786392 -15 0 0 -102.905 2.69491 -24.5992 -664.875 1578.9 461.36 0 0 0 0.5 -5700.3 -606.761 -917.902 216.473 -1464.67 -134.332 
37 1 3.22964 0.649195 1.2594 -46 0 0 -411.28 -8.25883 17.367 1238.03 -2193.91 1473.46 0 0 0 0.5 -88726 -562.961 -517.524 -1526.95 3589.58 480.438 
528 2 4.92947 2.19736 0.379442 -5 0 0 -229.011 11.6169 -29.607 69.2198 -23.5781 32.1673 0 0 0 0.5 -27432.7 -67.4228 -452.945 1383.48 -3537.19 175.669 
965 2 0.868233 0.199405 2.26974 -16 0 0 -538.267 21.2286 -5.73046 3621.99 -5043.58 5018.05 0 0 0 0.5 -152353 -1139.96 -1102.25 6850 -2501.99 1029.9 
901 2 0.378156 1.10554 2.60045 -10 0 0 -310.715 -18.3908 -11.3586 409.69 1636.22 -105.458 0 0 0 0.5 -50431.1 539.34 626.456 -2853.77 -1624.54 136.339 
941 2 1.41991 2.48967 2.43945 -9 0 0 -197.656 -3.48907 15.2194 59.0847 343.898 94.448 0 0 0 0.5 -20451.5 142.505 -110.052 -335.513 1582.12 68.6919 
689 2 3.94156 1.94841 3.55237 -23 0 0 -254.537 -7.39334 -21.5075 1790.53 402.134 2333.52 0 0 0 0.5 -35441.6 -747.778 -901.413 -514.16 -3269.75 -266.785 
214 1 2.43125 4.14628 2.96318 -3 0 0 -56.2263 13.1522 -20.7954 -1266.13 939.446 1776.04 0 0 0 0.5 -2944.52 -1323.37 -1253.61 1077.98 -811.736 -330.802 
314 1 0.932322 3.1748 3.42854 -7 0 0 -162.906 30.2656 -13.8159 547.834 1387.91 164.498 0 0 0 0.5 -14305.8 -890.851 -278.369 2640.51 -1443.88 309.2 
907 2 2.43355 4.74864 3.61366 2 0 0 -16.4033 1.19642 -17.7205 3.72789 974.157 1051.97 0 0 0 0.5 -140.888 -294.149 -506.561 9.15294 -153.41 -305.734 
502 2 0.871508 1.0839 3.3298 -18 0 0 -306.578 -10.963 19.0443 -1139.71 964.617 -1522.94 0 0 0 0.5 -49540.2 -1023.54 -846.475 -1769.76 2592.27 74.4261 
357 1 1.45897 1.29537 2.52923 -31 0 1 -307.944 -15.4719 3.4976 132.127 -1226.99 832.769 0 0 0 0.5 -50132.9 -351.789 -790.207 -2346.91 -26.5068 312.287 
276 1 1.30338 1.8374 3.60113 -21 0 1 -236.007 -30.687 9.08867 279.504 -144.673 -1384.59 0 0 0 0.5 -29446.7 -1957.36 -551.578 -3580.14 961.967 590.04 
392 1 2.49098 3.37152 2.36662 -7 0 0 -113.591 5.76351 14.3482 -575.9 -1078.56 -415.57 0 0 0 0.5 -7039.76 -601.635 -1260.24 316.73 502.932 -365.053 
490 1 2.12961 1.42225 3.16555 -25 0 0 -318.262 7.53118 -5.14894 -658.873 2451.7 1542.91 0 0 0 0.5 -53540.7 -1537.82 -863.347 1628.32 -1018.98 -757.229 
514 2 1.15747 2.51066 3.65596 -11 0 0 -209.401 -5.36804 9.07872 -591.453 598.42 389.227 0 0 0 0.5 -23251.6 -1143.62 -118.228 -403.628 889.683 72.0697 
15 1 1.93414 2.86635 3.91628 -16 0 1 -206.579 18.0453 -2.76427 124.277 2015.45 -2446.51 0 0 0 0.5 -23129.8 -832.061 -1155.41 2162.71 -217.886 -7.99176 
973 2 2.61384 0.81673 3.72684 -17 0 0 -353.059 -21.1209 -10.5066 306.502 -360.071 400.828 0 0 0 0.5 -65339 -343.451 -182.353 -3816.92 -2031.35 -15.64 
96 1 2.37624 0.777985 2.79193 -18 0 1 -413.714 3.60469 -1.64878 140.52 -2294.8 261.094 0 0 0 0.5 -89958.5 -1079.45 -1205.13 1293.46 257.791 -855.192 
933 2 0.286281 2.42 2.34281 -2 0 0 -186.995 -2.31787 -31.9628 2072.43 -236.858 1038.79 0 0 0 0.5 -18968.9 -386.136 -1878.06 -149.233 -3885.46 -229.027 
313 1 0.622047 1.94098 3.01118 -13 0 0 -239.393 0.346394 2.74414 -577.5 -1383.33 -566.227 0 0 0 0.5 -30127.7 285.222 -173.58 390.691 214.355 567.43 
867 2 0.827229 0.283063 3.22667 -31 0 0 -405.591 -8.07405 7.15894 -2059.87 1201.56 -2669.55 0 0 0 0.5 -86448.6 -1331.38 -662.267 -1366.33 1096.75 431.424 
508 2 1.56866 3.3555 2.67725 -25 0 0 -118.64 8.74839 12.9904 -13.5502 -670.023 88.7431 0 0 0 0.5 -7433.98 -42.5255 -115.424 542.986 785.729 7.95259 
423 1 2.31476 3.51404 3.62047 -21 0 0 -122.891 16.0393 11.2172 2054.99 -649.019 92.7506 0 0 0 0.5 -8913.28 -361.517 -4.75609 1578.66 590.986 -120.707 
8 1 2.77153 2.1381 2.19372 -11 0 0 -211.621 4.03466 -11.5749 1103.1 -1880.61 2576.32 0 0 0 0.5 -24178.1 -1392.33 -982.034 1363.03 -2003.14 912.494 
930 2 2.18679 2.19062 3.65232 -14 0 0 -239.226 -10.4466 -0.98519 856.749 -227.397 150.864 0 0 0 0.5 -30143.5 -969.696 -241.329 -1204.78 -79.687 -458.989 
767 2 4.26726 2.04955 2.05267 -15 0 0 -227.345 -24.6254 5.01863 -828.46 -64.5063 -539.591 0 0 0 0.5 -28822.7 -1638.59 -833.122 -1481.4 -536.169 903.141 
594 2 0.533337 4.59705 2.12304 -5 0 0 -3.06427 -16.962 19.2456 -649.609 -1231.78 526.304 0 0 0 0.5 -151.24 -19.2134 -297.346 203.185 48.3352 279.556 
913 2 1.06676 4.82626 3.81484 -2 0 0 -56.7168 18.0059 3.90421 21.542 -532.958 227.851 0 0 0 0.5 -1655.35 24.1222 96.2587 514.928 74.2995 -97.8134 
647 2 3.07926 3.46844 3.08008 -10 0 0 -122.077 13.1964 3.93324 1754.8 502.752 -700.769 0 0 0 0.5 -9018.57 -1087.06 -1100.17 1892.34 -419.534 81.7408 
807 2 1.69401 4.24886 2.49909 -3 0 0 -58.2654 6.19627 -2.40924 -611.976 -486.897 151.012 0 0 0 0.5 -2411.47 -442.354 -856.107 385.435 -576.693 317.242 
718 2 3.43096 3.15752 3.75141 -12 0 0 -172.121 6.77998 13.7307 1833.53 -3399.95 1061.56 0 0 0 0.5 -15789.1 -1458.79 -893.007 1064.88 1000.37 -10.8531 
315 1 1.50278 4.01405 3.44038 -1 0 0 -72.1324 7.89866 -7.09306 -2578.61 1663.43 -1200.31 0 0 0 0.5 -3613.46 -300.519 -631.189 809.318 -585.415 294.129 
368 1 4.20013 2.71878 2.49536 -5 0 0 -152.248 1.33206 23.2852 1556.14 -2047.82 -1601.7 0 0 0 0.5 -13379.2 -784.382 29.5733 494.752 2262.14 148.953 
668 2 3.19356 4.052 3.99283 -1 0 0 -50.7297 -2.33889 -17.3439 -210.029 3517.69 -581.59 0 0 0 0.5 -1527.69 -1082.61 -702.785 432.133 -249.222 -309.166 
429 1 4.36265 3.86247 3.72644 -9 0 0 -88.9444 -0.988085 3.27219 282.627 -562.272 277.48 0 0 0 0.5 -4196.32 -214.535 -57.7296 61.5631 99.2998 107.313 
158 1 3.47532 4.13952 2.59755 -2 0 0 -26.8979 -1.04636 9.15763 476.379 -556.638 2098.27 0 0 0 0.5 -1051.89 -122.447 -309.557 208.723 -222.1 -30.5087 
99 1 0.827269 3.28531 2.08952 -2 0 0 -112.652 -14.9576 -2.32457 1044.98 -660.498 -316.806 0 0 0 0.5 -7141.34 -261.45 4.2307 -621.353 -126.488 -74.6349 
679 2 3.42821 4.98758 3.95357 -2 0 0 12.0086 1.09042 -23.9899 -64.7596 -792.423 2479.54 0 0 0 0.5 -1078.55 -456.118 -1789.53 996.671 1122.58 -427.898 
854 2 3.97999 4.62375 3.35075 -6 0 0 -59.8304 9.13375 -5.42319 3410.55 -2180.53 -1346.68 0 0 0 0.5 -3036.51 -821.748 -1465.1 1175.26 334.551 -147.494 
766 2 3.99918 1.37458 2.7568 -9 0 0 -283.695 -9.55013 9.67262 4149.04 -1823.74 -292.247 0 0 0 0.5 -43429.6 -528.928 -1185.13 -970.113 896.322 60.7894 
891 2 3.60147 3.32179 2.15918 -5 0 0 -114.104 -2.79354 -8.27192 -1067.94 508.71 -542.136 0 0 0 0.5 -7183.45 -740.26 -635.049 195.934 -609.923 160.72 
263 1 3.96823 0.989302 3.58343 -10 0 0 -353.971 -5.1125 6.57869 -2192.98 -741.45 -1383.04 0 0 0 0.5 -65987.9 -541.88 -1116.31 -595.815 462.052 252.106 
795 2 0.0772682 3.73894 2.15416 -13 0 0 -93.2883 7.55592 14.6944 748.485 1519.15 -818.409 0 0 0 0.5 -5321.03 78.6988 -471.118 813.405 837.748 16.0957 
646 2 0.165674 3.01675 2.96737 -8 0 0 -147.631 -10.8837 -17.2384 253.555 -736.919 -202.106 0 0 0 0.5 -12183.2 -729.551 -882.272 -482.241 -1453.43 -538.872 
36 1 3.26618 2.2202 3.28101 -41 0 0 -252.054 -25.5315 16.4688 -2995.75 1067.31 -1081.6 0 0 0 0.5 -34266.4 -537.483 -329.023 -2979.99 1782.99 411.441 
667 2 3.22298 0.0384668 2.69074 -40 0 0 -473.259 4.47198 -34.9663 1120.85 -2386.12 4570.84 0 0 0 0.5 -117350 -343.991 -1009.49 1555.87 -9496.61 507.452 
225 1 0.201499 4.52223 3.23533 -7 0 0 -43.5658 -13.7055 18.8017 327.347 -406.311 201.046 0 0 0 0.5 -1082.34 -234.788 -218.499 -202.715 374.496 202.434 
395 1 3.36041 1.58778 2.46357 -8 0 0 -242.526 -21.7168 3.7972 -3010.45 395.013 -1382.8 0 0 0 0.5 -32382 -651.13 -341.231 -2049.38 -244.934 368.127 
920 2 3.46223 2.79017 2.7872 -15 0 0 -157.705 -17.249 2.27418 -1578.28 -900.279 595.731 0 0 0 0.5 -13915.1 -595.406 -303.49 -1190.31 607.137 -45.7048 
128 1 2.92764 4.41066 2.15409 2 0 1 -39.3577 -13.3481 5.92524 -1551.97 242.403 -609.94 0 0 0 0.5 -1940.4 -953.065 -1113.2 345.491 349.292 308.861 
519 2 4.39673 3.61157 2.6105 -6 0 0 -102.599 -2.38328 -13.6882 -1553.31 1513.66 208.033 0 0 0 0.5 -6182.44 -981.036 -153.949 281.159 -724.781 26.3954 
873 2 4.35649 4.48304 2.49036 -9 0 0 -39.3442 16.3667 4.34389 1804.81 -342.565 826.156 0 0 0 0.5 -1315.31 -599.23 -680.555 423.657 -40.4953 260.406 
433 1 4.19685 0.0167293 3.30454 43 1 -1 -525.02 19.5697 -12.1379 -979.36 931.77 -69.3381 0 0 0 0.5 -144579 -507.109 -77.3216 5685.7 -3373.08 150.302 
680 2 4.64506 0.527481 2.36277 -16 0 0 -420.693 3.75941 -2.25184 -1543.72 -26.8944 172.97 0 0 0 0.5 -93142.8 165.415 8.35706 1041.8 -330.794 65.8191 
730 2 4.92193 1.88095 3.62458 -32 0 0 -273.593 0.890804 1.18941 -2179.52 514.991 228.501 0 0 0 0.5 -41114.5 -60.5027 -8.45158 401.636 191.444 -14.4075 
487 1 4.90435 0.967524 3.282 -39 0 0 -348.816 -0.709436 -2.00237 -3227.49 563.28 -2758.33 0 0 0 0.5 -64597 -53.3714 -869.032 61.2546 -1317.72 172.954 
239 1 4.96252 1.50632 2.47083 -31 0 0 -314.678 9.99146 2.2477 3267.4 -2560.58 1976.24 0 0 0 0.5 -52984 -743.942 -409.307 2534.13 -313.274 519.268 
144 1 1.70389 1.33692 5.14078 -13 0 0 -313.399 -27.5776 6.19432 -1367.52 2370.98 -1455.04 0 0 0 0.5 -51792 -1124.57 -375.1 -4165.67 751.108 623.983 
561 2 2.39453 4.89517 5.18283 6 0 0 -22.0385 6.00444 10.7694 -1728.23 211.014 1078.55 0 0 0 0.5 -1280.57 -463.355 -687.278 360.331 -268.717 -140.246 
5 1 1.11615 3.24023 5.79978 -8 0 0 -172.781 -13.32 -20.0927 -992.453 1076.05 922.228 0 0 0 0.5 -16061 -744.11 55.0433 -1181.14 -1870.37 -196.034 
26 1 0.246766 0.526431 4.81051 44 1 0 -405.74 -12.511 -11.6297 1095.17 -377.361 -968.575 0 0 0 0.5 -86727.7 -1768.65 -417.302 -1859.42 -2555.58 452.625 
596 2 4.4553 3.81549 5.891 -18 0 0 -174.382 44.9208 23.4808 55.1832 1366.17 -873.827 0 0 0 0.5 -16340.1 -1334.06 -1488.08 4302.83 2046.12 -481.392 
260 1 3.60051 0.203283 5.80299 -49 0 0 -478.848 -16.6123 29.2836 -3344.04 975.076 -690.762 0 0 0 0.5 -121109 -725.68 -1984.45 -3761.9 6903.72 887.165 
1 1 0.418119 1.19323 4.13484 -41 0 0 -349.945 -6.13292 9.65146 365.839 247.369 -561.174 0 0 0 0.5 -64228.8 -108.555 -230.918 -1140.91 1888.71 115.71 
16 1 2.57077 2.36952 5.34675 -18 0 0 -233.656 -0.654018 3.07068 1064.96 471.288 1165.3 0 0 0 0.5 -29205.1 -520.45 -961.73 -34.7328 -5.8502 45.408 
703 2 2.3891 2.59056 4.55002 -22 0 0 -233.386 -5.41267 3.87412 2292.21 -1712.31 -145.309 0 0 0 0.5 -31378.4 -938.549 -1350.16 34.5356 557.436 360.015 
500 1 1.73962 3.85608 4.37972 -4 0 0 -99.3115 10.6645 -17.2877 -1544.54 -512.041 99.6297 0 0 0 0.5 -6380.92 313.364 -775.358 1423.49 -1363.59 247.729 
256 1 1.00998 1.96782 4.51548 -13 0 0 -246.555 -20.1081 8.35413 57.9719 48.5303 177.747 0 0 0 0.5 -31801.9 -208.364 -64.4025 -2581.84 1119.53 90.4528 
9 1 0.0535141 1.1409 5.67792 55 1 0 -371.598 -5.16572 23.7629 858.288 58.8537 577.342 0 0 0 0.5 -72020.8 -8.38461 -472.159 -947.07 4608.15 94.8411 
806 2 2.66706 1.4377 5.23912 -33 0 0 -318.142 -3.24668 1.77006 -590.852 1401.89 1993.99 0 0 0 0.5 -53348.4 -1056.78 -559.847 -204.38 570.731 -642.32 
124 1 1.16714 0.496394 5.25288 46 1 0 -406.463 -11.7064 -16.4983 11.9425 0.778131 5.31178 0 0 0 0.5 -86499.6 -71.7312 -141.47 -2491.05 -3508.86 -100.972 
837 2 2.05595 0.554305 5.6482 -32 0 0 -405.868 -11.2344 -4.96971 955.181 -2150.69 1388.61 0 0 0 0.5 -86416.9 -907.335 -365.53 -2008.66 -1299.13 516.37 
28 1 1.51147 2.90235 4.56212 -7 0 0 -176.702 2.20548 19.6914 -4536.1 4616.6 251.193 0 0 0 0.5 -18011.8 0.0380871 -1111.05 1087.45 2060.05 238.304 
536 2 2.00033 3.36761 5.93549 -31 0 -1 -181.885 16.2701 11.7438 -850.23 1882.35 -1167.3 0 0 0 0.5 -18090.8 -892.554 -754.112 1932.63 976.615 19.9812 
358 1 2.36831 3.44118 4.66527 -5 0 0 -146.277 0.338738 5.4528 2753.34 -1141.51 -1452.4 0 0 0 0.5 -12458.5 -695.214 -1086.91 917.327 333.948 -415.264 
246 1 1.71605 2.22584 5.07371 68 1 0 -227.381 -3.83937 0.779055 1125.92 -2990.31 -759.183 0 0 0 0.5 -28480.6 -581.998 -1049.32 -402.538 623.273 463.29 
513 2 1.20649 2.29066 5.52876 -15 0 0 -236.933 4.01871 -20.0417 -660.503 -251.216 452.904 0 0 0 0.5 -30774.4 -700.314 -1190.81 362.375 -1717.35 -149.158 
908 2 0.976702 1.28729 5.86229 -18 0 0 -342.599 -4.37698 -6.36826 1958.63 -4421.53 283.937 0 0 0 0.5 -61745.7 -1613.11 -23.9773 248.257 -1175.57 151.756 
765 2 2.95055 0.856231 4.70241 40 1 0 -396.829 3.35044 1.03903 -905.293 89.8614 -1764.37 0 0 0 0.5 -83147.8 -1435.19 -982.457 1483.88 688.37 -651.557 
506 2 0.520583 2.03408 5.78976 -13 0 -1 -228.665 -22.3763 -27.1506 -3601.47 2345.96 1238.07 0 0 0 0.5 -29042.3 -2189.98 -97.041 -1614.31 -3149.49 -224.789 
243 1 3.55264 4.28926 5.20677 -6 0 0 -109.77 27.1963 -23.076 2898.78 -1359.2 -457.047 0 0 0 0.5 -8252.03 -1944.81 -898.495 2861.22 -1571.13 10.5159 
205 1 1.42493 1.10403 4.13426 -41 0 0 -343.772 -16.6568 2.777 1493.01 -1884.77 3107.09 0 0 0 0.5 -62222.8 -852.474 -1063.72 -2892.87 -57.3412 520.841 
863 2 2.17507 3.87832 5.31347 -9 0 0 -64.0182 -3.12159 -3.02495 -475.186 1894.08 1499.18 0 0 0 0.5 -2184.06 -565.074 -1225.21 110.302 163.954 -741.561 
924 2 -0.0129605 3.9879 4.47457 -4 0 0 -99.2633 -5.56373 -17.959 1661.98 -491.794 -1148.21 0 0 0 0.5 -6967 -1473.69 -1104.08 672.268 -999.024 181.467 
52 1 3.17161 3.57713 5.98948 66 1 0 -164.019 -3.07954 -25.6808 -1338.22 -297.977 -1333.84 0 0 0 0.5 -14732.9 -1036.74 -640.558 338.339 -2308.61 73.1437 
569 2 3.78243 2.11639 4.60793 59 1 0 -257.347 4.69136 -0.246628 942.048 304.807 1241.11 0 0 0 0.5 -35412.3 -595.88 -272.655 1218.67 -218.372 64.5102 
116 1 -0.00426191 3.70125 5.80979 -4 0 0 -94.9095 -17.2014 21.2278 1267.83 -398.384 67.3826 0 0 0 0.5 -4382.71 -265.68 -228.999 -609.632 846.849 409.191 
681 2 0.854308 4.13644 5.67743 -3 0 0 -93.5025 15.7641 -26.6114 -745.867 -1010.42 436.043 0 0 0 0.5 -4268.51 -446.248 -90.5551 1104.51 -1386.68 20.7932 
462 1 4.24623 0.162239 5.403 46 1 0 -489.545 17.5319 -4.20361 -169.509 2532.57 508.187 0 0 0 0.5 -126502 -246.016 -24.5435 5317.39 -136.775 84.6783 
756 2 3.66155 1.74678 5.46722 -18 0 0 -305.505 10.6269 3.5362 1532.26 -879.168 -997.849 0 0 0 0.5 -49189.3 -337.377 -398.391 2087.18 994.689 -258.338 
672 2 3.58763 0.405598 4.17842 -19 0 0 -436.708 -3.29881 1.10761 1708.32 193.436 -1967 0 0 0 0.5 -99824.7 -205.034 -27.0847 -55.228 358.774 -143.131 
172 1 0.89441 4.13454 4.46678 -32 0 0 -96.4468 7.99362 4.73815 -444.667 755.513 -193.015 0 0 0 0.5 -5560.77 20.614 80.648 539.617 262.115 -137.917 
240 1 4.15454 2.85172 5.13969 -24 0 0 -218.157 0.188434 -14.5133 108.112 -1320.2 -140.847 0 0 0 0.5 -24922.8 -532.508 -91.4094 76.2928 -1650.87 -94.5092 
921 2 3.07907 4.96614 5.48833 -11 0 0 -8.76067 30.0098 -10.6441 -44.548 1146.37 1105.95 0 0 0 0.5 -1212.79 -3135.45 -548.373 775.476 -52.7795 -101.698 
217 1 2.72267 4.35425 4.71487 -9 0 0 -59.5593 -0.543294 -24.4078 -2875.8 -2597.02 -1334.29 0 0 0 0.5 -2904.52 13.2635 -1082.4 519.228 -1030.73 -277.418 
204 1 3.55383 0.896897 5.39599 -49 0 0 -386.304 -3.16061 3.07833 148.159 649.848 -259.763 0 0 0 0.5 -78220.5 -345.156 -231.02 -636.172 511.096 150.116 
262 1 4.51474 0.655645 4.18233 -36 0 0 -414.43 8.37703 20.015 2289.17 -4833.38 978.735 0 0 0 0.5 -90298.2 -2493.81 -945.497 3002.31 3946.21 -225.821 
257 1 4.07423 3.70217 5.27378 -10 0 0 -143.776 9.03467 -19.0419 1483.88 -691.321 -233.967 0 0 0 0.5 -11627 -1171.19 -688.197 1135.47 -1868.07 -37.0296 
870 2 0.371625 3.40663 4.97363 -5 0 0 -150.281 -9.98862 -23.9419 1022.01 -1670.35 1934.49 0 0 0 0.5 -12022.5 -557.105 -526.367 -464.189 -2254.24 381.953 
372 1 0.0470145 2.40076 5.03211 -10 0 0 -215.491 -10.6008 -29.832 1081.37 -481.028 -1691.48 0 0 0 0.5 -24741.1 -173.491 -1055.78 -974.056 -2969.81 -331.522 
412 1 4.23065 1.47641 4.38842 -41 0 0 -286.224 -15.254 -21.3143 -476.52 3635.81 1337.84 0 0 0 0.5 -43339.2 -2459.79 -657.152 -1418.52 -3021.57 -925.306 
543 2 3.21963 0.0478555 4.96163 -27 0 0 -457.984 -1.51763 17.5968 -935.825 -591.436 710.366 0 0 0 0.5 -110548 -661.598 -586.344 96.8415 4120.03 -89.7564 
770 2 4.70108 0.824038 5.95249 -22 0 0 -422.241 18.4963 -6.28487 706.303 -1274.72 136.403 0 0 0 0.5 -93676.4 84.4833 825.658 4444.04 -947.942 263.74 
905 2 3.1779 2.46272 4.28052 -12 0 0 -254.024 7.8121 -4.69654 499.548 412.922 -1603.79 0 0 0 0.5 -35270.9 -312.302 -324.512 1471.01 -576.136 194.881 
354 1 3.0665 4.4153 5.8931 -4 0 0 -94.7622 11.8807 16.4085 703.343 764.122 172.808 0 0 0 0.5 -5205.32 -1089.74 -693.159 582.942 1072.43 340.194 
669 2 3.31726 3.51745 4.68948 -42 0 1 -157.401 4.10045 16.1732 538.647 -464.993 191.646 0 0 0 0.5 -13682.7 -126.407 -468.131 278.459 1114.37 93.0702 
467 1 3.94204 1.05365 6.30314 49 1 0 -417.668 -5.82817 15.5135 -1260.6 -679.971 106.231 0 0 0 0.5 -91819.6 -470.628 -361.799 -1150.42 3589.46 -229.953 
956 2 0.370273 0.433166 7.9511 -34 0 0 -435.901 -24.5066 2.47834 420.966 -618.624 -469.915 0 0 0 0.5 -99573.7 -497.212 -108.667 -5468.96 660.117 -107.021 
824 2 4.48385 4.96982 7.00294 -3 0 0 12.6199 -2.79103 25.3357 -204.062 699.018 1755.44 0 0 0 0.5 -1443.8 -655.34 -895.036 871.732 -68.6558 97.7573 
727 2 0.250745 1.6413 7.67125 -30 0 0 -329.352 -32.0272 -1.47047 -1407.62 -2431.1 2312.17 0 0 0 0.5 -58071.2 -882.733 289.084 -5024.32 -911.615 -20.8527 
772 2 0.99073 2.00619 7.25325 -15 0 0 -341.052 0.707965 -12.4613 3442.16 -3089.26 1235.06 0 0 0 0.5 -61934.7 -1116.77 -824.748 460.551 -2646.21 -63.2869 
405 1 3.13658 2.24081 6.01465 -12 0 0 -247.846 -3.92152 28.5564 584.427 -313.209 1357.37 0 0 0 0.5 -33331.1 -734.397 -1138.61 329.144 3925.32 -338.851 
399 1 2.1132 4.36857 6.06961 -13 0 -1 -90.7389 16.4392 -15.2043 -2533.51 1396.74 -505.688 0 0 0 0.5 -5253 -438.363 -747.28 1093.56 -1040.11 206.783 
24 1 0.178477 1.97459 6.67177 62 1 -1 -294.513 31.1093 -6.72261 349.062 738.018 -1142.34 0 0 0 0.5 -45920 -1593.78 -1332.27 5913 -2122.51 749.23 
265 1 2.19512 1.46516 6.30057 -13 0 0 -318.312 -16.1685 -4.30637 71.5794 1245.61 825.003 0 0 0 0.5 -53050.8 351.804 204.666 -2666.69 -699.134 287.213 
12 1 1.1684 3.40097 7.6545 -22 0 0 -164.857 6.16104 5.64667 -349.139 -2997.08 74.4383 0 0 0 0.5 -14081.7 -160.918 -243.488 993.822 547.659 25.9357 
575 2 0.697832 2.66615 7.52269 53 1 0 -274.702 16.9817 -5.19266 4639.39 276.824 -2607.98 0 0 0 0.5 -41277.1 -961.303 -2689.38 4266.61 -1076.91 -322.611 
511 2 0.803421 2.70737 6.60852 -9 0 -1 -206.878 -2.69164 -28.3824 -3028.07 1343.94 421.347 0 0 0 0.5 -23890.9 4.55444 -658.974 855.003 -2462.61 -34.3736 
292 1 1.31694 0.892314 6.93711 -42 0 -1 -424.627 11.3131 11.6243 -77.7256 1282.93 1368.18 0 0 0 0.5 -96775.5 -311.804 -174.371 3140.74 2609.5 -159.364 
580 2 0.0665099 0.017346 7.08614 43 1 0 -460.103 -25.0552 1.56037 565.179 -1028.2 -147.611 0 0 0 0.5 -110968 -741.929 -9.79157 -5808.89 408.518 -38.854 
35 1 0.6032 0.954429 6.80538 -28 0 0 -412.293 -31.4114 4.57211 -1254.26 -3620.38 -167.354 0 0 0 0.5 -90544.4 -1598.9 -67.2601 -6085.37 693.11 221.154 
195 1 2.24021 2.24981 6.82027 -16 0 0 -257.031 -0.383537 38.152 2020.89 855.609 -726.753 0 0 0 0.5 -34290.9 1310.73 -518.057 640.901 5052.81 316.548 
190 1 3.48658 2.46955 6.90978 -14 0 0 -254.551 -0.467439 23.8862 1722.03 886.423 755.094 0 0 0 0.5 -35486.8 -1374.86 -279.609 1590.25 3131.28 -545.933 
551 2 2.00537 3.56182 6.83976 -4 0 0 -119.419 -20.5135 11.0779 -2092 381.804 1639.86 0 0 0 0.5 -9601.7 -1282.25 -645.704 -625.413 768.293 84.627 
268 1 3.52336 3.72195 7.00079 -5 0 0 -162.728 -1.49488 0.76701 1473.66 -1840.51 -172.983 0 0 0 0.5 -15883.5 -1191.65 -1251.19 718.05 672.831 -356.473 
282 1 1.9773 0.594096 6.79369 33 1 -1 -446.003 20.0899 19.4692 2783.61 122.471 -768.271 0 0 0 0.5 -105411 -1074.15 -252.762 5470.44 4794.65 -313.33 
814 2 1.46662 2.43046 6.38203 -19 0 0 -237.254 -6.23359 -14.2521 3330.66 -1262.9 -749.244 0 0 0 0.5 -30862.3 -244.606 -612.335 -254.531 -1561.88 -242.673 
493 1 0.302053 1.50235 6.74082 56 1 0 -338.331 -8.73607 -4.95026 2188.07 335.239 -1099.22 0 0 0 0.5 -61822.6 -1955.05 -372.121 -776.477 -772.521 171.399 
694 2 1.36323 0.570282 7.85327 -48 0 0 -459.456 -2.70771 13.6299 0.875488 -6.09166 17.3303 0 0 0 0.5 -110531 -4.81973 -105.209 -651.255 3278.54 22.1143 
846 2 2.84051 3.44408 7.65448 -7 0 0 -143.384 2.29549 -4.67859 -1336.43 1616.8 57.4776 0 0 0 0.5 -11579.8 210.047 -481.546 314.306 -114.534 -66.5489 
768 2 4.07448 2.46081 6.0083 -21 0 -1 -242.581 -2.76184 -7.1902 1019.86 -3035.62 -529.448 0 0 0 0.5 -31016 -516.447 160.566 140.516 -763.656 -343.531 
544 2 3.0987 4.28905 7.26825 -4 0 0 -88.4015 20.3419 0.994144 178.243 1500.21 309.908 0 0 0 0.5 -4205.26 -652.126 -770.336 2555.91 578.977 -880.792 
342 1 1.11495 3.54198 6.7419 -2 0 0 -113.783 -10.4281 -4.55102 36.5726 -2319.82 -1011.42 0 0 0 0.5 -7680.27 -309.087 52.7827 -132.181 -435.633 260.403 
269 1 0.973564 4.1348 7.74655 -21 0 0 -99.6593 37.4937 -3.10351 3026.71 474.31 -1246.05 0 0 0 0.5 -6235.62 -1474.83 -1171.17 2426.19 -76.4724 -293.963 
606 2 0.0613222 2.92156 7.04425 -4 0 0 -179.663 8.87184 -17.045 -3562.72 -364.989 -1266.48 0 0 0 0.5 -19300.6 -688.147 -1200.33 2049.78 -2337.97 495.294 
835 2 3.61471 3.1476 7.77223 -8 0 0 -143.885 -20.61 -22.1651 -505.61 -2377.58 249.303 0 0 0 0.5 -11843.2 -144.821 -666.777 -1495.39 -1857.52 -69.8372 
86 1 4.45129 2.84511 6.91557 -17 0 0 -248.497 -6.91295 -10.4122 -720.954 840.018 -804.323 0 0 0 0.5 -32491.7 35.9668 -254.204 -802.756 -1531.97 69.7443 
507 2 2.40936 2.808 6.06329 -17 0 0 -209.229 -0.925375 31.0762 -1143.5 -1296.34 -410.749 0 0 0 0.5 -24108.7 -1089.11 -1243.83 809.867 2996.25 -194.674 
66 1 4.01756 4.49366 7.97728 -6 0 0 -39.5941 -5.67365 -12.9487 251.402 -350.873 -1.02263 0 0 0 0.5 -1001.36 -66.4912 -582.947 -31.2891 -432.572 250.671 
713 2 3.08204 1.45022 6.88686 -32 0 1 -317.399 -20.0199 3.36206 -373.705 -154.316 83.3075 0 0 0 0.5 -52915.1 -238.249 -14.1934 -3395.86 595.861 50.5705 
562 2 0.540122 4.89039 6.11514 6 0 0 -35.5436 19.6497 -2.20361 -174.796 -943.4 1133.15 0 0 0 0.5 -724.055 -1686.82 -362.601 599.305 -16.2868 390.169 