ITEM: TIMESTEP
103000
ITEM: NUMBER OF ATOMS
1000
ITEM: BOX BOUNDS xy xz yz pp pp pp
0.0000000000000000e+00 1.0000000000000000e+01 0.0000000000000000e+00
0.0000000000000000e+00 1.0000000000000000e+01 0.0000000000000000e+00
0.0000000000000000e+00 1.0000000000000000e+01 0.0000000000000000e+00
ITEM: ATOMS id type x y z ix iy iz vx vy vz fx fy fz omegax omegay omegaz radius c_2[1] c_2[2] c_2[3] c_2[4] c_2[5] c_2[6] 
120 1 3.17518 1.5047 0.0575266 0 1 0 -0.0389489 0.0734525 0.0257814 0.0574395 -0.0833113 -0.00996419 0.00692808 -0.0154307 -0.0114861 0.5 -0.0225809 -0.0272418 -0.00422337 0.0114114 0.00556366 -0.00581549 
525 2 2.12375 1.2636 1.72838 0 0 0 -0.0148966 -0.0394944 -0.0290933 0.0140522 0.0306087 0.0183616 0.00424379 0.0087938 0.0144614 0.5 0.00194275 -0.00334931 -0.000395857 0.00257744 0.000278083 -0.00104487 
371 1 4.95591 3.70428 1.54361 0 0 1 -0.00365975 -0.0333249 0.0710298 0.022767 0.0269497 -0.0702034 0.0212381 0.00645858 -0.00150192 0.5 0.00807712 -0.0349313 0.0687079 -0.00988538 -0.00655134 -0.00267145 
18 1 1.98635 2.68079 0.503505 0 0 0 -0.0131828 0.0253857 0.0424683 0.0186369 -0.0350551 -0.0320247 0.0285129 -0.0199042 0.0153098 0.5 -0.00816514 -0.07771 -0.0273942 0.05547 0.0583168 -0.0502832 
94 1 2.4718 3.52641 1.9695 0 0 1 -0.02763 -0.0372352 0.0557315 0.0322356 0.0284346 -0.0425939 0.0242614 -0.00702363 0.0173815 0.5 0.0429026 0.0254238 0.0203738 0.0180742 0.0293003 0.0186086 
25 1 1.41036 0.708104 1.13941 0 0 0 0.0163761 0.00840372 -0.099358 -0.0195686 -0.00676202 0.0992598 0.0320749 0.0144196 0.0118367 0.5 -0.0645236 -0.266727 -0.113658 0.115448 0.0599634 -0.131402 
36 1 2.0804 -0.00237033 1.5789 0 0 0 0.0494452 -0.0464329 -0.102261 -0.0471887 0.0649155 0.123698 0.00782032 -0.0328537 0.0166183 0.5 -0.00779121 -0.0262443 0.0179446 0.00478969 0.0211682 0.00169671 
8 1 3.4396 2.08165 1.72333 0 0 0 0.00367962 -0.0115749 0.0336849 -0.00420318 -0.00655306 -0.0268014 0.0341766 -0.000477994 0.0039182 0.5 -0.0331544 -0.00782492 0.0240348 0.0318782 0.0416406 -0.0291112 
629 2 4.07413 2.61746 1.16601 0 0 1 -0.00126083 0.00779925 0.0463942 0.00603024 -0.0166005 -0.0234763 0.0389544 0.00309396 -0.00158253 0.5 0.0113014 -0.0182804 0.00658143 0.00617228 0.0135831 -0.0109624 
5 1 2.35575 3.89139 1.00304 0 0 0 -0.0291452 0.0421612 0.0849748 0.055338 -0.0605011 -0.0648922 0.0378565 0.000611615 -0.0141707 0.5 0.0167165 0.00451195 -0.00439909 -0.00744375 -0.00373104 0.000123565 
650 2 0.489247 3.47189 1.15465 0 0 0 -0.0580296 -0.0721641 -0.0377669 0.0667303 0.0912446 0.0162783 0.034778 0.00918503 0.0201834 0.5 -0.0592748 -0.0585123 -0.0408388 0.0419379 0.0455923 -0.0472988 
14 1 3.30066 3.14902 1.51151 0 0 0 -0.0143997 -0.0175315 0.0550791 0.0148384 0.0138076 -0.0511331 0.035958 0.00178257 -0.000782445 0.5 0.0225707 -0.0112645 -0.00333517 -0.000380476 0.0109383 -0.0355169 
264 1 3.99273 3.88508 1.3375 0 0 0 -0.00131517 -0.0181291 0.072765 0.0167557 0.00118078 -0.0634712 0.0347579 0.00532544 -0.00776909 0.5 0.0139225 0.00313984 0.0178594 0.0142229 -0.00686169 -0.0124355 
223 1 0.766047 2.50899 1.15621 0 0 1 -0.0224728 -0.0604591 -0.0195477 0.00175227 0.0721129 0.00356088 0.0432199 0.000360146 0.0294839 0.5 -0.0534453 -0.0896554 -0.312345 0.034395 0.115129 -0.102317 
364 1 4.4261 4.22061 0.488762 0 0 1 -0.000528292 0.0255784 0.0850439 -0.0135438 -0.0301402 -0.0782918 0.0323713 0.00457466 -0.00232355 0.5 0.0231769 0.00149603 0.043544 0.00786327 -0.0179679 -0.01227 
107 1 1.67316 1.60914 0.793972 0 0 1 -0.0179491 0.0190779 -0.097174 0.0138653 -0.00965819 0.115 0.0448127 0.011605 0.00963104 0.5 0.0412201 -0.0306576 0.00141666 -0.0120489 0.0134353 -0.0452357 
529 2 2.66628 2.19591 1.05388 0 0 0 0.00276536 0.0213464 0.0198753 -0.00516224 -0.0533983 -0.0200786 0.0382239 -0.0055963 0.00775029 0.5 0.0298722 -0.00483844 -0.00656808 -0.00743319 0.0236883 -0.0170929 
515 2 4.38551 0.454488 1.65354 0 0 0 0.00112831 -0.0225033 -0.0161685 0.00350394 0.00992 0.0167083 0.0263529 0.00513807 -0.00237781 0.5 -0.0366355 -0.03927 -0.11914 -0.0977376 0.0214924 0.0283592 
244 1 4.11497 0.560703 0.685946 0 1 1 -0.00616784 0.0252829 -0.00257652 0.0212945 -0.0375971 0.00168081 0.0321076 0.00828746 -0.000481125 0.5 -0.0590463 -0.0503652 -0.121418 -0.0280632 0.0337705 0.0357811 
20 1 2.89806 0.583986 1.80095 0 0 0 0.00557282 -0.0167978 -0.0377506 0.00145744 0.0060938 0.0581014 0.0255559 -0.00339109 0.00545581 0.5 -0.0431394 -0.0811214 -0.160743 0.0360821 0.0876081 -0.0837067 
280 1 4.08795 1.58005 1.13505 0 0 0 -0.000693397 0.0151667 0.0168304 0.0111721 -0.0339439 -0.00605687 0.0332329 0.000599526 -0.008335 0.5 -0.0991527 -0.0561115 -0.141578 -0.0166253 0.092739 -0.00134982 
620 2 1.41688 4.38948 0.858513 0 0 1 -0.0252351 -0.0308312 -0.0103956 -0.00068109 0.0306794 0.0126306 0.0494993 -0.00490219 0.0214069 0.5 -0.017183 -0.0672561 -0.14115 0.0162746 0.00726307 0.0069795 
1000 2 3.60644 2.3736 0.310645 0 1 1 -0.0206145 0.0591678 0.0417338 0.0305114 -0.0701213 -0.0152307 0.0241101 -0.00269127 -0.0143357 0.5 -0.00743108 -0.0305807 0.00381007 -0.0067447 0.00736018 -0.00416391 
103 1 3.2932 3.67492 0.651429 0 0 1 -0.0251015 0.0302883 0.0818863 0.0418569 -0.0364015 -0.0753761 0.0320254 0.000975789 -0.00603046 0.5 0.0506245 0.0207977 0.0169117 -0.0194745 -0.00103046 -0.0108743 
536 2 0.497093 1.44992 0.00462092 0 0 0 -0.0301957 0.0788868 -0.0743862 0.0129568 -0.0690725 0.0763888 0.0394238 0.0172119 0.0147724 0.5 -0.225233 -0.136786 -0.147324 0.0512759 0.0956257 -0.0682502 
506 2 0.757066 1.48581 1.23382 0 0 0 -0.00887775 -0.0697603 -0.0859346 -0.0168506 0.0872964 0.0669492 0.0358763 0.00486177 0.0322991 0.5 -0.0308049 -0.0983877 0.0119441 0.147665 0.0534436 -0.0687926 
626 2 1.31697 3.42641 0.588464 0 0 1 -0.0593831 -0.0152467 -0.0395136 0.0720981 0.0141346 0.0265243 0.0102181 -0.0158918 0.0218489 0.5 -0.0524766 -0.0874303 -0.0194991 0.0447104 0.0396465 -0.0389632 
553 2 0.727729 0.10603 1.63736 0 0 0 0.039868 -0.0549136 -0.134868 -0.0443672 0.0574814 0.133658 0.0222583 -0.00509331 0.0167481 0.5 0.0112132 0.0187461 -0.0075722 0.00199588 0.00259818 -0.00910407 
135 1 1.54046 3.24513 1.69138 0 0 0 0.00183457 -0.0833451 -0.0232829 0.000991082 0.0998622 0.0176966 0.00299657 -0.0270646 0.0196341 0.5 0.0443879 -0.189785 -0.0290598 0.059847 0.0132471 -0.0165605 
624 2 4.32259 4.93564 1.41805 0 0 1 0.00200204 -0.0137078 0.107393 0.00224475 -0.0139373 -0.130077 0.0267433 0.0102287 0.00820844 0.5 0.0126612 0.0346036 -0.0203972 0.00627856 -0.0169736 -0.0628043 
256 1 4.58841 1.35458 0.299197 0 0 0 -0.00803363 0.0300787 0.00833442 0.0164986 -0.0356914 -0.00204983 0.0342185 0.0142843 -0.0158103 0.5 -0.069678 -0.0952538 -0.228225 -0.0504413 0.0484862 -0.0358736 
260 1 3.31987 0.0757728 1.05012 0 0 0 -0.0036934 -0.0117868 -0.0464316 0.0073698 0.0245166 0.0488311 0.0135937 0.0174075 -0.0129723 0.5 -0.0714217 -0.11914 -0.119616 -0.0195244 0.0427221 -0.0653054 
616 2 3.18473 4.50209 1.45994 0 0 1 0.000567118 -0.0285945 0.0845751 0.0262748 0.0206053 -0.0686575 0.0149683 -0.00181533 0.010844 0.5 -0.0316865 -0.0094821 -0.00603074 0.0222197 0.0157715 -0.00371239 
106 1 1.73309 2.27613 1.53677 0 0 1 0.0340398 -0.0783536 -0.0146896 -0.0478333 0.0903681 0.0190053 0.0354323 -0.0170703 0.00589783 0.5 0.0273191 -0.110634 0.00970619 0.0280281 0.0338587 -0.0136572 
157 1 1.39233 4.22214 1.84459 0 0 0 -0.0121131 -0.0858524 -0.0204758 0.0169875 0.101257 0.0243019 0.0255976 -0.00840439 0.00356399 0.5 -0.064464 -0.13938 -0.148636 0.0179572 0.0655132 -0.0430231 
516 2 2.34154 0.867024 0.715864 0 0 0 0.01394 0.0437822 -0.0595255 -0.0202753 -0.0355806 0.0780851 -0.0100021 -0.0345859 -0.0102425 0.5 -0.00478511 -0.0120275 -0.00633284 0.010804 0.0499067 -0.0324065 
183 1 0.449933 4.65108 1.00114 0 0 0 -0.0630857 -0.160301 -0.0399486 0.036666 0.144349 0.041066 0.00668671 -0.0168932 0.0758903 0.5 -0.00223879 -0.0200422 -0.00209381 0.019054 0.00721055 -0.00566083 
625 2 0.419018 3.90725 0.219526 0 0 1 -0.0280273 0.0231784 -0.00217618 0.0297073 0.0131379 0.00866044 0.0598184 -0.00947314 0.00444252 0.5 0.00417368 0.0298009 0.00437757 0.00977706 -0.00418039 -0.00651599 
91 1 2.22139 4.75653 1.67694 0 0 1 -0.0118353 -0.0692345 0.0387162 0.0234578 0.0608709 -0.0679895 0.0151203 -0.0336981 0.0119396 0.5 -0.0571041 -0.0388991 -0.0133022 -0.0148764 0.0281127 -0.000825092 
257 1 4.93579 2.71339 1.67669 0 0 0 0.00164311 -0.0359428 0.0522771 0.00551199 0.0308182 -0.04418 0.0312377 0.00380065 0.000163869 0.5 0.034516 -0.0499553 -0.138345 -0.0160089 0.00117625 -0.0442595 
4 1 3.71945 1.14631 1.95728 0 0 0 0.00159254 -0.0217365 -0.00156043 0.00670659 0.00804578 0.0135663 0.0358959 0.00384681 -0.00334601 0.5 0.0302748 0.034999 -0.03605 -0.031138 0.0526846 0.058245 
522 2 2.58831 2.53345 1.99195 0 0 0 -0.00596953 -0.0351154 0.0394787 0.00428342 0.0253029 -0.0498763 0.0263367 -0.0109393 0.0254977 0.5 -0.0708391 -0.00986637 -0.00973138 0.0557932 0.0865343 -0.0210767 
117 1 3.12452 1.31283 1.15481 0 1 0 -0.00150257 0.0165572 -0.0026172 0.0136182 -0.0392534 0.0134729 0.0411234 -0.00996665 0.000341671 0.5 -0.000347237 -0.000254421 0.0345405 -0.0087474 0.0473459 0.0131576 
511 2 1.08913 2.21829 0.255642 0 0 0 -0.0145901 0.0603942 -0.0558671 0.0114226 -0.0639216 0.0608279 0.0685711 0.00340144 -0.00480737 0.5 -0.0325103 -0.119959 -0.2637 0.0488965 0.139206 -0.0931573 
911 2 0.486649 0.569295 0.758225 1 0 0 0.0152892 -0.00247935 -0.1023 -0.0161236 -0.0107375 0.0980285 0.00960624 0.0151334 -0.0245412 0.5 0.0200092 0.0127868 -0.00304746 0.007543 0.0128564 -0.00496369 
668 2 0.00493823 3.88784 1.92609 0 0 0 -0.017922 -0.124438 0.0133074 0.0410617 0.131362 -0.0228128 -0.00144021 0.0273756 0.00807639 0.5 -0.0586497 -0.169251 -0.0660495 0.0545398 0.00485579 -0.0212433 
90 1 2.95361 4.57205 0.367933 0 0 1 -0.024217 0.0324078 0.0864701 0.0201819 -0.0485213 -0.0858819 0.0271206 -0.0214182 -0.00798626 0.5 0.100805 0.0024472 0.00138425 0.0176086 0.0559879 -0.0145038 
734 2 4.13788 3.22327 0.326396 0 1 1 -0.0105675 0.0515273 0.0760351 0.0218288 -0.064101 -0.0549338 0.0340961 -0.0013927 -0.0145174 0.5 0.0304858 0.00998023 0.00975809 -0.0313088 -0.00482359 0.00125891 
672 2 0.0851245 2.04307 1.7232 0 0 0 -0.0169382 -0.109949 -0.0555355 0.00100696 0.12546 0.0467676 0.0359067 0.00268293 0.0175511 0.5 -0.16398 -0.195649 -0.0997646 0.0702429 0.0961259 0.0141314 
759 2 4.94975 2.04518 0.932708 0 0 0 0.0147602 -0.00809822 0.02903 -0.0149575 0.00615783 -0.0214878 0.0383577 0.0123192 -0.00114687 0.5 -0.0206129 -0.109952 -0.00184188 -0.0573946 0.0142552 -0.0689327 
609 2 2.00457 4.74928 0.10099 0 0 1 -0.0136981 0.0523399 0.0564853 0.0089882 -0.0846874 -0.0552917 0.0340136 -0.0282524 0.00683027 0.5 0.0305168 -0.314739 -0.0367792 0.0853998 0.0641623 -0.0607222 
622 2 0.958657 4.78118 0.0606473 0 0 1 -0.0396741 0.0560819 0.0405557 0.0447696 -0.0405216 -0.0417099 0.0611657 -0.00392954 0.0115992 0.5 0.0374104 0.0005004 -0.066269 0.0201555 -0.0176052 -0.00274507 
378 1 4.63021 2.3867 0.0396378 0 0 1 -0.0304682 0.0422868 0.0571325 0.0369351 -0.0473765 -0.0507505 0.0376444 0.0109322 -0.00370478 0.5 -0.0141653 -0.0381686 -0.00149202 -0.0509383 -0.0151237 -0.0683897 
21 1 1.84451 0.399598 2.47972 0 0 0 0.0265304 -0.0782534 -0.0934911 -0.104263 0.100917 0.0978477 0.0108508 -0.0073425 0.00930061 0.5 -0.0511528 -0.0175352 -0.00225608 0.0392586 0.00454417 -0.0123284 
682 2 2.72762 4.11053 2.74022 0 0 0 -0.00243801 -0.0462517 0.0549328 0.0179349 0.0396803 -0.0471696 0.00847458 -0.0074286 -0.00500159 0.5 -0.0531939 -0.0560955 -0.0458658 0.000760744 0.0908974 0.0353468 
907 2 0.97452 4.67262 2.63353 1 0 0 0.00958784 -0.0814661 -0.0114114 -0.00182532 0.0742654 0.0294165 -0.00697366 -0.00609234 0.00919938 0.5 -0.112266 -0.192974 -0.140736 0.0264223 0.0842971 -0.0502911 
144 1 1.67462 3.64273 2.80629 0 0 0 0.0149926 -0.0716497 0.00799266 -0.0170869 0.066407 0.0144609 0.00454776 -0.0154774 0.00245144 0.5 0.00596376 -0.019884 0.0120285 0.00368072 0.0219381 -0.00311569 
675 2 2.80769 4.76734 3.51266 0 0 0 0.0374952 -0.0489833 0.052241 -0.0156117 0.0433543 -0.0391314 -0.00695498 0.00342632 -0.0108962 0.5 -0.00319593 -0.0116873 -0.01592 -0.00460855 0.0141929 0.00793267 
502 2 4.3787 1.352 3.26844 0 0 0 0.0184562 -0.0810759 0.00600904 0.0422394 0.126612 -0.0838421 0.0204858 0.0043678 -0.00180603 0.5 -0.0905314 -0.109467 -0.0665435 -0.0668608 0.0185611 0.0526963 
27 1 2.59579 0.334205 3.23118 0 0 0 0.0230095 -0.0571916 -0.0334901 -0.021858 0.0395624 0.0209608 0.00429269 -0.00424383 -0.00378078 0.5 -0.0946168 -0.085646 -0.105463 0.0336234 0.0485795 0.0361148 
965 2 1.33029 3.69709 3.81113 1 0 0 0.0506785 -0.0580964 -0.0219769 -0.054076 0.0431008 0.00978741 -0.0195312 0.000851511 -0.0183838 0.5 -0.016496 -0.0757971 -0.0431562 0.0397995 -0.03576 0.0315881 
61 1 1.65344 0.485746 3.55677 0 0 0 0.020182 -0.063378 -0.058544 -0.0271094 0.0628447 0.0243864 -0.0170212 -0.0110875 0.00383232 0.5 -0.0747638 -0.00364937 -0.00683729 0.00601391 0.0417479 -0.00552345 
680 2 1.19428 2.81695 3.35576 0 0 0 0.00299282 -0.0551795 -0.0126301 -0.0261143 0.0402399 0.00861227 -0.00427435 0.00774381 -0.00314622 0.5 -0.0199955 -0.0287182 -0.0831354 0.00407194 0.0346629 0.01022 
251 1 4.68873 3.08452 3.85395 0 0 0 0.0403201 -0.109065 0.0858153 -0.0290335 0.117323 -0.0959201 0.0232298 0.00707609 -0.0252555 0.5 -0.0519101 -0.00902882 -0.00180403 -0.0311016 0.0188054 0.022329 
517 2 4.01317 2.92953 2.1915 0 0 0 -0.0148388 -0.0586501 0.047406 0.0195867 0.0435629 -0.0565829 0.0111619 0.0214434 -0.0205033 0.5 0.0034993 -0.0101466 0.0102196 -0.00371153 0.011135 0.000671747 
6 1 3.41158 1.80292 2.71266 0 0 0 0.0260907 -0.0381688 0.0359752 -0.0428785 0.0285947 -0.0342239 0.0299563 -0.00182873 0.0018232 0.5 -0.153434 -0.00215549 0.0200287 -0.0131124 0.0543202 0.0145721 
519 2 4.4267 3.65285 2.98507 0 0 0 0.00945066 -0.0747264 0.0836265 -0.00281076 0.0764793 -0.0906513 0.00854525 0.00734262 -0.0115942 0.5 -0.0939863 0.0248436 -0.0363701 0.00147645 0.0780513 -0.011096 
509 2 1.90751 1.53618 3.66648 0 0 0 0.0628528 -0.0415021 -0.0711713 -0.0917434 0.0575576 0.073774 -0.0183426 0.0316734 -0.00684107 0.5 0.0236523 -0.0117907 -0.0785872 -0.0132059 0.021883 0.0185566 
142 1 1.03893 1.98422 2.19496 0 0 0 0.00725021 -0.0762439 -0.0418849 -0.0272654 0.0840411 0.0377571 0.0199003 -0.00420657 0.0176983 0.5 -0.015284 -0.0396226 0.00264975 0.025664 -0.0144141 0.018918 
941 2 0.204323 2.3242 2.80075 1 0 0 -0.00574848 -0.121385 -0.0504649 -0.0131446 0.126901 0.0522653 0.00291838 -0.000970227 0.00957834 0.5 -0.017883 -0.0446668 -0.0834369 -0.00461759 0.0103491 0.0161765 
919 2 0.63707 4.36256 3.53436 1 0 0 0.0310236 -0.0775678 -0.0153209 -0.0426731 0.0683719 0.0388641 -0.0176149 0.0142463 -0.00596068 0.5 -0.0609227 -0.120751 -0.0650717 0.0602226 0.014225 0.0257791 
95 1 3.53112 3.80849 2.22704 0 0 1 0.00860531 -0.0477434 0.0755402 0.00348789 0.0359034 -0.0693387 0.0208615 -0.00153983 -0.0112939 0.5 -0.0780474 -0.0453043 -0.0315431 0.00322735 0.0276533 -0.0329384 
458 1 1.5527 4.80318 3.83394 1 0 0 0.00341566 -0.0940138 0.048976 0.000356543 0.0958357 -0.0454392 -0.0108871 -0.00277265 0.0231847 0.5 0.00272694 -0.00844646 -0.00345275 0.0114111 0.00565205 -0.00613944 
41 1 1.13615 0.998484 2.05617 0 0 0 0.0256862 -0.0697794 -0.0717628 -0.0630035 0.0780527 0.0560609 0.0280572 0.00588242 0.0175154 0.5 -0.0328444 -0.0371585 -0.0137418 0.0279348 0.0409438 -0.054677 
814 2 0.260838 1.26407 3.44193 1 0 0 0.025014 -0.0553047 -0.06208 -0.0491474 0.0374803 0.047355 -0.00720953 -0.0120957 0.0206829 0.5 -0.0183414 -0.0803079 -0.0770776 0.0481048 0.00651608 0.0670849 
130 1 1.71533 2.6844 2.5126 0 0 0 -0.00848206 -0.0636177 -0.0184382 -0.00963549 0.0653234 0.0151712 0.00931196 -0.00429135 0.00669731 0.5 -0.0719889 -0.106265 -0.108855 0.039094 0.0635055 0.0433841 
12 1 2.68769 1.11944 2.61886 0 0 0 0.0365081 -0.0425784 -0.0128213 -0.058586 0.040393 0.0183223 0.0227407 -0.0149559 0.00216251 0.5 -0.157468 -0.169869 -0.112878 0.0539144 0.045134 -0.0148643 
512 2 3.16257 2.03797 3.77496 0 0 0 0.0497827 -0.0086876 0.0353432 -0.0499684 0.0136834 -0.0597962 0.0126431 -0.00710275 0.00988765 0.5 -0.00447622 -0.0256217 -0.0042548 -0.0034632 0.0142154 0.0224137 
151 1 2.47654 3.33562 3.32045 0 0 0 0.00153295 -0.0589289 0.0371528 0.00573106 0.0546159 -0.0296975 -0.00274904 -0.00418298 0.0137065 0.5 -0.0155119 -0.115621 -0.0916161 -0.0210496 0.0531687 0.0410965 
667 2 0.281195 1.37729 2.44728 0 0 0 0.0225285 -0.106091 -0.0669263 -0.0487263 0.112688 0.0551765 0.00855719 -0.00167055 0.0234513 0.5 -0.0324937 -0.114864 -0.0837282 0.0178586 0.0135718 0.0256834 
38 1 3.77039 0.753529 3.87998 0 0 0 0.0428834 -0.0196057 -0.0152611 -0.0862754 -0.0618277 0.0732574 -0.0120021 0.000267966 -0.0168837 0.5 -0.0583326 -0.0273096 -0.0801396 -0.0808587 0.0405343 0.0983615 
936 2 0.329294 3.40814 3.51515 1 0 0 -0.00545404 -0.0645066 -0.0164084 -0.0175371 0.0585518 0.0160934 -0.00250568 -0.00816899 -0.00342804 0.5 -0.00874719 -0.125905 -0.0591827 -0.0026778 0.0436277 0.0773513 
531 2 4.79848 0.852429 2.48268 0 0 0 0.00769104 -0.0716052 -0.00666817 -0.0172102 0.0522949 0.018224 0.0209089 0.00304423 -0.00748711 0.5 -0.0296652 -0.0255326 -0.0790463 -0.0334998 -0.0495752 -0.046511 
527 2 4.00349 4.34674 3.56763 0 0 0 0.0431454 -0.0483999 0.0767183 -0.00542048 -0.00173522 0.00210427 0.00136275 -0.00745878 -0.0154523 0.5 -0.310411 -0.177916 -0.0934287 -0.120001 0.141387 0.0538485 
383 1 4.35907 4.36908 2.24201 0 0 1 0.00694343 -0.0455556 0.0863887 -0.00321387 0.0465297 -0.0913219 0.0226712 0.00581591 -0.00629055 0.5 -0.0603974 0.0115488 0.0486303 -0.025032 0.00239214 -0.0445851 
992 2 0.677014 0.471717 3.8971 1 1 0 0.039402 -0.0434471 -0.0688516 -0.0477056 0.0201278 0.0476776 -0.013774 0.00734614 0.00203906 0.5 -0.057302 -0.141715 -0.0210034 0.0380609 -0.0141034 0.0704497 
521 2 4.91129 4.55593 3.19899 0 0 0 0.0501232 -0.0593539 0.0985615 -0.0546863 0.0666804 -0.108291 0.00210772 0.0117008 -0.00233751 0.5 -0.0905873 0.0764312 0.0211504 -0.0368937 0.00815169 0.0929612 
136 1 1.88109 1.70913 2.65873 0 0 0 0.0182125 -0.0645764 -0.0547781 -0.0364423 0.0661739 0.0430663 -0.00520683 0.0132038 0.014153 0.5 -0.150929 -0.130692 -0.084558 0.0926996 0.0134908 0.0223235 
540 2 4.49993 0.217316 3.41903 0 0 0 0.0237475 -0.0677586 -0.00585341 -0.0296121 0.060352 0.00297514 0.00292012 0.00522372 -0.0195969 0.5 0.0219539 0.0172498 0.00812077 -0.0175279 -0.00831528 0.0107412 
510 2 3.84153 2.59879 3.14015 0 0 0 0.0309811 -0.0514844 0.0571068 -0.0433829 0.044817 -0.0654965 0.0064526 0.00983967 -0.00243358 0.5 0.0524266 0.0581417 -0.00452439 -0.0276958 0.00829823 0.023702 
19 1 4.35532 1.86128 2.38724 0 0 0 0.0259081 -0.0361675 0.0355679 -0.038684 0.0296336 -0.0218215 0.0319692 0.00275884 -0.0135224 0.5 -0.17114 0.00943658 -0.0521266 0.0169634 0.0936872 0.00844352 
543 2 1.06002 1.82223 3.21824 0 0 0 0.0353886 -0.057963 -0.0311496 -0.0633083 0.0439902 0.0171623 0.010845 0.0162757 0.00617581 0.5 -0.001345 -0.00195025 0.00460251 -0.011413 0.0380029 0.0069321 
773 2 4.7768 2.26924 3.28138 0 0 0 0.0225732 -0.0837644 0.0468305 -0.0150945 0.119965 -0.0561516 0.0122727 0.0113544 -0.00874106 0.5 -0.0678647 -0.167541 -0.195658 -0.0910336 0.106017 0.145429 
555 2 2.21875 2.54213 3.87172 0 0 0 0.0466459 -0.0616556 0.0542248 -0.061944 0.0519651 -0.062239 -0.00838007 0.00172003 0.0110359 0.5 -0.0287322 -0.0150782 -0.0107527 -0.0212744 0.02764 0.0299518 
429 1 0.319068 2.44469 3.7868 1 0 0 -0.00780334 -0.0737012 -0.0560169 -0.0256171 0.0672035 0.0595408 -0.00158219 -0.00210919 0.0187425 0.5 -0.00599078 -0.19027 -0.117676 0.0321969 -0.0189392 0.115961 
316 1 0.879164 0.56058 2.91802 1 0 0 0.0307361 -0.0804147 -0.0752768 -0.0439941 0.0547255 0.0509331 -0.00351 -0.00754669 0.0108908 0.5 0.0197068 0.00657542 0.0378494 0.0155885 0.00343211 -0.00513593 
503 2 3.6067 0.801352 2.89144 0 0 0 0.0262001 -0.0575708 -0.0131283 -0.0405853 0.0525021 0.0317492 0.0119895 0.00725061 -0.00138349 0.5 -0.0494849 -0.0039957 -0.0584561 -0.0140717 -0.0140896 0.0108913 
896 2 0.691102 3.71364 2.63236 1 0 0 0.017465 -0.0838422 -0.011038 -0.0166261 0.0787547 0.0175625 -0.00864317 0.0056182 0.0037573 0.5 -0.0169153 -0.113532 -0.103939 -0.0102418 0.0125354 -0.00425751 
690 2 1.93731 4.70141 2.90223 0 0 0 -0.00607713 -0.0473047 0.0411196 0.013395 0.0281099 -0.0283705 0.0138683 -0.0214106 0.0151763 0.5 -0.0590078 -0.0151613 -0.00033526 0.0320672 0.0211265 -0.00531284 
641 2 3.45456 3.5307 3.18511 0 0 0 0.00479367 -0.0543107 0.0735904 0.00544696 0.0565078 -0.0634124 -0.00301905 0.00224859 0.00031305 0.5 0.00751655 0.0566123 0.0416067 -0.0468333 0.0235775 0.016467 
528 2 3.3293 4.83084 2.39441 0 0 0 0.0132622 -0.0439034 0.0880545 0.0190387 0.0272327 -0.070616 0.0296516 0.0100792 -0.0140096 0.5 0.00179187 -0.0116283 -0.00349762 -0.0112153 0.0125591 0.0179248 
225 1 2.66552 2.413 2.982 0 0 1 0.0130251 -0.0553864 0.0360536 -0.0281765 0.0529439 -0.0453653 -0.000773916 0.0159629 0.0211483 0.5 -0.0213708 -0.0600947 0.0296383 0.0357352 0.0150732 -0.0259949 
119 1 0.629251 2.88818 2.07133 0 0 0 -0.0159028 -0.0825994 -0.00928469 0.00720975 0.093482 -0.00550132 0.0177849 0.00644335 0.0109779 0.5 0.0445141 -0.0918496 -0.159484 0.0166056 0.0371462 -0.052862 
200 1 2.43367 0.225001 4.21201 0 1 0 0.0526279 -0.0230392 -0.025888 -0.0115846 0.0116435 0.0190946 -0.0239059 -0.01405 0.00915158 0.5 -0.0611764 -0.0396887 -0.0938326 -0.00545212 0.0434105 0.0294494 
114 1 4.68667 1.03043 4.16934 0 0 0 0.0468295 -0.0520912 0.00394675 -0.0773594 0.0541152 -0.00737264 0.000652621 0.00222559 -0.00811645 0.5 -0.052432 0.0115066 -0.0516843 0.00184508 -0.0469933 0.00437546 
820 2 1.30281 2.31627 4.21455 1 0 0 0.0206755 -0.0328483 -0.00183222 -0.0346102 0.0124885 -0.00665969 -0.0125303 -0.0191721 0.00987941 0.5 -0.0547114 -0.03692 -0.0650195 -0.00850644 0.0278132 0.0503834 
47 1 4.61509 1.60736 5.42411 0 0 0 0.0873215 -0.0539084 0.0247624 -0.0793304 0.0595436 -0.0306652 0.0197247 0.0189412 0.0132612 0.5 -0.0473839 -0.0371259 -0.0248931 -0.0338558 -0.0253084 0.0165223 
824 2 1.63121 3.81381 5.75909 1 0 0 0.0460973 0.0508943 0.0614332 -0.0745035 -0.0867448 -0.0681902 -0.0520067 -0.00135177 -0.0143515 0.5 -0.0386003 -0.0247964 -0.0855854 -0.0249666 0.0275005 0.0256705 
172 1 3.41946 0.330423 4.71671 0 1 0 0.0406731 0.0223275 0.00279784 -0.045193 -0.0609758 0.0321888 -0.0216324 -0.0106945 -0.00217898 0.5 -0.0378053 -0.037512 -0.109831 -0.032845 0.0298793 0.0496157 
718 2 0.197132 2.02295 5.51904 0 1 0 0.00606164 0.0285834 -0.0133783 0.00626425 -0.0174271 0.0092257 -0.0195476 0.0010667 0.0021425 0.5 -0.0799097 0.00526395 -0.0319101 0.051368 -0.062204 0.131579 
505 2 0.479722 3.44532 5.81576 0 0 -1 0.0254484 0.103267 0.0176187 -0.0544244 -0.08719 0.00998386 -0.00599668 -0.00549733 0.0148058 0.5 -0.0342672 -0.187174 -0.101276 0.00273494 -0.019841 0.13968 
524 2 3.94699 2.72742 5.65008 0 0 0 0.0675922 0.000151438 0.085151 -0.0455559 0.0151954 -0.047899 0.00199696 0.015108 0.0072453 0.5 -0.000176005 0.0227626 0.00346784 -0.00819308 -0.0092769 0.012777 
839 2 0.564101 1.65185 4.34475 1 0 0 0.0381122 -0.0622881 -0.0597923 -0.0658118 0.0590189 0.0620048 -0.0146422 -0.0151331 0.03054 0.5 -0.028208 -0.183584 -0.129782 0.0364584 0.00654941 0.145697 
937 2 2.4269 3.4173 4.31657 1 0 0 0.0326536 -0.0480286 0.0369418 -0.0544038 0.0336653 -0.0307178 -0.00969427 -0.0111858 0.00241733 0.5 -0.217176 -0.0404494 -0.138627 -0.0936691 0.107307 0.0977488 
811 2 2.58595 3.95201 5.49358 1 0 0 0.0496862 0.00169891 0.0505546 -0.0704104 -0.0406684 -0.0271418 -0.0107523 -0.0132157 -0.0218459 0.5 -0.0604947 -0.0668225 -0.0263799 -0.0574988 0.0153971 0.0484052 
827 2 1.51369 3.2043 4.66387 1 0 0 0.0143398 -0.0325004 -0.00152363 -0.0406733 0.0174227 -0.00546075 -0.023138 -0.0270288 -0.019393 0.5 -0.187235 -0.065759 -0.170646 -0.0256963 0.0650821 0.0923654 
149 1 4.03436 3.94603 4.57663 0 0 0 0.0394455 -0.0242136 0.0738032 -0.0396931 0.0312719 -0.0767226 0.00591776 0.00864338 0.00295042 0.5 -0.0406353 -0.0187472 0.0296338 0.0113861 0.0417403 0.0454946 
925 2 0.604197 3.59991 4.53622 1 0 0 0.0327665 0.00396167 -0.0199937 -0.0463916 -7.30673e-05 -0.0131589 -0.0193643 -0.00422307 -0.0118834 0.5 -0.0926563 -0.0298291 -0.00538739 0.0330917 -0.0408412 0.0226055 
168 1 3.30933 4.61142 5.28371 0 0 0 0.0674669 -0.0100376 0.0825403 -0.111519 -0.00479283 -0.0692472 -0.00569099 -0.00238254 0.00982881 0.5 -0.1051 -0.0770963 -0.0939606 -0.0354565 -0.0135134 0.0510198 
928 2 1.5662 4.40708 4.95589 1 0 0 0.0138966 0.00923003 0.0343581 -0.0187656 -0.0207425 -0.0232638 -0.0364255 -0.0101667 -0.0193194 0.5 -0.128761 -0.0900344 -0.0866753 -0.0635943 0.0862139 0.0470708 
148 1 3.92084 3.73437 5.68519 0 0 0 0.0375064 0.00117527 0.10607 -0.0413733 0.0165638 -0.0999718 -0.018926 -0.0190837 0.0182062 0.5 0.0107115 0.0570766 0.0273047 0.0298384 0.0230902 0.0302645 
914 2 4.6798 4.4041 5.18832 0 0 0 0.0333064 -0.0481399 0.0995116 -0.0466975 0.0618998 -0.0955718 -0.0108487 -0.00742672 -0.0188601 0.5 0.0272 0.00923552 0.0517573 -0.00244938 0.0205281 0.0336862 
23 1 2.8585 1.13184 4.07344 0 0 0 0.0437044 -0.0212981 -0.0112528 -0.053047 0.0242296 -0.033095 0.0104688 -0.00901521 -0.00402487 0.5 -0.044502 -0.0468291 -0.034826 -0.0266317 0.0109753 0.0276169 
594 2 2.03532 1.9562 4.80319 0 0 0 0.0430997 0.0181828 -0.00607485 -0.0530068 -0.000456763 0.0207825 0.00375367 -0.0222108 0.00406172 0.5 -0.0163557 -0.0770299 -0.0265568 0.0262716 -0.015885 0.0345825 
539 2 3.75429 1.02666 5.44891 0 0 0 0.0694713 0.0177997 0.0332437 -0.0935416 -0.0180946 -0.0402825 -0.00406 0.00310875 -0.015045 0.5 -0.0312609 -0.223289 -0.101313 -0.0579766 -0.0663965 0.179644 
730 2 0.451133 1.10789 5.17618 0 1 0 0.0110598 0.0190503 -0.010135 -0.0013354 -0.0215481 0.0117181 -0.00914315 0.00879426 0.0155984 0.5 0.0491296 -0.0662102 -0.0806158 -0.0281877 -0.020741 0.11168 
689 2 3.50939 0.0880589 5.696 0 1 0 0.0118813 0.026284 -0.00326606 0.00425277 -0.0389966 -0.00464473 -0.00926566 -0.0203657 -0.0289895 0.5 -0.0414032 -0.239889 -0.130855 -0.0228304 0.011911 0.147081 
450 1 0.575383 4.80788 4.48066 1 0 0 0.0804088 -0.00610229 -0.0433831 -0.0424044 0.0181711 0.075765 -0.0708259 0.00468794 -0.0229537 0.5 -0.0242737 -0.0429304 -0.117772 0.0268743 -0.0441754 0.0597295 
549 2 4.4928 0.51367 5.00645 0 0 0 0.024971 -0.0333529 0.0116596 -0.041109 0.0420036 -0.0109556 -0.0056843 0.0115964 -0.0256447 0.5 0.0654893 0.0844283 0.0471449 -0.0273334 -0.0355039 0.0401868 
591 2 1.41586 1.13598 4.44125 0 0 0 0.0678965 -0.0110558 -0.0532266 -0.0948728 0.0135967 0.0481726 -0.016572 0.0057912 0.00482887 0.5 -0.0220972 -0.082407 -0.0309496 0.0195749 0.0102275 0.0425395 
243 1 1.20085 1.8142 5.37061 0 1 0 -0.00246 0.0375262 -0.0682578 0.0146262 -0.0174905 0.106762 -0.00776752 -0.00871287 0.0120323 0.5 -0.0331242 -0.0751208 -0.0323049 -0.00296571 -0.00873945 0.0488979 
646 2 3.71358 3.1399 4.06848 0 0 0 0.0428215 -0.0279929 0.0739405 -0.0244175 0.0263974 -0.0689558 -0.00326333 0.0077318 -0.0107632 0.5 -0.0507947 -0.119551 -0.0353481 0.0130326 0.0228889 0.0689142 
374 1 0.571807 2.63413 4.82106 1 0 0 0.0157863 0.00479097 -0.0279461 -0.0194508 0.00485001 0.0143568 -0.0190122 -0.0215799 -0.00662853 0.5 -0.0215179 -0.0328488 -0.0273816 -0.0191542 0.0191672 0.0275637 
418 1 0.653784 4.31793 5.3571 1 0 0 -0.00222196 0.105348 0.0155347 0.00882408 -0.0924024 0.0151846 -0.0424977 -0.0181664 -0.0182809 0.5 -0.07571 -0.122665 -0.116451 -0.0448206 0.0441376 0.0795791 
190 1 2.17537 2.41226 5.99107 0 1 0 -0.0227798 0.0661422 0.0607057 0.0206999 -0.103847 -0.046367 -0.0114619 -0.0308883 -0.0168539 0.5 -0.00308528 -0.0479128 -0.0881859 -0.00490442 0.0200981 0.0839253 
507 2 3.66253 1.49317 4.5668 0 0 0 0.0258379 -0.0339409 0.0154783 -0.0579451 0.0372481 -0.0224322 0.0143553 -0.000319355 0.00175938 0.5 -0.0518281 -0.050159 -0.11735 -0.0657773 0.0177206 0.171871 
155 1 4.8478 3.42936 4.84852 0 0 0 0.0416562 -0.0323281 0.0487622 -0.0393809 0.0381431 -0.063506 -0.00746411 0.0115196 -0.0010289 0.5 -0.0292713 -0.100621 -0.150569 0.0176304 -0.0344346 0.11691 
573 2 2.47403 2.8351 5.13 0 0 0 0.0519217 -0.0195928 0.0538199 -0.0764642 0.0401683 -0.0212279 -0.0240718 -0.0274597 -0.0123308 0.5 -0.0320427 -0.093902 -0.111742 -0.047202 0.0448497 0.0935249 
766 2 5.01421 3.00632 5.73919 0 0 0 0.0461683 0.0270452 0.076101 -0.0605248 -0.0103243 -0.0800089 0.00174602 -0.00628202 -0.0191216 0.5 -0.0538886 -0.139006 -0.190313 0.00881248 -0.00853923 0.129511 
513 2 3.44319 2.45322 4.74325 0 0 0 0.0389761 -0.0385103 0.0617771 -0.0369513 0.0455812 -0.0544484 0.0119756 0.00421828 -0.00998208 0.5 -0.0208236 -0.0108491 -0.119119 -0.0408092 0.041807 0.13753 
180 1 2.37032 4.45956 4.36378 0 0 0 0.0303643 -0.0286718 0.0532949 -0.0490221 0.0179634 -0.0597726 -0.025674 -0.00895529 0.00284011 0.5 -0.109918 0.00770482 -0.0668188 0.0246479 0.0845345 0.00394694 
154 1 3.28222 3.42445 4.9794 0 0 0 0.062128 -0.0368974 0.0995403 -0.0611959 0.0435117 -0.0923049 -0.00864726 -0.00796314 0.00320104 0.5 -0.0470862 0.0151781 0.0281253 -0.0444599 0.0297059 0.0500509 
740 2 1.2916 2.79448 5.54855 0 1 0 -0.034105 0.0249406 0.0130108 0.021892 -0.00129712 -0.00165335 -0.0230561 -0.0295764 0.00889953 0.5 -0.0137089 -0.0807737 -0.177432 -0.0163449 0.0208373 0.0850478 
657 2 4.07417 4.7144 5.9228 0 0 0 0.053341 0.0108847 0.0918183 -0.0771626 0.0245489 -0.108046 -0.0360593 -0.00898951 -0.00943046 0.5 -0.0706234 -0.0752521 -0.054754 -0.00278675 -0.0735274 0.0639212 
187 1 2.42871 1.05231 4.97985 0 1 0 0.0447226 0.0195769 -0.0105088 -0.000574854 0.0141666 -0.00680906 -0.0129844 -0.0137042 -0.00640772 0.5 -0.0155288 -0.0887376 -0.0538397 -0.00761038 0.0120691 0.0635778 
127 1 3.20206 1.86142 5.5124 0 0 0 0.0282721 -0.0146483 0.0767439 -0.0256208 0.0309116 -0.0580111 -0.0418611 -0.00460722 0.00986648 0.5 -0.0115386 -0.0762361 -0.136429 -0.00872391 0.0274368 0.0676099 
708 2 1.35846 0.76982 5.42746 0 1 0 0.0459029 0.0516276 -0.0905588 -0.0492314 -0.0705917 0.0990614 -0.0162898 -0.00862527 0.00676094 0.5 0.0908597 0.0438324 0.00901654 -0.000520642 0.0096197 0.0562229 
204 1 1.51615 0.154324 4.60333 0 1 0 0.0337257 -0.0170875 -0.0690311 -0.00285099 0.0175304 0.0418755 -0.0239784 -0.0200507 -0.00495967 0.5 -0.0776817 -0.0549342 -0.0541616 0.00433763 0.0654459 0.088012 