ITEM: TIMESTEP
128000
ITEM: NUMBER OF ATOMS
1000
ITEM: BOX BOUNDS xy xz yz pp pp pp
0.0000000000000000e+00 1.0000000000000000e+01 0.0000000000000000e+00
0.0000000000000000e+00 1.0000000000000000e+01 0.0000000000000000e+00
0.0000000000000000e+00 1.0000000000000000e+01 0.0000000000000000e+00
ITEM: ATOMS id type x y z ix iy iz vx vy vz fx fy fz omegax omegay omegaz radius c_2[1] c_2[2] c_2[3] c_2[4] c_2[5] c_2[6] 
120 1 3.15868 1.54108 0.0720728 0 1 0 -0.000248846 0.000673653 0.000330536 0.000231091 -0.000632364 -0.00029169 0.000338991 -0.000100725 -0.0002509 0.5 -0.000233727 -0.00137497 -0.00010034 -0.000168134 -2.94386e-05 -0.000278365 
525 2 2.11642 1.23493 1.70052 0 0 0 -0.000226311 -0.000994389 -0.00108538 0.000175119 0.000833942 0.000960256 -0.000145629 -5.48486e-05 0.000250246 0.5 -9.32e-06 -9.13481e-05 4.26974e-05 0.00010538 9.0966e-05 -6.89902e-05 
371 1 4.95915 3.68365 1.58319 0 0 1 0.000253003 -0.00063682 0.000926883 -0.000206307 0.000547313 -0.000826113 0.000102529 -1.15353e-05 4.53821e-05 0.5 -2.13888e-05 -0.000588382 0.000604725 -7.73206e-05 -7.08049e-05 3.34647e-05 
18 1 1.98125 2.69191 0.532028 0 0 0 -0.000122641 9.48056e-05 0.000804878 0.000105987 -0.000112812 -0.000697545 0.000516585 -0.000229467 0.000184635 0.5 -7.65912e-05 -0.000943652 -0.000526509 0.000708152 0.0006201 -0.000594946 
868 2 2.87002 3.00634 0.0284332 0 0 1 1.70626e-05 4.70129e-05 0.000797531 7.28082e-07 -9.23893e-05 -0.000693271 0.000436869 -0.000102323 0.000186278 0.5 -0.000432028 -0.00094274 -5.46368e-05 0.000680366 0.000121698 -4.21618e-05 
25 1 1.41555 0.708823 1.08391 0 0 0 -9.49783e-05 -0.000160773 -0.00123525 6.25951e-05 0.000101204 0.00111934 0.000410216 -7.34388e-05 0.000172182 0.5 -0.000512467 -0.00260991 -0.00126622 0.000948838 0.000758309 -0.00106983 
378 1 4.61919 2.40702 0.0721448 0 0 1 1.47627e-06 0.000324219 0.000755618 9.604e-06 -0.000305933 -0.00068067 0.000545709 0.000148397 -9.45508e-05 0.5 -0.000287461 -0.000672626 -0.00033172 -0.000349744 -0.000182553 -0.000712868 
8 1 3.44139 2.0683 1.74233 0 0 0 5.92426e-05 -0.000553551 0.000368671 -5.51018e-05 0.000462434 -0.000339176 0.000417689 -0.000168719 4.92513e-05 0.5 -0.00019268 -0.00021162 0.000117791 0.000237087 0.000344627 -1.93317e-05 
629 2 4.077 2.61579 1.19765 0 0 1 0.000219652 -0.000302058 0.000809578 -0.000191605 0.000240259 -0.000722352 0.000525382 -9.62118e-05 -9.4177e-06 0.5 -0.000662039 -0.000373729 -0.000677166 5.96376e-05 -0.00026152 -0.000165099 
5 1 2.34663 3.9011 1.05289 0 0 0 -0.000222824 -0.000987618 0.000911917 0.000219194 0.000842417 -0.000786891 -4.64359e-06 4.73798e-05 0.000258109 0.5 -0.000105266 -0.000163255 -0.000221363 0.000165572 0.000107422 -9.20212e-05 
650 2 0.459497 3.43714 1.12981 0 0 0 -0.000635219 -0.000787032 -0.000303222 0.0005825 0.000678616 0.000345825 0.000440906 0.000149522 4.69877e-05 0.5 -0.000832723 -0.000992373 -0.000858315 0.000603004 0.000684943 -0.000506072 
14 1 3.29512 3.13401 1.54423 0 0 0 2.73724e-05 -0.000610433 0.000837308 -8.75691e-06 0.000524358 -0.00073525 0.000273837 5.28623e-05 2.86504e-05 0.5 1.34797e-05 -0.000240408 -0.000308997 0.000202936 6.43698e-05 -0.000351846 
264 1 3.99628 3.8683 1.37898 0 0 0 0.000243687 -0.000672202 0.000940345 -0.000198234 0.00056831 -0.000843938 0.000357933 7.80034e-05 1.5123e-05 0.5 -0.000113954 -8.14802e-06 -0.000464701 0.000196396 0.000182125 -2.45752e-05 
223 1 0.747948 2.4785 1.1457 0 0 1 -0.000526777 -0.000734608 -0.000107354 0.000469158 0.000626067 0.000126787 0.000564847 -0.000197244 0.000154568 0.5 -0.000597297 -0.00123641 -0.00337311 0.000376223 0.00132374 -0.000856738 
364 1 4.42277 4.23677 0.539141 0 0 1 -0.000136932 0.000292025 0.00118731 0.000136126 -0.000284025 -0.00106007 0.000321718 2.19415e-05 0.000212741 0.5 6.34333e-05 -2.98408e-05 -2.76685e-05 -1.24644e-05 0.000211111 -0.000118333 
107 1 1.66098 1.61823 0.747899 0 0 1 -0.000344737 6.23811e-05 -0.000798918 0.000298179 -9.32476e-05 0.000753195 0.000597572 -6.75412e-06 5.16426e-05 0.5 0.000540739 -0.000514397 -0.000451788 -9.33308e-05 4.77116e-05 -0.000386646 
529 2 2.67256 2.19974 1.06184 0 0 0 0.000163259 -0.00020128 0.000161753 -0.000151721 0.00014395 -0.000129655 0.000537753 -8.47817e-05 0.000118716 0.5 1.28124e-05 -0.000158932 -0.00025986 7.14393e-05 0.000170518 -5.33844e-05 
515 2 4.38641 0.436298 1.644 0 0 0 3.50973e-05 -0.000642163 -0.000235643 -3.19632e-05 0.000550228 0.000200151 0.000326336 3.21997e-05 -3.77423e-05 0.5 -0.000783526 -0.000575918 -0.000884102 -0.00087971 0.000425977 0.000315317 
244 1 4.1137 0.570413 0.682803 0 1 1 4.55891e-05 8.17841e-05 -0.000120186 -3.81792e-05 -8.67946e-05 9.55776e-05 0.000469552 0.00011366 -0.000107588 0.5 -0.000433857 -0.000394522 -0.000664296 -0.000215746 0.000320202 0.000185166 
20 1 2.90174 0.571119 1.78408 0 0 0 8.75112e-05 -0.000482728 -0.000418011 -8.60383e-05 0.000399706 0.000359571 0.000223587 -0.000162385 4.67224e-05 0.5 -0.000648934 -0.00116175 -0.0015744 4.76256e-05 0.000834902 -0.000840856 
280 1 4.09069 1.58213 1.14615 0 0 0 0.000139058 -0.00018262 0.000201586 -0.000123043 0.000133417 -0.000191907 0.000466128 -6.66221e-05 -4.97469e-05 0.5 -0.000713633 -0.000527309 -0.00142235 -4.02e-05 0.000878342 0.00014383 
620 2 1.39484 4.37118 0.857381 0 0 1 -0.000475444 -0.000594516 0.000392467 0.000493806 0.000506088 -0.00027465 0.000437989 0.000203212 -5.57147e-05 0.5 -0.000186506 -0.00103532 -0.00179791 -8.47691e-05 5.44709e-05 0.000326915 
1000 2 3.60317 2.3981 0.339413 0 1 1 0.000235846 0.000282414 0.000695651 -0.00017576 -0.000292991 -0.000631378 0.00042336 -2.55653e-05 -6.16081e-05 0.5 -0.000432313 -0.00110861 -0.00046186 -0.000252753 -0.000323397 -0.000161486 
103 1 3.28432 3.68332 0.698295 0 0 1 -3.43812e-05 -0.000199089 0.00110314 4.30376e-05 0.000142977 -0.000980333 0.00040456 -4.22258e-06 0.000194854 0.5 1.20293e-05 0.000124578 -0.00013061 7.67022e-05 0.000185718 -0.000143168 
622 2 0.930914 4.80381 0.084334 0 0 1 -0.000509293 8.87262e-05 0.000794907 0.000544148 -0.000111094 -0.000649614 0.000646256 -0.00017773 0.000135077 0.5 1.79661e-05 0.000126734 -0.000822806 -8.90401e-05 -0.000288541 0.000168371 
506 2 0.743886 1.45177 1.183 0 0 0 -0.000529389 -0.000754749 -0.00111806 0.000450289 0.000641613 0.00102042 0.00049763 -6.14981e-05 0.000318897 0.5 8.16836e-05 -0.00153835 -0.00017558 0.00176588 0.000468713 -0.000957102 
626 2 1.2885 3.41667 0.566311 0 0 1 -0.000591968 -0.000364325 -0.000208598 0.000542505 0.000308363 0.000259713 0.000152859 -0.000313725 0.000206703 0.5 -0.000697904 -0.0010523 -0.000221703 0.00048219 0.000597501 -0.000367253 
553 2 0.744027 0.0777567 1.56399 0 0 0 5.72377e-05 -0.000578628 -0.00160864 -8.54051e-05 0.000498077 0.00146291 4.00797e-05 -0.000252408 0.000373404 0.5 0.000140345 0.000132746 0.000115857 -5.69606e-05 0.000116251 -0.000192673 
135 1 1.54752 3.20524 1.67717 0 0 0 0.000283741 -0.000866076 -0.000180537 -0.000242806 0.000750808 0.000195784 0.000308248 -0.000553284 -2.88358e-05 0.5 8.63194e-05 -0.00238797 -0.000360255 0.000571409 0.000276539 -9.69742e-05 
624 2 4.32452 4.92123 1.47096 0 0 1 0.000120813 -0.000439451 0.0010431 -7.86319e-05 0.000399184 -0.000950167 0.000256366 0.000130372 5.27879e-05 0.5 0.000129808 0.000105739 -0.000755146 4.12486e-05 -0.000233583 -0.000430113 
256 1 4.58712 1.36778 0.30495 0 0 0 0.000121819 0.0001378 0.000109338 -0.000104289 -0.000137828 -0.000111271 0.000511022 0.000117646 -0.000233074 0.5 -0.000362935 -0.000592585 -0.00135165 -0.000402347 0.000571549 -0.000445277 
260 1 3.31851 0.0702042 1.02553 0 0 0 3.13152e-05 -0.000234097 -0.000613704 -1.29376e-05 0.000181451 0.000544517 0.000265396 0.000222225 -0.000177585 0.5 -0.000482379 -0.00114925 -0.0011108 -0.000133147 0.000331741 -0.000628861 
616 2 3.19091 4.48109 1.50607 0 0 1 0.000247498 -0.00081532 0.000967975 -0.000202029 0.000687747 -0.000880194 -9.92576e-06 3.37789e-05 5.95346e-05 0.5 -0.000312937 -0.000128431 -0.00016039 0.000214024 9.78028e-05 -0.000102674 
106 1 1.74512 2.23612 1.52965 0 0 1 0.000173161 -0.000902512 -9.17655e-05 -0.000162152 0.000780548 0.000110743 0.000463324 -0.000211348 -0.000103457 0.5 1.33039e-05 -0.0013036 -0.000374999 0.000297646 0.000538395 -0.000362781 
157 1 1.38959 4.17937 1.8388 0 0 0 0.000162035 -0.000968881 0.000323054 -0.000115103 0.000838841 -0.000213466 0.000372858 0.00013706 4.89378e-05 0.5 -0.000595469 -0.00179787 -0.00197258 0.000319328 0.00070914 -0.000389682 
516 2 2.34691 0.89023 0.688217 0 0 0 1.99232e-05 0.000374814 -0.000454846 -3.25976e-05 -0.000375065 0.000428162 2.89926e-05 -0.000329982 -0.000114666 0.5 0.000107513 -0.000277141 -0.000103865 5.19788e-05 0.000461945 -0.000421994 
183 1 0.4155 4.58278 1.00318 0 0 0 -0.000497 -0.00097773 0.000953026 0.000530734 0.000888057 -0.000732331 0.000801689 0.000219151 0.000153307 0.5 0.00010966 -8.31629e-05 1.61714e-05 4.69541e-05 -7.8609e-05 2.16833e-05 
625 2 0.400236 3.91215 0.209855 0 0 1 -0.000517755 8.88009e-06 0.000166885 0.000496457 7.56898e-06 -4.33225e-05 0.000862915 -9.12925e-05 -0.000168318 0.5 -6.50643e-05 -1.96034e-05 -0.000226779 -5.36474e-05 -8.32521e-05 0.000125525 
91 1 2.22052 4.71734 1.69598 0 0 1 0.000219502 -0.000955411 0.000758563 -0.000162879 0.000812246 -0.00063551 9.91688e-05 -0.000172086 -4.81922e-05 0.5 -0.00045724 -0.00048618 -0.00017191 -0.000213497 0.000223938 -9.63858e-05 
257 1 4.9403 2.69162 1.70782 0 0 0 0.000218629 -0.000656584 0.000765079 -0.000194009 0.000564766 -0.000685695 0.000267857 3.82517e-05 -5.26959e-05 0.5 -0.000711055 -0.000596039 -0.00174723 5.08664e-06 -0.000428555 -0.000339224 
4 1 3.72169 1.12816 1.95717 0 0 0 8.38013e-05 -0.000643803 -8.13076e-05 -7.95224e-05 0.000543307 5.67646e-05 0.000347213 -4.23373e-05 -2.35241e-05 0.5 -0.000244384 -0.000360623 -0.00111671 -0.000412826 0.000407658 0.000600895 
609 2 1.99632 4.7602 0.136276 0 0 1 -0.000177177 -0.000247237 0.00106911 0.000187227 0.000179223 -0.000926507 0.000248316 -0.000310019 0.000136975 0.5 -0.0018792 -0.00610632 -0.001023 0.00157708 0.000772908 -0.00121465 
117 1 3.12737 1.3139 1.1537 0 1 0 0.000151221 -0.000235032 -0.000103425 -0.00013254 0.000175524 7.89623e-05 0.000434939 -0.000121946 -4.47792e-05 0.5 6.97266e-05 -0.000265823 0.00015094 -2.70934e-05 0.000301379 0.000153367 
511 2 1.08091 2.2502 0.230812 0 0 0 -0.000193157 0.000605706 -0.000321352 0.000177749 -0.000570212 0.000321261 0.000802314 -9.77224e-05 -0.000170226 0.5 -0.000361645 -0.00122319 -0.00317792 0.000305383 0.00138364 -0.000637323 
911 2 0.492064 0.563778 0.698468 1 0 0 -5.61584e-05 -0.000250576 -0.00147482 2.49722e-05 0.000202733 0.0013375 0.000106286 -0.000127616 -6.8501e-05 0.5 0.000292356 -0.00102731 3.26605e-05 -9.98787e-05 0.000126136 -0.000432246 
668 2 0.00215435 3.82068 1.93287 0 0 0 3.33709e-05 -0.00154995 0.000417109 -4.30189e-05 0.00135781 -0.00031424 0.000149683 0.000234898 -8.81747e-05 0.5 -0.00112021 -0.00311926 -0.00119192 0.000921395 -0.000141991 -0.000169025 
90 1 2.94003 4.58028 0.41958 0 0 1 -0.000273955 -0.000196296 0.00139225 0.000281477 0.000151561 -0.00123269 0.000274549 -0.000127194 0.000228674 0.5 -3.56697e-05 0.00105892 0.000302039 0.000585866 0.000478624 0.000451566 
734 2 4.13729 3.24495 0.374217 0 1 1 0.000223916 0.000257178 0.00124102 -0.000188676 -0.000255484 -0.0011093 0.000482029 5.71459e-05 1.1404e-05 0.5 -0.000221455 -0.000326948 -0.000170977 -0.00012662 0.000221167 -8.65194e-05 
672 2 0.0679456 1.98633 1.69029 0 0 0 -0.000658286 -0.00125416 -0.000762319 0.000564624 0.00109765 0.000690647 0.000505204 -6.05951e-05 0.000180894 0.5 -0.00209094 -0.00337014 -0.00141858 0.00132441 0.00121578 6.42603e-05 
759 2 4.95852 2.03885 0.950488 0 0 0 0.000251068 -0.000289269 0.000449021 -0.000227448 0.000239747 -0.000405985 0.000466191 -1.20889e-06 -0.000115087 0.5 -0.000181553 -0.000994668 -0.000285153 -0.000320395 1.91252e-05 -0.000284721 
21 1 1.84579 0.357345 2.43174 0 0 0 -0.000204966 -0.000990645 -0.00100649 0.00016636 0.00086611 0.000901853 0.000211609 -0.000346799 0.000291079 0.5 7.45656e-05 0.000156491 -1.19854e-05 -2.44739e-05 0.000114376 -0.000221371 
682 2 2.73045 4.08402 2.77206 0 0 0 0.000215111 -0.000708727 0.000739122 -0.000181697 0.000622932 -0.000653849 4.79958e-05 -4.11009e-05 -3.46185e-05 0.5 -0.00110956 -0.00102551 -0.000430816 0.000266686 0.000924336 0.000881598 
907 2 0.981956 4.62577 2.63539 1 0 0 0.000240468 -0.00120853 0.000498219 -0.000212548 0.00104008 -0.000376825 4.74726e-05 -0.000166184 5.38017e-05 0.5 -0.00131123 -0.00183354 -0.00167794 0.000388613 0.000949726 -0.000642982 
144 1 1.68486 3.6013 2.81084 0 0 0 0.000345631 -0.0011082 3.92697e-05 -0.000310096 0.00095087 -2.04167e-05 1.21371e-05 -3.1819e-05 -8.99574e-05 0.5 -9.43783e-05 -0.000248691 -0.000224289 0.000201196 0.000201531 -8.86219e-05 
675 2 2.83086 4.73888 3.54494 0 0 0 0.000403436 -0.000666313 0.000797981 -0.000401041 0.000612959 -0.000711527 -0.000125266 -3.29622e-07 -0.00010751 0.5 9.71326e-06 0.000142117 0.0002583 0.000124359 2.73451e-05 0.000306404 
502 2 4.38944 1.31167 3.26924 0 0 0 0.000189225 -0.000761012 -3.08857e-05 -0.000186687 0.00070402 1.24553e-05 0.00014344 6.46139e-05 -0.000102043 0.5 -0.000856293 -0.000564775 -0.000499967 -0.000513561 0.000599666 0.000874872 
27 1 2.60896 0.3012 3.21098 0 0 0 0.00023399 -0.000767127 -0.000519715 -0.000240728 0.000672596 0.000451249 -3.82266e-05 -0.000119741 6.5483e-05 0.5 -0.000852929 -0.000926744 -0.00188863 0.000305279 0.000782102 0.000118359 
965 2 1.3555 3.65885 3.79903 1 0 0 0.000446313 -0.00118139 -0.000150908 -0.00041488 0.000990185 0.000152693 -0.000128395 0.000155631 -0.000231951 0.5 -0.00031872 -0.000848857 -0.00105411 0.000475648 -0.000250796 0.000572481 
61 1 1.66167 0.449224 3.51429 0 0 0 5.21087e-08 -0.000992495 -0.00127652 -4.14071e-05 0.000838881 0.00111924 -0.000100734 -0.000119299 0.000156801 0.5 -0.000672842 -1.74566e-05 -0.000117347 9.44028e-05 0.000490544 -5.52952e-05 
680 2 1.1902 2.78216 3.34703 0 0 0 -0.00015733 -0.00104811 -0.000184804 0.000123598 0.000872714 0.000180459 4.58956e-05 0.000114379 -4.94025e-05 0.5 -6.38364e-05 -0.000286513 -0.000468359 3.28787e-05 0.000253003 0.000152637 
251 1 4.71386 3.03433 3.8951 0 0 0 0.000613473 -0.000890163 0.000790476 -0.000558855 0.000822982 -0.000718349 0.000228083 0.000175673 -0.000277718 0.5 -0.000833577 -0.00025395 2.52302e-05 -0.000698749 0.000312609 0.00053287 
517 2 4.00881 2.8941 2.21783 0 0 0 0.000141217 -0.000864189 0.000640486 -9.75412e-05 0.000785949 -0.00056528 8.97205e-05 0.000150918 -0.000150718 0.5 2.23923e-05 -2.75937e-05 -0.00013145 -4.28403e-05 1.00071e-07 0.000105258 
6 1 3.42174 1.78022 2.73238 0 0 0 0.000107605 -0.000581952 0.000413468 -0.000114728 0.000511421 -0.000374633 0.000312335 -0.000126432 0.000113896 0.5 -0.00126081 -9.9255e-05 7.07106e-05 0.000216683 0.000611301 0.000162921 
519 2 4.43333 3.61448 3.03032 0 0 0 0.000201323 -0.000720102 0.00104139 -0.000178478 0.00067401 -0.00093309 0.000131134 0.000104381 -4.31137e-05 0.5 -1.5076e-05 0.000422279 0.000223141 -0.000312099 1.37575e-05 0.000150942 
509 2 1.93594 1.51659 3.62399 0 0 0 0.00046324 -0.000772274 -0.00112424 -0.00042636 0.000608472 0.000988905 -0.000154948 0.000369691 5.89446e-05 0.5 0.00012446 -0.000132799 -0.00101971 -0.000104519 0.000208681 0.000284653 
142 1 1.03554 1.94275 2.17038 0 0 0 -0.000265146 -0.000961766 -0.000608547 0.000212856 0.000835429 0.000554692 0.000411759 -3.8937e-06 8.92747e-05 0.5 -1.44346e-06 -0.000172899 -0.000317317 4.25327e-05 2.52723e-05 0.000353425 
941 2 0.192512 2.2593 2.77376 1 0 0 -0.000502689 -0.00148537 -0.000553519 0.000429737 0.00129701 0.000506511 0.000209027 2.5471e-05 4.51246e-05 0.5 -0.000224688 -0.000619907 -0.00100052 -2.7759e-05 0.00017171 0.000150015 
919 2 0.650324 4.31633 3.53362 1 0 0 0.000125239 -0.00133023 0.000332384 -0.000130224 0.00113624 -0.00024012 0.000176675 2.51176e-05 -0.000204018 0.5 -0.000659836 -0.00123707 -0.000723933 0.000657166 4.85865e-05 0.000403426 
95 1 3.53886 3.7786 2.26887 0 0 1 0.000292001 -0.000800964 0.000918012 -0.000253379 0.000719533 -0.000826933 8.34321e-05 -5.64837e-06 -3.09433e-05 0.5 -0.000933898 -0.000360476 -0.00105359 -1.56043e-05 0.000483226 -0.000197677 
458 1 1.55674 4.75416 3.86414 1 0 0 0.000275274 -0.000917245 0.000894174 -0.000249675 0.000803631 -0.000777208 -0.000265644 2.91006e-05 3.36579e-05 0.5 -0.000189377 -8.61796e-05 -0.000128384 0.000151009 -1.27416e-05 -5.12319e-05 
41 1 1.14055 0.960994 2.0117 0 0 0 -0.000139854 -0.000873829 -0.00105443 9.99112e-05 0.000757014 0.000951553 0.0003727 -2.05783e-05 0.000158988 0.5 -0.000262381 -0.000166029 -0.000549654 9.91453e-05 0.000577193 -0.000395445 
814 2 0.271057 1.22819 3.40402 1 0 0 0.000130353 -0.00107039 -0.000922134 -0.00013889 0.00089957 0.000827445 0.000152844 -0.000108214 0.000420504 0.5 -0.000884193 -0.000874476 -0.000913875 0.000381189 0.000495198 0.000978349 
130 1 1.70534 2.64812 2.50047 0 0 0 -0.000264533 -0.00101537 -0.000255415 0.000234609 0.000865184 0.000249385 0.000304974 -0.000138642 -0.000151323 0.5 -0.000521629 -0.00111209 -0.000924358 0.000397865 0.000451762 0.00056639 
12 1 2.70243 1.09612 2.61151 0 0 0 0.000248596 -0.000604085 -0.000301761 -0.000225926 0.00051865 0.000249957 0.000183636 -0.000298926 0.000133377 0.5 -0.000826268 -0.00139787 -0.00103095 0.000309058 0.000641461 -7.62388e-05 
512 2 3.1861 2.03176 3.78733 0 0 0 0.000445373 -0.000156862 0.000211017 -0.000416898 0.000146406 -0.00016066 0.000239331 -0.000112896 0.000126263 0.5 -0.000207097 -0.000549272 -0.000341458 -3.52091e-06 6.03305e-05 0.000522538 
151 1 2.47916 3.30101 3.34103 0 0 0 0.000143975 -0.000878523 0.00047486 -0.000117642 0.000779324 -0.000411252 -5.25787e-06 -0.000118572 4.67592e-05 0.5 -1.6232e-05 -0.00171903 -0.00128678 -5.91674e-05 0.000641608 0.000622817 
667 2 0.284421 1.32154 2.40764 0 0 0 -0.000147527 -0.00122196 -0.000926799 0.000107184 0.00106693 0.000835116 0.000246863 7.9403e-05 0.000240029 0.5 -0.000429338 -0.0019267 -0.00139786 3.665e-05 3.0579e-05 0.000308266 
38 1 3.79022 0.73831 3.87295 0 0 0 0.000366755 -0.000296651 -0.000185833 -0.000346399 0.000290689 0.000163577 -0.000271146 -4.6438e-05 -7.58253e-05 0.5 -0.000985541 -0.000393673 -0.00219144 -0.00107223 0.000720819 0.00155495 
936 2 0.320166 3.37017 3.50686 1 0 0 -0.000410925 -0.00112241 -8.0024e-05 0.000336742 0.000955095 0.000105663 0.000192822 -0.000231656 -0.000132973 0.5 5.78371e-05 -0.00133366 -0.000493412 -1.90967e-05 0.000613069 0.00090792 
531 2 4.80019 0.808817 2.48031 0 0 0 -7.72499e-05 -0.00105707 -4.33628e-05 4.93584e-05 0.00094577 2.87873e-05 8.06592e-05 5.56814e-05 -0.000168387 0.5 -0.000257024 -3.9899e-05 -0.000579537 -0.0003222 -0.000457193 -0.000317361 
527 2 4.02997 4.31554 3.6184 0 0 0 0.00048961 -0.000653264 0.00116493 -0.000465579 0.000605897 -0.00105216 -9.37438e-05 1.72345e-05 3.63963e-05 0.5 -0.00115655 -0.000282938 4.48709e-05 -0.00067651 0.000368464 0.000546253 
383 1 4.36287 4.34484 2.28835 0 0 1 0.000101023 -0.000525177 0.000987628 -8.68215e-05 0.000479064 -0.00089721 7.84554e-05 8.20436e-06 5.60058e-05 0.5 -0.000783964 -0.000156796 0.000265817 0.00020849 -8.71185e-05 -0.000239644 
992 2 0.69556 0.439993 3.85334 1 1 0 0.000246958 -0.00107263 -0.00110749 -0.000259082 0.000887298 0.000984009 -7.08794e-05 0.000221403 0.000155196 0.5 -0.000712242 -0.00161207 -0.000268086 0.000493134 -0.000209188 0.000770866 
521 2 4.93593 4.52825 3.24976 0 0 0 0.000396324 -0.000504541 0.00104407 -0.000382072 0.000467634 -0.000948803 -7.12175e-05 0.000141876 9.84543e-05 0.5 -0.000329924 -0.0002952 -0.000445834 -0.000220957 1.86243e-05 0.000687284 
136 1 1.88505 1.67209 2.62324 0 0 0 -9.54612e-05 -0.00107769 -0.000995974 6.24611e-05 0.000913798 0.000883293 5.34462e-05 0.000166968 0.000131354 0.5 -0.000935924 -0.00119962 -0.000849817 0.000664519 9.02307e-05 0.000327077 
540 2 4.5112 0.179066 3.41508 0 0 0 0.000176258 -0.000834849 -0.000129438 -0.000172597 0.000775991 0.000104574 -0.000341195 9.80744e-05 -0.000182652 0.5 0.000288419 0.000227579 3.8833e-05 -0.000265596 -0.000145327 0.000219848 
510 2 3.85496 2.56885 3.1704 0 0 0 0.000165463 -0.000729613 0.000637974 -0.000177118 0.000652911 -0.000580696 6.91847e-05 3.10445e-05 -1.38529e-05 0.5 0.00049028 0.000488481 -0.000241082 -8.75274e-05 7.57214e-05 0.00037002 
19 1 4.36547 1.84762 2.40859 0 0 0 8.28591e-05 -0.000217486 0.000416154 -0.000100689 0.000195936 -0.00039819 0.000258627 3.86827e-05 -9.88425e-05 0.5 -0.00166828 -4.838e-05 -0.000786338 6.44213e-05 0.000768693 0.000127798 
543 2 1.07318 1.78776 3.19551 0 0 0 0.000153494 -0.00100465 -0.000657321 -0.000154115 0.000833326 0.000591916 0.000229914 0.000235222 0.000120774 0.5 -0.000216671 -0.000214229 -0.000136629 -0.000291928 0.000265782 0.000184547 
773 2 4.78765 2.22818 3.3073 0 0 0 0.000173859 -0.000779122 0.000568772 -0.000176428 0.000721265 -0.000518403 0.000126693 0.000161622 -0.000104174 0.5 -0.000237612 -0.00122453 -0.0023377 -0.000423371 0.000829966 0.00208734 
555 2 2.23889 2.5061 3.89816 0 0 0 0.000328278 -0.000860202 0.000580859 -0.000306937 0.000774298 -0.000500472 -4.39992e-05 -1.31045e-05 2.40821e-05 0.5 -9.27719e-05 8.64182e-05 0.00015693 -0.000113322 0.000236838 0.000531809 
429 1 0.307114 2.40183 3.7569 1 0 0 -0.000295848 -0.00124137 -0.000612811 0.000239238 0.00105702 0.000563283 0.000114609 6.01917e-05 0.000272437 0.5 -0.000375801 -0.00215161 -0.00132654 0.000512781 -0.000317706 0.0012483 
316 1 0.889804 0.513581 2.87062 1 0 0 -0.000104855 -0.0011548 -0.00119348 3.92936e-05 0.00099883 0.00106173 7.26359e-05 1.20179e-05 0.000180675 0.5 0.000168381 -0.000208335 1.86882e-05 0.000107894 8.88883e-05 0.000187276 
503 2 3.6168 0.769234 2.88632 0 0 0 0.000153832 -0.000740962 -0.000131703 -0.000142187 0.000659677 0.000112548 -5.4675e-06 2.60449e-05 2.09081e-05 0.5 8.60166e-05 0.000196541 -0.00137517 -2.83468e-06 1.04897e-05 0.000322825 
896 2 0.70207 3.66575 2.63008 1 0 0 0.00030762 -0.00122668 0.000213978 -0.000281045 0.00105897 -0.000142137 0.000121541 2.58089e-05 -0.000102118 0.5 -0.000391503 -0.000828054 -0.00129611 9.48748e-05 -0.000178714 0.000219029 
690 2 1.93665 4.67147 2.92947 0 0 0 0.000117203 -0.000869205 0.000846153 -9.21872e-05 0.000762515 -0.000725382 -3.88259e-05 -4.6931e-05 0.000123265 0.5 -0.000963253 -0.000584389 -0.000119837 0.000590781 8.78783e-05 -0.000151224 
641 2 3.45938 3.50087 3.22669 0 0 0 0.000173435 -0.000648325 0.00094733 -0.000151995 0.00059482 -0.00085053 -6.9864e-05 5.41323e-06 6.17898e-05 0.5 0.000325343 0.000302183 -0.0004238 -6.28528e-05 -0.000125043 0.000683281 
528 2 3.34252 4.80261 2.44189 0 0 0 0.000382073 -0.000764766 0.000926248 -0.000339291 0.000667306 -0.000848899 8.66195e-05 5.25446e-05 -4.34822e-06 0.5 -0.000173094 -0.000348607 -0.000391849 -0.000291488 4.61218e-05 8.02695e-05 
225 1 2.66667 2.38034 2.99773 0 0 1 -0.000137014 -0.000871434 0.000337308 0.000109284 0.000765741 -0.00028142 -3.8676e-05 0.000164555 0.000169971 0.5 -0.000337651 -0.000963461 2.03007e-05 0.000598284 -8.90714e-05 -0.000154185 
119 1 0.614776 2.84403 2.06692 0 0 0 -0.000489906 -0.000997418 2.75843e-06 0.000422338 0.000872703 2.1632e-05 0.000389134 3.84181e-05 -1.94831e-05 0.5 0.000242671 -0.000709337 -0.00158364 8.97503e-05 0.000569272 -0.000223826 
94 1 2.4619 3.50117 2.00434 0 0 1 -3.6289e-05 -0.000803717 0.000889669 4.94372e-05 0.000682736 -0.000771333 0.00019388 -8.95588e-05 3.08199e-05 0.5 0.000278298 0.000221549 0.000163728 0.000222407 0.000289461 0.000398556 
522 2 2.58378 2.50851 2.00883 0 0 0 -7.63838e-05 -0.000811466 0.000338344 7.11643e-05 0.000688091 -0.000286528 0.00034791 -0.000212555 0.000101349 0.5 -0.00041778 -6.83605e-05 -0.000239306 0.000429816 0.000643776 2.04419e-05 
200 1 2.46508 0.208763 4.19624 0 1 0 0.000716894 -0.000440127 -0.000418157 -0.000665963 0.000392604 0.000362376 -0.000371074 -0.000222598 0.000335036 0.5 -0.000842907 -0.000514719 -0.00143789 9.4036e-06 0.000586812 0.00033314 
114 1 4.70691 1.00409 4.17136 0 0 0 0.000341465 -0.000455583 3.38906e-05 -0.000324375 0.000443559 -4.10352e-05 -9.54014e-05 -5.0608e-05 -0.000174865 0.5 -0.000429179 8.63589e-05 0.000172739 -7.2588e-05 -0.000238871 -0.000135663 
820 2 1.3099 2.29372 4.21138 1 0 0 9.86045e-05 -0.000746428 -4.96806e-05 -8.98813e-05 0.000612986 6.30739e-05 -0.000190522 -0.000166009 0.000180518 0.5 -0.000287046 8.31859e-05 -0.000354215 0.000420808 0.000454496 0.000531372 
47 1 4.65534 1.58218 5.4354 0 0 0 0.00071848 -0.000346397 0.000236647 -0.000666212 0.000365288 -0.000213695 6.52102e-05 0.000193903 2.60601e-05 0.5 -0.000689799 -0.000945367 -0.000414054 -0.000281309 -0.000436825 0.000652527 
824 2 1.649 3.83167 5.79188 1 0 0 0.000138406 0.000282133 0.000811719 -0.000141466 -0.000230744 -0.00069954 -0.000451254 -1.43054e-06 -0.000197885 0.5 -0.00023244 -0.000180058 -0.000727442 -0.00013386 4.4853e-05 0.000260488 
172 1 3.44244 0.338627 4.72107 0 1 0 0.000453311 0.000300415 0.000131909 -0.000436368 -0.000234557 -0.000121929 -0.000339215 -8.86355e-05 3.55738e-05 0.5 -0.000894648 -0.000902725 -0.00284022 -0.000794504 0.000749259 0.00122872 
718 2 0.202245 2.03678 5.5128 0 1 0 8.00561e-05 -1.30864e-05 -4.03991e-05 -8.42297e-05 -5.01e-05 6.56825e-05 -0.000271013 -0.000130651 7.7542e-05 0.5 -0.00103592 -0.000182764 -0.000698099 0.00055593 -0.000591884 0.00153962 
505 2 0.484503 3.5013 5.8335 0 0 -1 -0.000111052 0.000898153 0.000563799 8.78417e-05 -0.000853897 -0.000485479 5.04945e-05 -0.000218976 0.0003173 0.5 -0.000115933 -0.0023806 -0.0011464 3.72876e-06 -7.28882e-06 0.00186619 
524 2 3.99452 2.73482 5.7059 0 0 0 0.00145005 0.000577158 0.00150877 -0.00131305 -0.000441716 -0.00133918 -0.000365854 0.000962488 0.000572286 0.5 1.70543e-06 0.000261506 0.00022827 -0.000160813 -0.000186998 0.000151813 
839 2 0.579191 1.61541 4.31145 1 0 0 0.000338683 -0.00112147 -0.000752968 -0.000309598 0.000950116 0.000679535 -0.00012195 -2.47555e-05 0.000363098 0.5 -0.000206051 -0.00162855 -0.000974349 0.000802676 -1.68622e-05 0.00162182 
937 2 2.44343 3.38697 4.33693 1 0 0 0.000328376 -0.000740722 0.000457566 -0.000308351 0.000674395 -0.000398665 -0.000207885 -0.000198036 8.2748e-05 0.5 -0.00041685 6.66466e-05 -0.001246 0.000114558 0.000488285 0.00071841 
811 2 2.60619 3.94624 5.52466 1 0 0 7.63342e-05 9.24047e-05 0.000515118 -9.01438e-05 -4.8322e-05 -0.000445201 -0.000310339 -0.000292602 -2.63466e-05 0.5 -0.000192058 -0.00082073 -0.000260564 -0.000352946 -9.22989e-05 0.000716123 
827 2 1.52076 3.18181 4.66341 1 0 0 0.000209733 -0.000765689 0.000107087 -0.000184051 0.00063397 -7.34728e-05 -0.000373002 -0.000235444 -0.00019903 0.5 -0.000456358 -0.000261513 -0.00117536 -0.000158325 0.000313604 0.000800377 
149 1 4.05544 3.93282 4.61822 0 0 0 0.000358051 -0.000179147 0.00101032 -0.000352033 0.000205995 -0.000905312 -2.45272e-05 2.99237e-05 0.000156014 0.5 6.02493e-05 -0.000229079 0.000432747 0.000777465 -0.000336935 0.000319683 
925 2 0.622983 3.59928 4.52299 1 0 0 0.000450066 -0.000326448 -0.00012384 -0.00041011 0.000218069 0.000136834 -0.000324225 6.63406e-05 -0.000136865 0.5 -0.000208986 -0.000499713 -0.000191014 -1.58478e-05 -0.000169424 0.000299539 
168 1 3.33506 4.6036 5.33096 0 0 0 0.00030936 -2.15119e-05 0.00106422 -0.000312955 6.34145e-05 -0.000961645 -0.000160402 -0.000195181 0.000162899 0.5 -0.000853677 -0.000734768 -0.000844127 -4.44127e-05 -0.000201617 0.000598567 
928 2 1.57459 4.40876 4.97829 1 0 0 0.000193206 5.40006e-05 0.000656849 -0.000177259 -1.49509e-05 -0.000554042 -0.0002386 -4.5261e-05 -0.000309665 0.5 -0.000583343 -0.000648114 -0.000583809 -0.000413901 0.000261143 0.000433382 
148 1 3.93973 3.74197 5.74488 0 0 0 0.000221325 0.00054532 0.00139577 -0.00024161 -0.000416206 -0.00125266 -0.00028691 -0.000161369 0.000597722 0.5 0.000240451 0.00071314 0.00053605 0.000360917 0.000393577 0.000362736 
914 2 4.69247 4.38504 5.24348 0 0 0 -1.73713e-05 -4.73549e-05 0.00130642 -2.61041e-05 0.000122347 -0.00118528 -0.000414851 -0.000324819 -0.000312764 0.5 1.29958e-05 0.000152373 0.000323993 -2.14309e-05 0.000139292 0.000209209 
23 1 2.87757 1.11866 4.05747 0 0 0 0.000302667 -0.000320712 -0.000540194 -0.000293705 0.000291062 0.000498083 3.34791e-05 -0.000158988 4.74712e-05 0.5 -0.000738044 -0.000742672 -0.000519588 -0.000400174 0.000401697 0.000395649 
594 2 2.05564 1.97071 4.80231 0 0 0 0.00037564 0.000314531 0.000131116 -0.000338367 -0.000292002 -7.71949e-05 0.000128932 -0.000138332 0.000354482 0.5 -1.70199e-05 -0.000775187 -0.000131056 0.000375599 -0.000180645 0.00042531 
539 2 3.78429 1.04037 5.46884 0 0 0 0.000462526 0.000579779 0.000472115 -0.000431827 -0.000472693 -0.000423563 -0.000176975 0.000262845 -0.00011277 0.5 -0.000234284 -0.00249165 -0.00103258 -0.000989184 -0.000629464 0.00199129 
730 2 0.461628 1.11577 5.16966 0 1 0 0.000250697 -8.40481e-05 -0.000160553 -0.000240074 2.14826e-05 0.000147095 -0.000158208 -2.14366e-05 0.00039755 0.5 0.000641362 -0.000143464 -0.000579102 1.64886e-05 -0.000149244 0.00114948 
689 2 3.5192 0.103323 5.69615 0 1 0 0.000229735 0.00054742 7.05928e-05 -0.000215854 -0.000446194 -6.5982e-05 -0.000120873 -0.000239292 -0.000126882 0.5 -0.00109692 -0.00320586 -0.00280155 -0.000452009 0.000112846 0.00235346 
450 1 0.618779 4.79897 4.46875 1 0 0 0.000836765 -0.000433795 0.000218463 -0.000719394 0.000378943 -0.000130695 -0.000692834 -0.000155616 6.60725e-05 0.5 -0.000389472 -0.00104897 -0.0021433 2.8842e-05 -0.000342971 0.00123087 
549 2 4.49948 0.500878 5.01423 0 0 0 -5.19814e-05 -2.64031e-05 0.000218613 2.65974e-05 6.95811e-05 -0.000201148 -0.000123146 0.000135886 -0.000339492 0.5 0.000710031 0.00102493 0.000721988 -0.000460284 -0.000397147 0.000382623 
591 2 1.44619 1.12539 4.4039 0 0 0 0.000637273 -0.000613259 -0.000948106 -0.000580715 0.000487439 0.000842308 -0.000229675 0.000153039 0.000141923 0.5 -0.000436364 -0.000780105 -0.000627847 0.000212986 8.55418e-05 0.000612093 
243 1 1.20284 1.83723 5.34396 0 1 0 6.26699e-05 0.000371001 -0.00028897 -6.8928e-05 -0.000374633 0.000278609 -0.00011351 -0.000120022 0.000228896 0.5 -0.000323081 -0.000406999 -0.000223338 0.000221488 -2.1016e-06 0.000552402 
646 2 3.74109 3.12371 4.10896 0 0 0 0.000701119 -0.000282451 0.000935532 -0.000632623 0.0002846 -0.000830159 -2.90597e-05 7.9189e-05 -5.2042e-05 0.5 -0.000557548 -0.00172371 -0.00126005 0.000281852 0.000100732 0.00115952 