ITEM: TIMESTEP
134500
ITEM: NUMBER OF ATOMS
1000
ITEM: BOX BOUNDS xy xz yz pp pp pp
0.0000000000000000e+00 1.0000000000000000e+01 0.0000000000000000e+00
0.0000000000000000e+00 1.0000000000000000e+01 0.0000000000000000e+00
0.0000000000000000e+00 1.0000000000000000e+01 0.0000000000000000e+00
ITEM: ATOMS id type x y z ix iy iz vx vy vz fx fy fz omegax omegay omegaz radius c_2[1] c_2[2] c_2[3] c_2[4] c_2[5] c_2[6] 
120 1 3.15858 1.54134 0.0722142 0 1 0 -9.86853e-05 0.000208456 0.000129372 8.49755e-05 -0.000193347 -0.00010978 0.000112139 -2.36815e-05 -8.10279e-05 0.5 -0.00010673 -0.000461784 -3.80744e-05 -5.19823e-05 -4.49438e-06 -9.34485e-05 
525 2 2.11633 1.23453 1.7001 0 0 0 -8.60148e-05 -0.000350653 -0.000361647 6.67964e-05 0.000295445 0.000320256 -4.89014e-05 -1.4678e-05 8.89874e-05 0.5 -1.94653e-06 -3.0309e-05 1.54221e-05 3.56702e-05 2.92062e-05 -2.15994e-05 
371 1 4.95926 3.68339 1.58356 0 0 1 8.96602e-05 -0.000216486 0.000306707 -7.6289e-05 0.000189256 -0.000272215 3.08459e-05 -5.89519e-06 1.56106e-05 0.5 -2.24315e-05 -0.000217833 0.000191226 -2.74033e-05 -2.33648e-05 1.90381e-05 
18 1 1.9812 2.69194 0.53235 0 0 0 -4.48501e-05 2.21088e-05 0.000276886 3.5545e-05 -2.67416e-05 -0.000238895 0.000175331 -7.17304e-05 5.83685e-05 0.5 -4.83044e-05 -0.000327148 -0.000183699 0.000248735 0.000196714 -0.000193941 
868 2 2.87003 3.00635 0.0287501 0 0 1 1.01427e-05 -9.67738e-07 0.000270339 -6.39476e-06 -9.96936e-06 -0.000236028 0.000148727 -3.26038e-05 6.02094e-05 0.5 -0.000159155 -0.000319692 -2.66992e-05 0.000232782 3.45345e-05 -9.29598e-06 
25 1 1.41551 0.708752 1.08343 0 0 0 -3.93444e-05 -6.79065e-05 -0.0004019 2.92355e-05 4.93161e-05 0.000362536 0.000135914 -2.7015e-05 5.76186e-05 0.5 -0.000160791 -0.000856141 -0.000430083 0.000304081 0.000250176 -0.000351892 
378 1 4.61919 2.40714 0.0724385 0 0 1 4.78635e-06 9.36328e-05 0.000244016 -3.13477e-06 -8.80621e-05 -0.000219064 0.000180323 5.00328e-05 -3.14757e-05 0.5 -7.22919e-05 -0.000195912 -9.78654e-05 -0.000106337 -5.54922e-05 -0.000209198 
8 1 3.44142 2.06807 1.74247 0 0 0 1.87272e-05 -0.000194753 0.00011637 -1.83529e-05 0.000165595 -0.000106542 0.000139796 -5.33257e-05 1.65693e-05 0.5 -5.22889e-05 -7.44582e-05 4.19647e-05 7.28461e-05 9.59609e-05 1.29279e-05 
629 2 4.07709 2.61567 1.19796 0 0 1 7.33081e-05 -0.000110089 0.000265683 -6.56848e-05 9.17912e-05 -0.000236464 0.000173069 -3.10371e-05 -2.62895e-06 0.5 -0.000234747 -0.000120867 -0.000236932 1.54468e-05 -9.89146e-05 -5.24401e-05 
5 1 2.34655 3.9007 1.05326 0 0 0 -6.49055e-05 -0.000338395 0.000313099 6.42396e-05 0.000294685 -0.000268977 8.03463e-07 1.95201e-05 8.28855e-05 0.5 -3.42326e-05 -5.1146e-05 -7.26532e-05 5.43392e-05 3.26799e-05 -2.5433e-05 
650 2 0.45925 3.43683 1.12971 0 0 0 -0.000206245 -0.00027128 -7.31119e-05 0.000185428 0.000232025 8.44283e-05 0.000155482 4.52099e-05 1.16397e-05 0.5 -0.000280448 -0.000331064 -0.000302621 0.000204012 0.000232884 -0.000164498 
14 1 3.29514 3.13376 1.54456 0 0 0 1.49134e-05 -0.000208639 0.000281386 -1.03497e-05 0.000181824 -0.000246345 8.42894e-05 2.1253e-05 1.22688e-05 0.5 6.80713e-07 -7.66595e-05 -0.000101325 6.95804e-05 1.487e-05 -0.000106301 
264 1 3.99638 3.86803 1.37935 0 0 0 8.65011e-05 -0.00023202 0.000309473 -7.34245e-05 0.000200502 -0.000276344 0.000113299 2.57458e-05 5.62768e-06 0.5 -5.85612e-05 -8.7622e-06 -0.000166314 6.74271e-05 6.0683e-05 -6.24905e-06 
223 1 0.747741 2.47821 1.14566 0 0 1 -0.000176196 -0.000255925 -2.3467e-05 0.000153963 0.000216794 2.99941e-05 0.000192066 -6.98049e-05 4.51292e-05 0.5 -0.000194047 -0.000404647 -0.00109469 0.000122532 0.000430979 -0.000271923 
364 1 4.42272 4.23688 0.539608 0 0 1 -4.0202e-05 8.74031e-05 0.000392564 4.04456e-05 -8.387e-05 -0.000349275 0.000108836 5.7017e-06 6.70425e-05 0.5 1.1876e-05 8.6013e-06 -2.2912e-05 -4.81854e-06 7.75163e-05 -3.50831e-05 
107 1 1.66084 1.61825 0.747592 0 0 1 -0.000118917 7.74025e-06 -0.00024997 0.000101495 -1.64927e-05 0.000232742 0.000200212 -4.60625e-06 1.52402e-05 0.5 0.000176611 -0.000178285 -0.000160229 -2.79934e-05 1.2754e-05 -0.000124859 
529 2 2.67262 2.19965 1.06191 0 0 0 5.04803e-05 -7.97913e-05 5.87156e-05 -4.86217e-05 6.18454e-05 -4.80902e-05 0.000181167 -2.26954e-05 3.91127e-05 0.5 -8.14386e-06 -6.62908e-05 -9.76908e-05 3.54384e-05 3.86978e-05 -8.0148e-06 
515 2 4.38643 0.436041 1.64391 0 0 0 1.23075e-05 -0.000220726 -8.32913e-05 -1.03974e-05 0.000190315 6.9683e-05 0.000107885 8.30792e-06 -8.66469e-06 0.5 -0.000241528 -0.000185776 -0.000279696 -0.000266663 0.000127023 9.02285e-05 
244 1 4.11372 0.570445 0.682753 0 1 1 1.70195e-05 2.75396e-05 -4.39908e-05 -1.40944e-05 -2.59452e-05 3.55021e-05 0.000156811 3.97356e-05 -3.18364e-05 0.5 -0.000126599 -0.000108494 -0.000223945 -5.41292e-05 9.42977e-05 5.1382e-05 
20 1 2.90178 0.570924 1.78391 0 0 0 2.68054e-05 -0.00017107 -0.000144699 -2.59879e-05 0.000144391 0.000124192 7.2219e-05 -5.4525e-05 1.7288e-05 0.5 -0.000206045 -0.000385591 -0.00051761 2.53161e-05 0.0002702 -0.000270915 
280 1 4.09075 1.58205 1.14622 0 0 0 4.62269e-05 -7.1465e-05 5.81246e-05 -4.19308e-05 5.78603e-05 -5.63961e-05 0.000157466 -2.23958e-05 -1.52818e-05 0.5 -0.000208814 -0.000159978 -0.00042518 -1.33733e-05 0.00026193 5.35481e-05 
620 2 1.39467 4.37094 0.857549 0 0 1 -0.000129957 -0.000204909 0.00015776 0.000136086 0.000176453 -0.000120215 0.000143489 7.0499e-05 -2.84529e-05 0.5 -6.74778e-05 -0.000351064 -0.000584813 -2.57864e-05 1.27948e-05 9.92782e-05 
1000 2 3.60326 2.3982 0.339685 0 1 1 8.3296e-05 7.46036e-05 0.000228754 -6.90291e-05 -7.65366e-05 -0.000204729 0.000134202 -2.37634e-06 -2.36398e-05 0.5 -0.00014633 -0.000357371 -0.000165718 -6.92532e-05 -0.000119399 -5.62107e-05 
103 1 3.28431 3.68324 0.69873 0 0 1 -6.46464e-06 -7.90962e-05 0.000365703 8.36625e-06 6.10691e-05 -0.000324235 0.000131443 2.60584e-06 6.20116e-05 0.5 -3.71756e-06 3.88729e-05 -4.92461e-05 2.53318e-05 5.41309e-05 -4.53496e-05 
622 2 0.93073 4.80384 0.0846582 0 0 1 -0.000135915 1.9082e-05 0.000286713 0.000143933 -2.32493e-05 -0.000236661 0.00020852 -5.14796e-05 2.88081e-05 0.5 3.03192e-06 3.82095e-05 -0.000260687 -2.99862e-05 -9.47479e-05 5.50868e-05 
506 2 0.743673 1.45147 1.18256 0 0 0 -0.000184337 -0.000263297 -0.000361934 0.000156475 0.000222794 0.000327568 0.000166214 -2.45392e-05 0.000103001 0.5 4.50923e-05 -0.000501153 -6.22447e-05 0.000578239 0.000147791 -0.000314146 
626 2 1.28827 3.41653 0.566242 0 0 1 -0.000192989 -0.000124996 -4.31945e-05 0.000172966 0.00010823 5.68267e-05 5.84134e-05 -9.84891e-05 5.97712e-05 0.5 -0.000242531 -0.000362103 -7.52457e-05 0.000168891 0.000198028 -0.000121574 
553 2 0.744043 0.0775249 1.56336 0 0 0 6.96008e-06 -0.000200844 -0.000522507 -1.4536e-05 0.00017026 0.000471702 1.19227e-05 -8.63342e-05 0.000124877 0.5 4.70873e-05 4.29006e-05 3.8805e-05 -1.83381e-05 3.90315e-05 -6.55669e-05 
135 1 1.54763 3.2049 1.67711 0 0 0 9.7388e-05 -0.000295792 -4.66024e-05 -8.45849e-05 0.000255876 5.10662e-05 0.000107564 -0.000180847 -1.49973e-05 0.5 2.7377e-05 -0.000788389 -0.000124907 0.000188435 8.86956e-05 -2.4139e-05 
624 2 4.32457 4.92106 1.47136 0 0 1 5.25005e-05 -0.000141461 0.000338844 -3.66332e-05 0.000129617 -0.000305403 8.31265e-05 3.82446e-05 2.03174e-05 0.5 4.4103e-05 3.46694e-05 -0.000244776 1.73976e-05 -8.24247e-05 -0.000140158 
256 1 4.58717 1.36783 0.304987 0 0 0 4.31028e-05 4.3864e-05 2.6788e-05 -3.74641e-05 -4.06892e-05 -2.85428e-05 0.000169444 3.71047e-05 -7.85901e-05 0.5 -7.92796e-05 -0.000182147 -0.000360462 -0.000132686 0.000145285 -0.000192272 
260 1 3.31853 0.0701083 1.02529 0 0 0 1.76679e-05 -8.50223e-05 -0.000206725 -1.12413e-05 6.97824e-05 0.000181733 8.71945e-05 7.51791e-05 -5.2568e-05 0.5 -0.00014202 -0.000362777 -0.000361904 -3.30807e-05 0.000101923 -0.000207392 
616 2 3.19101 4.48077 1.50645 0 0 1 8.78237e-05 -0.000282509 0.000317253 -7.46909e-05 0.000243103 -0.000284279 -8.56968e-06 1.55803e-05 2.30772e-05 0.5 -0.000113814 -4.52675e-05 -5.39804e-05 7.4982e-05 2.94144e-05 -3.42797e-05 
106 1 1.74519 2.23576 1.52962 0 0 1 5.39547e-05 -0.000309065 -1.83711e-05 -5.15946e-05 0.000266602 2.55156e-05 0.000154166 -6.96174e-05 -3.80647e-05 0.5 1.22917e-05 -0.000427911 -0.000128231 9.76128e-05 0.000173688 -0.000123848 
157 1 1.38966 4.17899 1.83894 0 0 0 6.53107e-05 -0.000330878 0.00013423 -4.8983e-05 0.000286546 -9.97561e-05 0.000127229 4.19045e-05 1.3367e-05 0.5 -0.000192967 -0.000593191 -0.000644771 0.000105012 0.000228933 -0.000124481 
516 2 2.34692 0.89037 0.688042 0 0 0 1.62789e-07 0.000110478 -0.000143524 -4.9388e-06 -0.000107842 0.000132734 1.04925e-05 -0.000102477 -3.51005e-05 0.5 3.60704e-05 -0.000102313 -3.66801e-05 1.90201e-05 0.000146263 -0.000141721 
183 1 0.415321 4.5824 1.00358 0 0 0 -0.000130769 -0.000320028 0.000361061 0.000141379 0.000285758 -0.000286339 0.000266981 8.41713e-05 4.00404e-05 0.5 3.06873e-05 -2.51111e-05 1.07571e-05 1.61942e-05 -2.82729e-05 1.17609e-05 
625 2 0.400039 3.91216 0.209941 0 0 1 -0.000158638 8.60208e-06 9.45485e-05 0.000150452 -3.36974e-06 -5.52127e-05 0.000282147 -2.61252e-05 -7.0179e-05 0.5 -1.97305e-05 -7.75945e-06 -7.19059e-05 -1.87445e-05 -2.59646e-05 4.49458e-05 
91 1 2.22061 4.71696 1.69629 0 0 1 8.42615e-05 -0.000328535 0.000269991 -6.70132e-05 0.00028496 -0.000225624 3.20422e-05 -4.76193e-05 -1.49171e-05 0.5 -0.000154875 -0.000151438 -5.20459e-05 -6.8059e-05 6.79773e-05 -2.79108e-05 
257 1 4.94039 2.69136 1.70812 0 0 0 7.19746e-05 -0.000223358 0.00024957 -6.48432e-05 0.000195152 -0.000223745 8.53532e-05 1.07338e-05 -1.81699e-05 0.5 -0.000259556 -0.000207921 -0.000557973 8.34565e-06 -0.000149455 -0.000108673 
4 1 3.72172 1.1279 1.95713 0 0 0 2.72247e-05 -0.00022414 -3.59084e-05 -2.5292e-05 0.000191545 2.59156e-05 0.000112775 -1.41275e-05 -7.21199e-06 0.5 -8.27758e-05 -0.000134455 -0.000365062 -0.000117355 0.00012677 0.000193764 
609 2 1.99626 4.7601 0.136702 0 0 1 -4.6855e-05 -9.44769e-05 0.000363955 5.02835e-05 7.57791e-05 -0.000316515 7.65242e-05 -9.4607e-05 4.84469e-05 0.5 -0.000625768 -0.00199706 -0.00033114 0.000518849 0.000244336 -0.000401676 
117 1 3.12743 1.3138 1.15366 0 1 0 5.06248e-05 -9.00435e-05 -4.06975e-05 -4.51533e-05 7.1949e-05 3.19865e-05 0.00014542 -3.58271e-05 -1.41971e-05 0.5 1.95317e-05 -9.79651e-05 3.94892e-05 -3.18439e-06 8.94296e-05 5.89543e-05 
511 2 1.08083 2.25044 0.230692 0 0 0 -6.44028e-05 0.00018954 -9.39679e-05 5.60293e-05 -0.000176661 9.26886e-05 0.000266751 -3.62967e-05 -5.82987e-05 0.5 -0.000121059 -0.000399366 -0.00102807 9.72354e-05 0.000445406 -0.000207674 
911 2 0.492037 0.563674 0.697893 1 0 0 -2.71926e-05 -9.36873e-05 -0.000480101 1.82546e-05 7.34298e-05 0.000432533 3.64468e-05 -4.36166e-05 -1.95755e-05 0.5 9.50478e-05 -0.000349469 9.65298e-06 -3.58818e-05 3.97151e-05 -0.000146281 
668 2 0.00216486 3.82007 1.93304 0 0 0 5.64799e-06 -0.000525889 0.000160452 -9.43939e-06 0.00045542 -0.00012579 5.48033e-05 7.3179e-05 -3.41855e-05 0.5 -0.000392399 -0.00106511 -0.000420716 0.00031608 -5.90942e-05 -5.00767e-05 
90 1 2.93993 4.5802 0.420129 0 0 1 -7.63627e-05 -7.38975e-05 0.000463793 7.83372e-05 5.94307e-05 -0.000411069 8.64373e-05 -3.58382e-05 7.63478e-05 0.5 -3.53275e-05 0.000336097 8.17201e-05 0.000200329 0.000157676 0.000132655 
734 2 4.13738 3.24504 0.374702 0 1 1 7.46602e-05 6.99565e-05 0.00040412 -6.57013e-05 -6.93594e-05 -0.000362423 0.000160022 2.15236e-05 7.6254e-06 0.5 -7.37046e-05 -8.37759e-05 -5.47022e-05 -2.48242e-05 7.02614e-05 -2.57022e-05 
672 2 0.0676821 1.98583 1.68999 0 0 0 -0.000227676 -0.000425661 -0.000248288 0.00019425 0.000368666 0.000223876 0.000170177 -2.49604e-05 5.83343e-05 0.5 -0.000679094 -0.00114825 -0.000475508 0.000445831 0.000395118 2.12626e-05 
759 2 4.95862 2.03873 0.950663 0 0 0 8.23776e-05 -0.000102604 0.000145706 -7.47212e-05 8.7935e-05 -0.000131523 0.000153359 -4.62747e-06 -3.82646e-05 0.5 -5.98809e-05 -0.000361193 -0.00011352 -0.000103531 -6.29627e-07 -8.59765e-05 
21 1 1.8457 0.356952 2.43134 0 0 0 -7.32066e-05 -0.000335156 -0.000332089 6.16297e-05 0.000292252 0.000295911 6.89613e-05 -0.000111199 9.66462e-05 0.5 2.58054e-05 4.71038e-05 -4.23861e-06 -7.85089e-06 3.5951e-05 -7.00334e-05 
682 2 2.73054 4.08374 2.77235 0 0 0 7.4564e-05 -0.000237996 0.000246962 -6.41514e-05 0.000209206 -0.000217056 1.18118e-05 -1.07611e-05 -6.98866e-06 0.5 -0.000364419 -0.000327507 -0.000130344 9.79272e-05 0.000284584 0.000297134 
907 2 0.982051 4.62529 2.6356 1 0 0 7.97089e-05 -0.000416446 0.000189771 -7.13439e-05 0.000356486 -0.000150601 1.74419e-05 -5.5498e-05 1.81448e-05 0.5 -0.000422021 -0.000583141 -0.000555429 0.000135498 0.000304187 -0.000206718 
144 1 1.685 3.60085 2.81086 0 0 0 0.000113825 -0.000381966 1.8742e-05 -0.000101889 0.000328027 -1.20412e-05 2.61375e-06 -5.47889e-06 -2.60333e-05 0.5 -6.36483e-05 -7.91767e-05 -7.90169e-05 7.7524e-05 4.79969e-05 -2.4813e-05 
675 2 2.83101 4.73863 3.54526 0 0 0 0.000117196 -0.000213906 0.000264415 -0.000116454 0.000195371 -0.0002342 -4.5077e-05 4.86916e-06 -3.10585e-05 0.5 5.41096e-06 5.51477e-05 9.95011e-05 4.71914e-05 3.01988e-06 0.000108513 
502 2 4.38951 1.31138 3.26922 0 0 0 5.44951e-05 -0.000242821 -1.73402e-05 -5.56633e-05 0.00022231 9.5904e-06 4.33437e-05 2.06479e-05 -3.22647e-05 0.5 -0.000284156 -0.000178187 -0.000164771 -0.000167526 0.000193547 0.000293638 
27 1 2.60904 0.300896 3.21077 0 0 0 6.52518e-05 -0.000259245 -0.000177695 -6.7313e-05 0.000225467 0.000153601 -1.43546e-05 -4.13257e-05 2.58686e-05 0.5 -0.000273166 -0.000309632 -0.000629969 0.000103226 0.000255696 3.89541e-05 
965 2 1.35568 3.65838 3.79898 1 0 0 0.000143052 -0.000415575 -4.24967e-05 -0.000129643 0.000350608 4.43118e-05 -4.01828e-05 5.71107e-05 -7.59093e-05 0.5 -0.00010475 -0.000284186 -0.000349597 0.000160164 -8.84831e-05 0.000194454 
61 1 1.66166 0.448824 3.51378 0 0 0 -1.52733e-05 -0.00034759 -0.000428787 2.19466e-06 0.000293648 0.000377161 -2.50332e-05 -3.75781e-05 5.67945e-05 0.5 -0.000210027 -5.8875e-06 -3.81244e-05 3.24817e-05 0.000157291 -1.77816e-05 
680 2 1.19013 2.78174 3.34696 0 0 0 -5.7977e-05 -0.000370603 -5.4823e-05 4.70032e-05 0.000311603 5.41975e-05 1.67499e-05 3.77497e-05 -1.48991e-05 0.5 -1.72335e-05 -9.49914e-05 -0.000156857 1.23934e-05 8.24839e-05 5.12686e-05 
251 1 4.7141 3.03398 3.89541 0 0 0 0.000197934 -0.0002849 0.000256591 -0.000180262 0.000259878 -0.000231692 7.68053e-05 6.08985e-05 -9.37403e-05 0.5 -0.000283327 -8.17765e-05 9.49411e-06 -0.000233268 0.000103241 0.00018022 
517 2 4.00887 2.89377 2.21808 0 0 0 5.69524e-05 -0.000279848 0.000214241 -4.38622e-05 0.000254037 -0.000188962 2.922e-05 4.2554e-05 -4.23826e-05 0.5 6.39103e-06 -8.00903e-06 -5.3853e-05 -1.25723e-05 -3.40405e-06 3.83906e-05 
6 1 3.42178 1.77999 2.73254 0 0 0 2.76003e-05 -0.00019517 0.000133562 -3.11728e-05 0.000171547 -0.000120716 0.000104139 -3.91536e-05 4.18043e-05 0.5 -0.000408349 -1.92505e-05 2.88058e-05 8.38168e-05 0.000199141 6.4021e-05 
519 2 4.43341 3.61421 3.03073 0 0 0 6.72192e-05 -0.000226097 0.000344192 -5.98906e-05 0.00020978 -0.000306317 4.21014e-05 3.42733e-05 -1.39971e-05 0.5 6.0645e-06 0.000154834 8.63744e-05 -0.000114002 -9.52109e-06 6.51556e-05 
509 2 1.93612 1.51627 3.62354 0 0 0 0.000148933 -0.000285605 -0.000376867 -0.000135965 0.000231732 0.000332274 -4.8618e-05 0.000128176 1.21932e-05 0.5 4.14376e-05 -4.55137e-05 -0.000348089 -3.75748e-05 7.10698e-05 9.74895e-05 
142 1 1.03543 1.94237 2.17014 0 0 0 -9.72978e-05 -0.000328754 -0.000196303 7.86815e-05 0.000283195 0.00017869 0.000141237 -7.8559e-07 2.63662e-05 0.5 2.49577e-06 -5.16614e-05 -0.00010806 2.03418e-05 4.17688e-06 0.000118258 
941 2 0.19231 2.25871 2.77355 1 0 0 -0.000174253 -0.000505052 -0.000178104 0.000148378 0.000437264 0.000162548 7.45768e-05 7.26509e-06 1.49875e-05 0.5 -7.64127e-05 -0.000216034 -0.000338004 -6.25809e-06 5.71657e-05 4.65448e-05 
919 2 0.65037 4.3158 3.53376 1 0 0 3.52869e-05 -0.000460951 0.000131252 -3.53129e-05 0.000393094 -0.000100827 6.4785e-05 9.89168e-06 -7.34839e-05 0.5 -0.000219689 -0.000402785 -0.000241358 0.000217848 1.27937e-05 0.000137829 
95 1 3.53897 3.77829 2.26923 0 0 1 9.90913e-05 -0.000262604 0.000301126 -8.6499e-05 0.000236244 -0.000269197 2.14866e-05 -1.67003e-06 -5.759e-06 0.5 -0.000285387 -0.000105733 -0.000349264 -4.86049e-07 0.000154818 -5.48931e-05 
458 1 1.55685 4.75379 3.86449 1 0 0 8.85774e-05 -0.000312038 0.000304604 -8.13972e-05 0.000269167 -0.00026376 -8.67238e-05 1.01381e-05 1.01938e-05 0.5 -7.75714e-05 -3.87505e-05 -5.04199e-05 6.11874e-05 -7.98389e-06 -1.4864e-05 
41 1 1.14049 0.960646 2.01128 0 0 0 -5.59804e-05 -0.000299649 -0.000343812 4.22453e-05 0.000257379 0.000309784 0.000124892 -9.76671e-06 5.21055e-05 0.5 -9.35084e-05 -6.07832e-05 -0.000208644 3.71642e-05 0.000196538 -0.000127436 
814 2 0.271104 1.22776 3.40366 1 0 0 3.4304e-05 -0.000374223 -0.000303425 -3.73558e-05 0.000317127 0.000271439 5.52079e-05 -3.93013e-05 0.000139702 0.5 -0.000289968 -0.000286843 -0.000310811 0.000118791 0.000183749 0.000326905 
130 1 1.70524 2.64771 2.50037 0 0 0 -8.85294e-05 -0.00035229 -7.63755e-05 7.67416e-05 0.000300918 7.40417e-05 0.000106728 -4.78852e-05 -5.32534e-05 0.5 -0.000160909 -0.00036679 -0.000309345 0.000136274 0.000144713 0.000195941 
12 1 2.70253 1.09588 2.61139 0 0 0 8.07276e-05 -0.000208335 -0.00010793 -7.35355e-05 0.000178742 9.08187e-05 6.00124e-05 -0.000100348 4.79543e-05 0.5 -0.000283163 -0.00046486 -0.00033992 0.000122774 0.000210871 -1.96593e-05 
512 2 3.18627 2.0317 3.78742 0 0 0 0.000138316 -4.96326e-05 8.08726e-05 -0.000130843 4.53394e-05 -6.34959e-05 7.87529e-05 -3.52869e-05 4.45569e-05 0.5 -7.49343e-05 -0.000185562 -0.000120407 2.28821e-06 1.21766e-05 0.000176883 
151 1 2.47922 3.30066 3.34122 0 0 0 5.19541e-05 -0.000292336 0.000162437 -4.33199e-05 0.000258758 -0.000139896 -6.63806e-06 -3.91288e-05 1.61391e-05 0.5 -2.37341e-05 -0.00056146 -0.000431922 -4.58279e-06 0.000198698 0.000199774 
667 2 0.284358 1.32106 2.40727 0 0 0 -5.86266e-05 -0.000415778 -0.000303923 4.43376e-05 0.000359497 0.000272536 8.48125e-05 2.60942e-05 7.7663e-05 0.5 -0.000146049 -0.000659011 -0.00048697 1.66324e-05 9.16685e-06 0.000100175 
38 1 3.79036 0.738198 3.87288 0 0 0 0.00011189 -8.88394e-05 -6.48984e-05 -0.000107329 8.5739e-05 5.49509e-05 -9.26999e-05 -1.55306e-05 -2.26975e-05 0.5 -0.000324976 -0.00012628 -0.000717777 -0.000352642 0.000229488 0.000515476 
936 2 0.319998 3.36972 3.50683 1 0 0 -0.000147257 -0.000390312 -1.2765e-05 0.000122516 0.00033188 2.22123e-05 7.03944e-05 -7.98487e-05 -4.48762e-05 0.5 2.07356e-05 -0.000447432 -0.000169372 -2.55472e-06 0.000212835 0.000307135 
531 2 4.80015 0.808402 2.48029 0 0 0 -3.36787e-05 -0.000348687 -1.90923e-05 2.30722e-05 0.000311192 1.30735e-05 2.12125e-05 1.65948e-05 -5.58984e-05 0.5 -8.3175e-05 -6.46337e-06 -0.000185345 -0.000107479 -0.000152316 -0.000100812 
527 2 4.03016 4.31528 3.61886 0 0 0 0.000153925 -0.000207635 0.000384098 -0.000143259 0.000190545 -0.000342427 -3.44074e-05 4.67767e-06 1.31394e-05 0.5 -0.000333632 -6.29542e-05 3.80272e-05 -0.000208927 9.72169e-05 0.000189233 
383 1 4.36291 4.34464 2.28873 0 0 1 3.45612e-05 -0.000169345 0.000321313 -2.9962e-05 0.000154596 -0.000289269 2.30184e-05 -7.5533e-07 1.85358e-05 0.5 -0.000241402 -4.87451e-05 8.51799e-05 8.45565e-05 -2.96209e-05 -7.52872e-05 
992 2 0.695649 0.439559 3.8529 1 1 0 6.68015e-05 -0.000379818 -0.000367119 -7.06061e-05 0.000318587 0.000326256 -1.71331e-05 7.50348e-05 5.31003e-05 0.5 -0.000233195 -0.000529737 -9.26319e-05 0.000161561 -6.9381e-05 0.000254518 
521 2 4.93608 4.52805 3.25017 0 0 0 0.00012205 -0.000160433 0.000339795 -0.000115334 0.000147336 -0.000305373 -2.61878e-05 4.39156e-05 3.10658e-05 0.5 -9.29234e-05 -0.000100468 -0.00014669 -6.8638e-05 5.85702e-07 0.000228487 
136 1 1.885 1.67166 2.62285 0 0 0 -4.02465e-05 -0.000375478 -0.000331249 2.88423e-05 0.000319824 0.00029405 2.47325e-05 5.80863e-05 4.31732e-05 0.5 -0.000323059 -0.000408943 -0.000288229 0.000231699 2.09008e-05 0.000115156 
540 2 4.51127 0.178743 3.41503 0 0 0 5.14578e-05 -0.000264516 -4.82558e-05 -5.17454e-05 0.000243961 3.79997e-05 -0.000118944 3.37224e-05 -6.0517e-05 0.5 0.000101485 7.80877e-05 8.72601e-06 -8.97259e-05 -5.07311e-05 7.57332e-05 
510 2 3.85502 2.56856 3.17065 0 0 0 4.19393e-05 -0.000240316 0.000206344 -4.73088e-05 0.000214732 -0.000187238 2.16415e-05 7.47923e-06 -3.13443e-06 0.5 0.000159423 0.000169006 -8.50999e-05 -1.97844e-05 2.55558e-05 0.000130535 
19 1 4.36549 1.84753 2.40875 0 0 0 1.64624e-05 -7.05e-05 0.000126765 -2.36281e-05 6.45417e-05 -0.000120716 7.7741e-05 1.34387e-05 -2.8192e-05 0.5 -0.000547502 -1.69202e-05 -0.000261251 2.10536e-05 0.00025121 4.31157e-05 
543 2 1.07324 1.78735 3.19525 0 0 0 4.46876e-05 -0.000355977 -0.000214668 -4.47599e-05 0.000298764 0.000193841 8.36631e-05 8.15572e-05 3.76822e-05 0.5 -6.74427e-05 -6.96184e-05 -4.45572e-05 -9.77907e-05 8.53973e-05 6.07843e-05 
773 2 4.78771 2.22788 3.30752 0 0 0 4.77163e-05 -0.000248197 0.000182611 -5.04644e-05 0.000227359 -0.000166618 4.11964e-05 5.47589e-05 -3.44043e-05 0.5 -6.42171e-05 -0.000399691 -0.00077154 -0.000129069 0.00025731 0.000703373 
555 2 2.23902 2.50576 3.89839 0 0 0 0.000103515 -0.000281933 0.000199627 -9.62146e-05 0.000252482 -0.000171767 -1.83624e-05 -6.23687e-06 1.23217e-05 0.5 -1.48981e-05 4.13594e-05 6.30563e-05 -2.6231e-05 7.07623e-05 0.000176453 
429 1 0.306993 2.40133 3.75666 1 0 0 -0.00010719 -0.00043144 -0.000196541 8.83968e-05 0.000367037 0.00017967 4.29585e-05 1.86128e-05 9.32757e-05 0.5 -0.000121866 -0.00072844 -0.000447076 0.000173174 -0.000106819 0.000419869 
316 1 0.889752 0.51312 2.87015 1 0 0 -5.4642e-05 -0.000397064 -0.000395363 3.39985e-05 0.000340294 0.000351483 3.06628e-05 4.3159e-06 6.14005e-05 0.5 5.75379e-05 -7.71716e-05 -1.12134e-05 3.68366e-05 3.11111e-05 7.15289e-05 
503 2 3.61686 0.768943 2.88627 0 0 0 4.95835e-05 -0.000246127 -4.87479e-05 -4.58887e-05 0.000217227 3.94423e-05 -7.05056e-06 5.24373e-06 1.04621e-05 0.5 1.84224e-05 5.69656e-05 -0.000456487 2.75686e-06 5.13821e-07 0.000110796 
896 2 0.70219 3.66526 2.63018 1 0 0 9.92975e-05 -0.000421634 8.96945e-05 -9.04919e-05 0.000361634 -6.5349e-05 4.67663e-05 1.04001e-05 -3.51436e-05 0.5 -0.000160973 -0.000257109 -0.000448963 3.96659e-05 -7.83466e-05 8.84434e-05 
690 2 1.93669 4.67112 2.92981 0 0 0 4.23885e-05 -0.00029335 0.000291852 -3.58849e-05 0.000256146 -0.000250217 -1.468e-05 -9.32423e-06 4.50661e-05 0.5 -0.000319963 -0.000188378 -4.47199e-05 0.000199467 2.28049e-05 -4.7309e-05 
641 2 3.45945 3.50062 3.22706 0 0 0 5.83907e-05 -0.000207564 0.000311875 -5.17056e-05 0.000189915 -0.0002782 -2.62561e-05 6.30037e-07 2.28518e-05 0.5 8.77472e-05 9.39217e-05 -0.000163833 -9.51267e-06 -5.43719e-05 0.000243298 
528 2 3.34267 4.8023 2.44225 0 0 0 0.000127542 -0.000257999 0.000301513 -0.000113693 0.000226347 -0.000271473 2.16484e-05 1.47616e-05 2.31872e-06 0.5 -5.71635e-05 -0.000114046 -0.000131047 -9.49398e-05 1.31834e-05 2.38266e-05 
225 1 2.66661 2.37999 2.99787 0 0 1 -5.10261e-05 -0.000292784 0.000119133 4.04852e-05 0.000257188 -0.000100243 -1.63215e-05 5.57908e-05 5.38445e-05 0.5 -0.000115082 -0.00032234 4.83545e-06 0.000200031 -4.01257e-05 -4.43934e-05 
119 1 0.61458 2.84364 2.06693 0 0 0 -0.000169083 -0.000338874 1.06233e-05 0.000144083 0.000293247 -1.91062e-06 0.000133269 1.04136e-05 -8.2058e-06 0.5 8.67819e-05 -0.00022418 -0.000510965 3.09949e-05 0.000189596 -6.17695e-05 
94 1 2.46189 3.50084 2.00469 0 0 1 -6.07644e-06 -0.000279245 0.000303378 8.59488e-06 0.000239174 -0.000262465 6.25628e-05 -2.80677e-05 9.66941e-06 0.5 9.02313e-05 7.58062e-05 4.90606e-05 7.57138e-05 9.29811e-05 0.000133038 
522 2 2.58375 2.50819 2.00896 0 0 0 -2.40539e-05 -0.000282392 0.000117759 2.08388e-05 0.000241492 -0.000100155 0.000115085 -6.7362e-05 3.19304e-05 0.5 -0.000120441 -1.90109e-05 -8.16987e-05 0.000136992 0.000199179 1.21004e-05 
200 1 2.46536 0.20859 4.19608 0 1 0 0.000227133 -0.000146945 -0.000143447 -0.000210209 0.000128783 0.000123578 -0.000122336 -7.56669e-05 0.000122075 0.5 -0.00028226 -0.000168622 -0.000481823 1.28594e-05 0.000197307 0.000114081 
114 1 4.70704 1.00392 4.17137 0 0 0 0.000103599 -0.000138858 5.25685e-06 -9.99889e-05 0.000132758 -9.60246e-06 -3.5197e-05 -1.73272e-05 -5.75828e-05 0.5 -0.0001496 2.00127e-05 4.9915e-05 -2.90384e-05 -8.30791e-05 -4.32956e-05 
820 2 1.30994 2.29342 4.21136 1 0 0 3.20005e-05 -0.000267313 -8.91146e-06 -2.9117e-05 0.000222105 1.4149e-05 -6.33148e-05 -5.55009e-05 6.73821e-05 0.5 -7.92399e-05 3.78997e-05 -0.000117386 0.000165748 0.000145792 0.000179022 
47 1 4.65561 1.58205 5.43549 0 0 0 0.000227498 -9.44523e-05 7.71558e-05 -0.000210479 9.87848e-05 -7.01405e-05 1.98148e-05 6.6003e-05 1.37588e-05 0.5 -0.000226932 -0.000318829 -0.000137397 -9.31989e-05 -0.000147962 0.000224046 
824 2 1.64906 3.83178 5.79221 1 0 0 4.2355e-05 0.000100394 0.0002804 -3.89575e-05 -8.50888e-05 -0.000239312 -0.00014105 1.98778e-08 -6.14349e-05 0.5 -6.91638e-05 -5.80906e-05 -0.00023368 -3.9464e-05 1.03376e-05 8.42648e-05 
172 1 3.44261 0.338751 4.72112 0 1 0 0.000135722 0.000111009 3.92698e-05 -0.000132941 -9.09572e-05 -3.90463e-05 -0.000114503 -2.88941e-05 1.69389e-05 0.5 -0.000290517 -0.000294572 -0.000936936 -0.000258051 0.000245568 0.000404011 
718 2 0.202274 2.03676 5.51279 0 1 0 2.18816e-05 -2.86096e-05 -9.99594e-07 -2.32299e-05 6.83358e-06 1.13205e-05 -9.12743e-05 -4.59117e-05 2.21764e-05 0.5 -0.000352942 -6.46124e-05 -0.000233862 0.000185359 -0.000192564 0.000517307 
505 2 0.484458 3.50164 5.83373 0 0 -1 -3.9915e-05 0.000277603 0.000195008 3.38921e-05 -0.00026165 -0.000165868 1.85978e-05 -6.74808e-05 0.000109752 0.5 -3.11345e-05 -0.000778466 -0.000378616 7.96417e-06 -3.20442e-06 0.000615829 
524 2 3.99508 2.73506 5.70649 0 0 0 0.000467688 0.000218079 0.000500556 -0.00042758 -0.000174351 -0.000446175 -0.000125677 0.000323819 0.000191203 0.5 7.30326e-07 8.20604e-05 7.65943e-05 -5.36407e-05 -6.21956e-05 5.05053e-05 
839 2 0.579323 1.61496 4.31116 1 0 0 0.000110036 -0.000391334 -0.000245973 -9.90412e-05 0.000331835 0.000221423 -3.74013e-05 -6.78732e-06 0.000119631 0.5 -6.38379e-05 -0.000540599 -0.000321958 0.000280768 -7.65626e-06 0.000544621 
937 2 2.44355 3.38668 4.33711 1 0 0 0.000104391 -0.000240081 0.000155724 -9.57835e-05 0.000216495 -0.000134567 -7.13646e-05 -6.49553e-05 3.69078e-05 0.5 -9.14589e-05 4.55979e-05 -0.00041038 6.87233e-05 0.000142242 0.000230811 
811 2 2.60622 3.94628 5.52487 1 0 0 2.01163e-05 4.3664e-05 0.000178465 -2.04662e-05 -3.01065e-05 -0.000151435 -0.000101359 -9.15917e-05 -7.28126e-06 0.5 -5.22662e-05 -0.000252409 -7.97431e-05 -0.00011057 -3.71929e-05 0.000227358 
827 2 1.52084 3.1815 4.66346 1 0 0 7.21781e-05 -0.000272627 4.43133e-05 -6.17742e-05 0.000227141 -3.18815e-05 -0.000123953 -7.60561e-05 -5.51061e-05 0.5 -0.000112297 -7.63861e-05 -0.000374833 -4.17213e-05 9.30067e-05 0.000261456 
149 1 4.05557 3.93276 4.61862 0 0 0 0.000106886 -4.23227e-05 0.000333323 -0.000103948 5.0259e-05 -0.000296887 -1.43177e-05 9.94286e-06 5.49696e-05 0.5 6.85591e-06 -8.46298e-05 0.00013929 0.000278005 -0.000132769 0.000105695 
925 2 0.623159 3.59914 4.52294 1 0 0 0.000147038 -0.000136897 -3.05412e-05 -0.000131843 9.91674e-05 3.55593e-05 -0.000108311 2.57558e-05 -4.02226e-05 0.5 -4.14439e-05 -0.000170041 -6.24167e-05 -1.27004e-05 -5.24073e-05 9.96111e-05 
168 1 3.33517 4.6036 5.33138 0 0 0 9.14007e-05 9.52089e-06 0.000349089 -8.88133e-05 3.26145e-06 -0.00031237 -5.67494e-05 -6.34028e-05 5.53277e-05 0.5 -0.000271025 -0.000233553 -0.000264386 -1.43166e-06 -7.29084e-05 0.000192382 
928 2 1.57467 4.40878 4.97856 1 0 0 6.36738e-05 2.92308e-05 0.000231873 -5.62506e-05 -1.82888e-05 -0.000193854 -7.71112e-05 -1.15993e-05 -9.64339e-05 0.5 -0.000173005 -0.000202731 -0.000181488 -0.000127299 7.0122e-05 0.000138811 
148 1 3.93981 3.7422 5.74543 0 0 0 5.85184e-05 0.000206605 0.000460254 -6.21981e-05 -0.000164537 -0.000410058 -9.69833e-05 -5.19347e-05 0.000200382 0.5 8.25969e-05 0.000227888 0.000186059 0.000121945 0.000135533 0.000121609 
914 2 4.69246 4.38503 5.24399 0 0 0 -1.96473e-05 1.60445e-05 0.0004229 6.60627e-06 1.04187e-05 -0.000383282 -0.000140678 -0.000100552 -9.14615e-05 0.5 2.13499e-06 5.07795e-05 0.000105199 -3.55434e-06 4.49557e-05 6.7782e-05 
23 1 2.87768 1.11853 4.05726 0 0 0 8.94163e-05 -0.000104674 -0.000172859 -8.85905e-05 9.35021e-05 0.000157877 1.5516e-05 -4.59235e-05 1.90628e-05 0.5 -0.000242607 -0.000243585 -0.000172415 -0.000126082 0.000131703 0.000136016 
594 2 2.05579 1.97083 4.80237 0 0 0 0.000122286 9.92597e-05 5.99522e-05 -0.000111247 -9.2409e-05 -3.93528e-05 4.13534e-05 -4.81235e-05 0.000124937 0.5 -5.20679e-06 -0.00025987 -4.43525e-05 0.000135085 -6.41287e-05 0.000141971 
539 2 3.78446 1.04061 5.46903 0 0 0 0.000145201 0.000208908 0.000154539 -0.000135593 -0.000173235 -0.000139234 -5.82387e-05 8.7993e-05 -3.43665e-05 0.5 -8.4324e-05 -0.00083645 -0.000342704 -0.00032164 -0.000209686 0.000666025 
730 2 0.461723 1.11572 5.1696 0 1 0 7.66105e-05 -4.87613e-05 -5.11663e-05 -7.35638e-05 2.75502e-05 4.77148e-05 -4.96864e-05 -1.05718e-05 0.000135631 0.5 0.000225189 -4.69417e-05 -0.000190661 9.41124e-06 -4.74491e-05 0.000385524 
689 2 3.51929 0.103546 5.69618 0 1 0 7.12306e-05 0.00019686 1.95897e-05 -6.82706e-05 -0.000163413 -2.11613e-05 -3.72247e-05 -7.40788e-05 -3.68931e-05 0.5 -0.000365167 -0.00106379 -0.000929695 -0.000147058 3.60486e-05 0.000783406 
450 1 0.619113 4.7988 4.46885 1 0 0 0.000287672 -0.000148452 9.70106e-05 -0.000247591 0.000126937 -6.75406e-05 -0.000227752 -5.37405e-05 2.53151e-05 0.5 -0.000126579 -0.00034246 -0.000705795 1.22793e-05 -0.00011451 0.000402873 
549 2 4.49946 0.500876 5.01431 0 0 0 -2.56098e-05 8.39124e-06 6.9423e-05 1.573e-05 4.99874e-06 -6.47383e-05 -4.18647e-05 4.4672e-05 -0.000111681 0.5 0.000237103 0.000340442 0.00023383 -0.000152619 -0.00012675 0.000130678 
591 2 1.44643 1.12514 4.40352 0 0 0 0.000207032 -0.000226837 -0.000315362 -0.000186751 0.000182572 0.00027958 -7.71837e-05 5.47927e-05 4.29002e-05 0.5 -0.000153985 -0.000271835 -0.000215599 7.20117e-05 2.90947e-05 0.000211143 
243 1 1.20286 1.83737 5.34385 0 1 0 1.4676e-05 0.000104865 -8.52917e-05 -1.82314e-05 -0.000107843 8.53906e-05 -3.69441e-05 -3.90023e-05 7.8124e-05 0.5 -0.000108677 -0.000130669 -6.81136e-05 8.81282e-05 -9.03194e-06 0.000184157 