ITEM: TIMESTEP
40500
ITEM: NUMBER OF ATOMS
1000
ITEM: BOX BOUNDS xy xz yz pp pp pp
0.0000000000000000e+00 1.0000000000000455e+01 4.5474735088646412e-13
0.0000000000000000e+00 1.0000000000000000e+01 0.0000000000000000e+00
-0.0000000000000000e+00 1.0000000000000000e+01 0.0000000000000000e+00
ITEM: ATOMS id type x y z ix iy iz vx vy vz fx fy fz omegax omegay omegaz radius c_2[1] c_2[2] c_2[3] c_2[4] c_2[5] c_2[6] 
231 1 3.47007 3.44122 0.894546 1 0 1 -166.81 -1.16306 -4.87051 702.531 -3119.79 250.862 0 0 0 0.5 -15329.6 -1111.59 -1521.49 640.469 -1463.25 897.289 
906 2 4.57891 2.05213 0.0541627 198 1 0 -278.068 -18.3177 -12.6188 779.165 -1775.19 99.9396 0 0 0 0.5 -40728.2 -990.446 -426.422 -2229.92 -2083.23 272.103 
382 1 4.00223 4.58349 1.10647 -63 0 1 -13.1485 -14.075 -18.7885 1572.17 -555.904 269.723 0 0 0 0.5 -706.539 -180.747 -202.965 120.918 -235.035 -101.096 
463 1 0.764781 0.150084 0.685922 212 1 1 -453.56 -6.65319 -22.9549 -177.433 -1116.75 -1377.38 0 0 0 0.5 -108553 -757.085 -446.104 -875.859 -5446.15 -240.6 
782 2 2.50081 3.55299 1.20093 206 1 0 -124.938 4.03799 -9.9472 2763.38 766.634 171.015 0 0 0 0.5 -9717.7 -1627.92 -641.201 1320.13 -1162.78 1004.08 
376 1 2.86773 2.70791 1.50158 -114 0 0 -255.871 7.45835 -14.5417 1156.84 -2361.95 -162.403 0 0 0 0.5 -35421.1 -1453.89 -513.771 1862.53 -2023.59 395.548 
704 2 1.91995 4.01655 0.68594 207 1 0 -60.9249 11.7203 23.2383 349.065 2329.67 -52.3785 0 0 0 0.5 -3563.71 -987.474 -1213.29 1324.03 -206.816 284.898 
877 2 4.18684 3.62043 0.0774977 255 1 1 -152.036 24.2421 13.8515 170.779 -238.45 -315.319 0 0 0 0.5 -12077.8 158.488 -59.3336 1990.3 1084.5 -124.759 
922 2 1.38665 0.707929 1.59458 139 1 1 -369.942 -11.5097 12.6458 -990.601 9.7706 472.854 0 0 0 0.5 -72056.1 -59.1623 -148.257 -2205.94 2621.43 55.4082 
737 2 1.72899 3.49894 1.48342 -57 0 0 -125.368 -30.4718 -15.2506 -2624.55 1899.67 -2027.14 0 0 0 0.5 -9600.17 -2410.56 -764.705 -1154.1 -1176.08 253.248 
816 2 2.10142 0.177701 0.36189 -111 0 0 -457.745 -4.56035 4.75372 -2710.41 3128.66 -1307.33 0 0 0 0.5 -110535 -1101.43 -607.248 -725.86 1228.72 686.934 
625 2 0.944687 1.52817 0.262238 -32 0 1 -343.744 14.4661 4.52199 736.336 -745.344 -1658.55 0 0 0 0.5 -61973.1 -206.714 -571.372 2803.94 1237.52 -269.704 
73 1 3.98202 3.3341 1.69457 -71 0 1 -234.147 15.1349 -7.59791 4058.95 -2450 1676.17 0 0 0 0.5 -30453.8 -1171.05 -941.062 3130.1 -1563.1 258.049 
280 1 3.1503 0.34658 1.55228 -145 0 1 -441.214 24.0725 13.9859 80.895 -917.368 -440.504 0 0 0 0.5 -101926 111.728 -27.6147 5531.07 3217.37 -25.071 
829 2 2.11023 2.59683 0.863404 95 1 1 -271.769 18.6299 0.26933 -522.5 629.279 212.972 0 0 0 0.5 -38793.7 -885.352 452.625 2899.2 45.0213 11.3189 
45 1 1.58702 1.6317 0.994578 228 1 0 -316.087 0.961961 -12.7894 7.17525 1.15649 8.18068 0 0 0 0.5 -52315.5 -0.544388 -88.6398 158.836 -2119.31 6.01831 
864 2 4.61776 2.72782 1.9835 -45 0 1 -251.489 13.9383 1.26386 1042.61 303.845 877.331 0 0 0 0.5 -33317.8 -563.472 167.481 2175.3 159.455 279.867 
775 2 2.02101 1.91969 1.85328 -136 0 -1 -285.171 0.0799136 -21.7563 -412.212 785.57 -717.869 0 0 0 0.5 -42612.7 -1170.33 -372.535 155.556 -3311.15 320.979 
756 2 0.0266338 1.38912 0.155121 -111 0 0 -361.971 -6.48189 9.33206 627.673 760.843 -301.083 0 0 0 0.5 -68518 -959.843 20.6021 -886.051 1848.28 -456.364 
920 2 0.440185 1.82572 0.96156 -92 0 0 -333.736 2.66266 -13.2803 2511.88 -2087.55 1750.86 0 0 0 0.5 -59758.7 -770.097 -1156.39 1505.76 -1954.27 -256.082 
72 1 0.277675 0.796881 0.948573 202 1 1 -380.402 8.28173 13.726 -831.614 1984.69 158.015 0 0 0 0.5 -76317.6 -655.78 -408.695 2087.83 3126.76 -283.352 
939 2 3.58145 2.22713 1.63879 -28 0 1 -273.016 0.0100394 24.1274 -211.646 687.28 322.011 0 0 0 0.5 -39950.4 -605.643 -787.25 513.306 3675.89 206.294 
744 2 2.03109 2.82245 1.79891 -32 0 0 -239.852 -0.411016 20.3021 646.252 -2891.45 1962.87 0 0 0 0.5 -30896.2 -1853.36 -443.876 620.99 2431.45 680.726 
196 1 2.27163 1.03037 0.226547 64 0 1 -390.111 1.6564 -1.99142 -2674.82 3499.29 1690.51 0 0 0 0.5 -80611.4 -516.793 -93.5467 975.956 4.77446 -141.029 
514 2 2.54224 1.87732 0.554234 -104 0 0 -300.17 9.82794 5.04032 -1254.09 -402.173 440.531 0 0 0 0.5 -47693.8 -627.436 -347.113 2487.04 1336.01 -479.418 
878 2 2.15616 3.39224 0.310208 8 0 0 -140.948 -14.444 -17.8176 -48.132 2999.35 1099.16 0 0 0 0.5 -10481.2 -2009.95 -585.079 -658.882 -991.988 -798.4 
389 1 2.20748 0.669831 1.23031 -156 0 0 -372.967 -12.7399 8.07455 974.74 -45.2417 -432.578 0 0 0 0.5 -73235 -85.8441 -112.926 -2469.34 1754.37 45.6217 
981 2 0.959754 3.0373 0.529144 294 1 1 -184.17 -10.6676 23.4677 1087.84 -411.011 656.527 0 0 0 0.5 -18182.1 -120.408 -444.126 -868.271 2001.64 229.58 
322 1 3.07304 4.088 0.410433 -31 0 1 -50.7469 -37.0173 -19.0117 -805.197 2712.11 -1362.11 0 0 0 0.5 -1973.51 -1935.93 -644.006 89.5388 -1050.2 851.718 
372 1 1.18148 4.08322 1.51298 -67 0 1 -94.0671 -2.56415 20.4215 493.14 1779.44 -319.682 0 0 0 0.5 -4941.22 -199.322 -419.634 944.227 745.497 -171.811 
697 2 3.62591 2.16841 0.355321 -83 0 1 -284.612 7.99315 -12.2793 0 0 0 0 0 0 0.5 -42413.6 -33.453 -78.9489 1191.16 -1829.89 51.3914 
871 2 2.85422 4.75844 1.89738 -60 0 0 -1.4058 1.96282 1.56482 781.997 -324.238 1049.7 0 0 0 0.5 -59.9927 -38.9541 -342.246 86.5834 -406.284 125.692 
211 1 2.43291 4.96517 1.12553 122 0 0 2.93871 -17.273 9.71563 93.212 -1294.78 -1657.42 0 0 0 0.5 -2174.22 -912.048 -694.907 462.515 -170.633 76.3502 
428 1 0.252951 3.69155 0.970099 24 0 0 -86.401 -5.31042 -9.80125 834.352 -233.004 -130.601 0 0 0 0.5 -4167.83 -104.884 -505.527 -148.949 -381.165 -207.469 
444 1 0.913467 4.78251 0.896599 27 0 1 13.2305 -6.39967 12.7543 -952.264 777.013 -237.358 0 0 0 0.5 -2644.98 -916.004 -550.82 1052.62 -436.039 410.367 
990 2 3.18562 1.17339 1.14367 -100 0 0 -387.874 30.2005 -5.29206 -229.45 38.4608 238.491 0 0 0 0.5 -78850.6 -467.202 -73.7019 6168.29 -1004.36 40.2046 
251 1 3.9418 1.14304 1.79842 -68 0 0 -383.511 17.8029 -4.22199 977.565 -104.815 -2102.45 0 0 0 0.5 -77537 -1137.56 -1000.16 4261.56 -138.328 -837.159 
919 2 3.21858 4.86059 0.972022 -113 0 0 -11.1251 -12.0117 -13.8901 808.647 126.894 -448.455 0 0 0 0.5 -1538.53 510.396 324.479 462.15 16.7733 339.776 
550 2 2.64302 4.72278 0.227739 19 0 0 -22.5276 -13.6091 -15.4529 1039.72 -237.968 -900.368 0 0 0 0.5 -1173.42 -1197.89 82.7553 857.058 -201.434 -191.304 
219 1 3.86634 0.875444 0.518225 -62 0 0 -411.92 1.75767 -16.742 1088.33 136.464 2650.73 0 0 0 0.5 -89169.8 -103.901 -1467.15 489.689 -3794.5 -189.253 
184 1 3.3285 3.88244 1.71348 53 0 0 -162.129 10.1564 0.468067 -2948.95 3624.47 989.085 0 0 0 0.5 -14780 -710.57 192.939 1965.57 254.142 141.021 
204 1 3.0615 1.22308 0.0896275 -208 0 1 -391.748 21.6727 -17.5763 3734.94 -4791.95 -263.832 0 0 0 0.5 -81914.7 -1175.57 -1091.34 5640.67 -3698.6 528.412 
750 2 0.291091 4.96383 0.692986 -244 -1 1 50.918 -17.3717 -34.7294 -3686.62 -388.872 -1121.56 0 0 0 0.5 -2663.25 -829.987 -663.726 1013.45 485.263 -241.96 
163 1 4.2536 0.571007 1.48783 148 1 0 -412.216 4.52446 -15.4074 690.809 -2107.39 -1709.62 0 0 0 0.5 -89273.8 -595.973 -406.049 1335.26 -3115.77 -48.487 
874 2 0.179408 3.3332 0.0497617 34 0 0 -145.507 -2.57204 1.87528 -1466.57 2000.57 800.539 0 0 0 0.5 -11056.9 133.789 -1006.95 376.213 -20.1552 -306.929 
261 1 1.56726 4.86917 1.08997 42 0 1 14.7678 12.1392 22.6883 -748.503 -3262.43 643.208 0 0 0 0.5 -1662.29 1176.44 269.601 194.839 -593.042 -205.661 
461 1 0.0343942 4.75578 1.49536 259 1 0 3.16283 8.25673 -10.5125 -528.367 -198.268 -2601.17 0 0 0 0.5 -1248.79 -315.978 -480.402 232.841 -387.234 -23.1725 
373 1 1.41112 4.15896 0.445614 -99 0 0 -67.417 -7.34667 5.08631 -2.46219 94.8429 -546.131 0 0 0 0.5 -4132.1 -260.213 -507.383 565.019 58.1526 159.859 
856 2 0.706569 4.16798 0.15783 -11 0 1 -82.6408 -14.3858 4.57244 -1518.88 1266.21 -166.266 0 0 0 0.5 -3803.64 881.943 449.289 -19.5998 93.5883 94.2227 
496 1 4.2415 1.93235 1.21989 229 1 1 -288.084 2.0166 5.69011 -1248.74 276.975 -13.976 0 0 0 0.5 -44780.6 -201.769 -816.937 812.263 1519.69 -295.795 
636 2 4.90045 1.69325 0.791191 -166 0 1 -311.421 -6.57687 16.9057 226.382 663.68 1674.61 0 0 0 0.5 -52183.9 -542.494 -1513.8 -430.843 3548.17 -536.456 
932 2 1.10773 0.0841663 2.30285 -36 0 0 -413.596 -4.8947 6.78174 -551.365 -1042.77 -2315.79 0 0 0 0.5 -89529.2 131.922 516.554 -746.777 1877.24 483.462 
879 2 2.31534 0.231924 2.34992 169 1 1 -426.392 0.101257 -6.17068 -749.633 -1351.94 1675.23 0 0 0 0.5 -95014.6 -253.572 570.837 206.291 -1723.94 -172.902 
108 1 4.02863 1.87171 3.78992 -132 0 0 -352.276 -1.51708 9.1383 755.445 1929.9 -341.075 0 0 0 0.5 -64850.9 826.265 -17.8796 44.0795 1628.33 -138.982 
271 1 0.913295 2.58814 2.1168 -137 0 0 -251.792 2.32086 -15.9036 854.37 2692.41 126.427 0 0 0 0.5 -33281.2 818.681 -183.778 926.965 -2058.92 499.817 
295 1 0.336147 0.892166 3.88864 186 1 0 -415.083 1.58131 4.56293 -509.876 628.055 737.043 0 0 0 0.5 -91806.9 -1735.84 -253.338 1385.84 996.791 -52.07 
789 2 1.18146 3.28497 3.83543 -153 0 0 -155.869 -11.1048 -7.89788 -2220.26 -78.0523 389.922 0 0 0 0.5 -13898.1 -776.46 -236.434 -190.19 -586.887 184.84 
876 2 1.76245 3.24039 3.25241 84 1 0 -161.586 6.93341 -24.6393 1077.15 292.371 1958.69 0 0 0 0.5 -14545.1 -1112.52 -894.838 1564.37 -2051.2 186.937 
188 1 4.69744 1.84432 2.10181 132 1 0 -295.946 2.82647 -5.01836 -432.822 2459.65 -875.576 0 0 0 0.5 -46108.6 -1953.34 -801.443 1002.2 -826.762 -68.438 
190 1 1.48876 2.171 2.67077 -125 0 1 -266.516 5.8472 0.430837 -2902.94 1299.07 -1383.88 0 0 0 0.5 -38505.4 -448.793 -604.475 1687.33 -952.048 507.854 
910 2 1.43226 4.07374 3.2098 -47 0 0 -125.652 15.0104 -0.76963 -466.562 1737.7 25.5513 0 0 0 0.5 -9080.85 -639.896 -156.326 1003.21 -23.2409 -21.1985 
646 2 0.0936934 1.79492 3.90091 -80 0 0 -324.125 3.63573 0.850912 -959.491 1800.44 -61.7962 0 0 0 0.5 -55639.9 -895.804 -267.661 668.102 392.35 -19.2799 
138 1 2.12273 3.92727 2.07363 -56 0 1 -147.376 16.2769 -17.0095 -492.432 -776.431 -1860.93 0 0 0 0.5 -11773.4 -1428.15 -946.152 1386.15 -1766.75 111.414 
274 1 2.27639 4.24603 3.05284 -127 0 0 -121.476 28.225 7.14911 3712.92 -715.726 1529.04 0 0 0 0.5 -9122.27 -2264.94 -660.302 3265.34 476.07 -282.825 
134 1 0.437106 1.38166 3.17379 -48 0 1 -343.402 -12.125 -11.8281 -1766.28 46.0393 1462.31 0 0 0 0.5 -63293.7 -584.642 -1034.42 -1699.56 -1835.49 -202.315 
918 2 2.15277 1.76451 3.13079 -80 0 1 -351.561 11.06 -10.2014 4195.7 -2049.07 1724.23 0 0 0 0.5 -66172 -689.355 -800.704 2621.56 -2548.68 622.42 
660 2 0.553313 0.267338 3.18182 117 1 1 -490.039 11.719 -12.2112 4276.93 -1495.29 3719.7 0 0 0 0.5 -128102 -1735.31 -489.062 4872.58 -3902.04 487.488 
260 1 0.372913 0.297508 2.15634 -219 0 1 -439.852 -0.528212 -5.9425 -122.591 2065.91 506.728 0 0 0 0.5 -102254 -821.241 -1279.86 734.982 -523.572 -1122.16 
306 1 0.898419 2.08077 3.84801 176 1 0 -316.49 7.69504 -12.618 -255.926 -257.104 1170.22 0 0 0 0.5 -53738.8 -1115.19 -1343.42 1811.66 -2262.63 -354.474 
573 2 1.12608 0.994925 2.58178 -119 0 0 -401.85 10.4586 -13.9534 3004.07 -1532.74 -1048.46 0 0 0 0.5 -86417.5 -444.701 -1042.11 3055.15 -3144.74 89.9647 
5 1 0.431545 1.28812 2.17658 -101 0 0 -367.192 7.2305 -19.3089 155.726 -1238.27 -969.083 0 0 0 0.5 -72241.5 -263.669 -806.396 2297.09 -4354.16 341.247 
499 1 3.77532 4.3867 2.33065 -25 0 0 -46.801 -15.0216 -5.97721 -304.298 -1420.76 -1306.19 0 0 0 0.5 -1050.92 -233.854 95.8548 -135.905 87.9474 -36.9077 
562 2 2.18195 1.17528 2.16771 118 1 0 -389.756 1.5622 21.415 295.524 -1110.49 638.931 0 0 0 0.5 -79579.1 -1039.99 -376.115 517.228 4297.8 341.089 
962 2 0.351704 2.60043 3.22468 -47 0 0 -243.88 4.55187 -26.937 -513.531 668.21 -1253.89 0 0 0 0.5 -31529 -353.664 -1405.28 903.819 -3838.87 231.099 
674 2 1.82194 0.745973 3.0827 -47 0 0 -422.782 13.7931 0.673967 1010.59 2449.44 669.494 0 0 0 0.5 -94012.1 -1344.86 -221.502 3279.88 -155.941 182.219 
513 2 2.60316 3.66876 3.58327 -64 0 0 -155.349 -6.0203 10.1628 -352.659 -1354.77 -270.712 0 0 0 0.5 -12496.2 -275.823 -365.659 -336.462 762.54 59.6912 
70 1 1.35693 3.42304 2.432 -17 0 0 -130.669 -3.56324 -11.5879 -1572.11 -2131.15 -3060.33 0 0 0 0.5 -9170.26 821.298 -820.62 372.119 -791.811 458.076 
82 1 2.29996 2.66716 3.28389 179 1 -1 -200.139 -6.95287 -2.72018 2067.07 -1838.79 170.918 0 0 0 0.5 -21518.6 -782.202 -9.77744 -173.637 -320.677 0.0957565 
24 1 1.26207 1.58718 3.31879 272 1 -1 -346.726 -5.35394 1.7739 331.278 -625.848 -3386.23 0 0 0 0.5 -64486.2 -416.264 -821.795 -643.919 88.6152 -356.138 
844 2 4.7338 4.57851 3.20997 74 0 0 -81.2029 19.3791 -26.287 -30.5586 -0.181128 63.2889 0 0 0 0.5 -3446.33 -196.637 -335.074 823.992 -1130.58 266.654 
865 2 0.890689 3.99987 3.96581 -43 0 1 -99.4797 12.3996 25.2566 -866.108 1291.52 444.075 0 0 0 0.5 -5988.24 -934.141 -1282.43 1273.75 709.782 164.134 
524 2 -0.0137694 2.55785 2.32221 -110 0 0 -253.449 -2.4767 -9.97241 -265.263 -952.379 743.368 0 0 0 0.5 -33872.6 -564.757 -1018.78 -298.397 -1510.68 519.807 
11 1 3.63869 0.107385 3.67256 -125 0 0 -518.837 -1.02834 7.62204 38.4764 -696.045 369.047 0 0 0 0.5 -140949 -257.653 -365.073 -274.251 2055.82 -46.5432 
675 2 0.336622 3.61414 2.10876 6 0 1 -93.4995 -14.9174 22.0728 487.229 -3017.2 -1533.29 0 0 0 0.5 -4870.74 -249.119 -1103.18 -93.2841 910.025 433.358 
657 2 2.01065 4.81263 2.17274 31 0 1 -31.2735 3.64271 -10.2385 25.2195 2293.61 -204.878 0 0 0 0.5 -476.753 -1062.78 -228.715 198.296 -115.951 -125.142 
852 2 1.89146 1.36725 3.92119 -96 0 1 -362.417 -18.7193 -23.539 -1355.25 -465.381 -226.425 0 0 0 0.5 -70473.4 -563.84 -1621.03 -3227.33 -5193.81 242.639 
241 1 0.402619 4.36379 3.45665 189 1 0 -55.9571 15.7657 -13.7025 -839.892 1766.52 -1188.57 0 0 0 0.5 -2380.87 -803.626 -859.318 826.91 -582.341 -98.3158 
765 2 3.62999 0.938719 3.99712 409 2 0 -422.357 4.03696 20.0672 -1056.75 279.669 347.412 0 0 0 0.5 -95613.7 -601.317 -641.572 1660.16 4399.61 -0.0456459 
369 1 0.636378 3.67037 2.9143 -50 0 0 -113.42 -19.2082 27.3527 -127.029 -1424.85 792.307 0 0 0 0.5 -7513.95 -757.985 -1376.98 -998.192 1534.7 -168.34 
818 2 2.86883 3.17159 2.30576 26 0 0 -201.122 -2.5761 -4.6663 1616.52 -1783.98 -453.436 0 0 0 0.5 -21534.3 -634.296 -308.291 178.012 -291.657 -365.911 
405 1 0.132539 2.94941 3.90933 -66 0 0 -188.127 14.2352 9.88283 -658.552 1285.5 -894.875 0 0 0 0.5 -19897.8 -305.697 -830.922 1736.45 719.557 4.03004 
501 2 1.71513 4.95075 2.98861 -9 0 1 -21.2861 0.477862 9.71205 -2755.23 3901.15 -1547.31 0 0 0 0.5 -2106.26 -1216.61 -800.576 1354.53 381.022 -83.7341 
833 2 2.42992 3.72786 2.55329 -1 0 0 -169.443 5.06382 19.3394 412.589 -827.764 1324.78 0 0 0 0.5 -15655.2 -1177.42 -1318.87 1192.11 1709.3 -560.104 
855 2 0.731376 4.74189 2.02713 -295 -1 0 -56.5313 16.664 21.8517 1765.15 -199.134 445.504 0 0 0 0.5 -2500.35 -409.595 -1427.87 606.158 131.839 -563.329 
49 1 3.61264 1.48424 2.30187 169 1 0 -338.961 3.38377 -0.43445 -2260.36 588.332 1535.95 0 0 0 0.5 -61713.5 -1250.05 -1805.28 1676.03 39.3972 -104.326 
329 1 3.46328 4.66069 3.68246 -59 0 1 -44.6448 -14.5245 3.30597 121.385 1368.27 -1311.36 0 0 0 0.5 -1294.21 -1582.15 -236.357 -219.053 116.058 507.628 
952 2 2.23005 0.300697 3.93065 163 1 0 -511.774 19.5467 -23.8197 294.099 -587.261 1115.45 0 0 0 0.5 -137183 148.105 -461.833 5225.22 -6491.13 51.6168 
156 1 4.87745 0.112755 3.0481 168 1 1 -472.265 -9.14209 1.63862 1972.76 -2045.59 420.454 0 0 0 0.5 -117537 -267.996 -370.833 -1962.42 -49.6598 -13.6817 
289 1 2.95263 2.10697 2.39343 -155 0 -1 -299.454 7.01247 3.77645 -1664.58 1509.04 288.475 0 0 0 0.5 -47500.8 -499.459 -42.2474 1597.66 686.306 -79.5171 
144 1 3.41576 1.29738 3.18253 -133 0 0 -362.506 -12.3772 -6.93856 -2401.45 214.589 952.41 0 0 0 0.5 -69662.8 -139.523 -595.92 -2308.04 -1052.25 115.678 
379 1 3.58627 0.26259 2.68977 -91 0 1 -475.721 3.33462 16.9392 -2040.52 -387.371 -1707.41 0 0 0 0.5 -119040 -16.9246 -346.443 913.116 4169.12 350.324 
658 2 4.19969 3.56326 3.28478 -38 0 1 -145.469 18.1303 -34.9476 -46.8765 281.133 -132.768 0 0 0 0.5 -11087.3 -290.983 -665.444 1405.25 -2668.28 380.816 
276 1 4.29535 1.2637 2.86188 -146 0 1 -383.868 27.2371 11.5083 -574.215 1135.2 -595.535 0 0 0 0.5 -80271.9 -1068.28 -1269.62 5928.41 1495.02 -22.1276 
742 2 2.80381 1.38668 3.96705 166 1 0 -388.637 11.6172 -24.8002 958.484 566.03 490.011 0 0 0 0.5 -80736.7 -183.852 -0.674786 2650.55 -5074.47 21.2781 
447 1 4.34997 0.431545 2.81906 68 1 -1 -466.167 17.0068 2.26135 -836.241 505.921 -787.485 0 0 0 0.5 -115009 -1003.96 -176.852 4448.76 173.674 73.052 
68 1 4.3643 2.72924 3.63837 171 1 0 -231.043 7.00635 2.94192 -1299.94 -1906.91 239.303 0 0 0 0.5 -28950.2 605.346 -460.958 1253.55 770.333 -239.143 
413 1 4.50725 2.20253 2.83375 -137 0 0 -259.102 5.55054 5.08291 -267.31 399.731 910.81 0 0 0 0.5 -35191 -224.21 -688.434 834.044 850.345 -374.213 
437 1 4.93308 1.06531 2.1518 -159 0 0 -418.397 10.0998 -0.27301 344.52 -2739.47 136.037 0 0 0 0.5 -92306.6 -1897.87 -544.303 3049.31 121.855 5.00624 
121 1 3.43371 4.052 5.59582 67 0 1 -148.165 30.725 8.76052 802.156 482.777 2113.52 0 0 0 0.5 -11605.4 -534.456 -809.968 2316.88 387.472 -316.772 
832 2 1.3761 0.662801 5.52146 -119 0 0 -429.16 -24.392 11.6461 -1129.15 157.413 361.027 0 0 0 0.5 -96833.5 -144.867 -64.7958 -5595.9 2690.58 232.926 
823 2 0.132374 0.463749 4.63086 148 1 -1 -514.034 1.61153 20.6563 2526.58 -3406.14 -646.698 0 0 0 0.5 -139030 -1500.25 -1245.3 1166.48 4848.02 -86.4586 
77 1 1.31883 1.54051 5.81381 215 1 0 -330.787 6.26765 10.6887 1151.64 -1633.69 383.267 0 0 0 0.5 -58115.5 25.6908 -1206.49 1111.55 1851.18 -229.714 
409 1 2.18359 1.07928 4.59471 274 1 0 -382.594 -19.0644 -18.2921 -1762.73 -640.822 -298.483 0 0 0 0.5 -78345.2 -581.844 -1427.92 -3281.4 -4062.39 139.184 
114 1 4.53641 0.702623 4.04012 -191 0 0 -471.561 7.03096 -14.6364 2069.61 -771.044 834.43 0 0 0 0.5 -118258 56.7944 -48.3046 2226.69 -3571.3 25.5345 
668 2 1.54337 2.04998 4.21574 -67 0 0 -306.448 21.2377 15.5779 6631.4 -143.741 -2681.88 0 0 0 0.5 -51359 -679.394 -1383.46 4757.82 3125.24 -190.61 
443 1 2.50581 4.21748 5.08572 36 0 0 -43.648 -17.7749 -10.6758 -1514.07 2434.34 688.623 0 0 0 0.5 -3515 -657.231 -724.314 1303.23 462.179 -664.224 
17 1 0.590547 1.59383 5.62988 -216 0 0 -339.996 -7.77797 10.4346 528.073 289.043 -420.362 0 0 0 0.5 -62055.1 -183.569 -419.154 -1270.11 1583.34 -265.472 
556 2 3.15725 3.88561 4.86738 87 0 0 -104.686 11.4388 2.09816 2231.95 -254.45 -2312.84 0 0 0 0.5 -8344.67 -1733.63 -1598.74 2384.13 60.9055 -94.0047 
414 1 3.78645 4.9321 4.64219 63 0 0 1.94014 -13.8095 21.0635 -1034.37 664.553 1593.96 0 0 0 0.5 -534.485 -366.139 -687.715 306.377 384.842 -94.3272 
958 2 3.71666 2.75156 4.16463 97 0 0 -231.144 -1.11774 6.02282 -1030.95 299.376 182.821 0 0 0 0.5 -28383 -30.493 -630.473 -146.408 1124.81 105.617 
362 1 0.799995 2.66101 4.35145 -111 0 -1 -215.548 16.828 14.4714 -1685.87 3008.69 793.308 0 0 0 0.5 -26193.1 -1614.25 -1651.08 3193.11 1342.25 -464.901 
773 2 2.00683 4.41913 4.18495 45 0 0 -70.6374 -8.8054 6.6135 58.7416 -537.155 -2386.39 0 0 0 0.5 -3968.14 -289.447 -759.286 208.164 514.474 -261.637 
117 1 1.58967 3.80591 5.94817 -89 0 0 -111.599 -7.10455 -6.81745 -1787.64 773.207 727.867 0 0 0 0.5 -7271.38 -166.797 -148.725 -90.6104 -92.8643 -157.498 
835 2 2.10118 0.848649 5.38004 -98 0 0 -417.969 24.2299 5.57852 1817.44 -1103.82 1373.51 0 0 0 0.5 -92202.2 -1656.25 -733.787 5830.31 1021.5 698.712 
615 2 1.6922 1.59411 5.00466 246 1 0 -355.195 5.68457 8.62559 2651.3 1432.25 180.385 0 0 0 0.5 -69761.6 -1126.71 -1151.67 3080.57 1445.05 1030.47 
645 2 2.13729 2.33853 5.42105 -2 0 0 -258.601 15.6991 12.7113 -2955.85 2403.51 46.0956 0 0 0 0.5 -36398.9 -715.77 -228.161 3899.74 2895.8 -296.705 
809 2 2.32757 0.254946 5.65803 148 1 -1 -456.35 -19.6098 15.4516 -1682.7 -1071.56 -1359.11 0 0 0 0.5 -108817 -460.044 -1435.8 -3740.45 3548.11 1036.15 
843 2 1.43179 3.7509 4.61042 27 0 0 -94.4138 5.18028 -2.7261 -266.766 35.8388 -1133.27 0 0 0 0.5 -5521.36 -286.233 -703.202 770.977 -696.625 679.554 
815 2 2.42911 3.44282 5.60638 -15 0 0 -136.488 9.97735 13.0508 2932.05 -1051.72 -504.393 0 0 0 0.5 -10886.4 -1187.85 -1054.42 984.229 845.593 30.1276 
198 1 4.32584 4.5761 4.05489 -3 0 0 -37.2871 -7.48163 9.20743 1552.71 -1313.2 -1448.88 0 0 0 0.5 -1153.34 -370.547 -487.608 106.901 557.581 -190.796 
438 1 0.859315 2.02279 4.90287 -36 0 0 -255.273 -25.225 -1.99612 -7218.58 2974.29 2429.98 0 0 0 0.5 -36972 -626.024 -665.872 -2211.78 122.096 377.439 
460 1 3.9752 4.94587 5.83752 55 0 0 46.1535 -36.8476 12.8836 -145.665 -342.98 876.837 0 0 0 0.5 -1793.81 -742.751 -609.088 1007.5 232.785 191.906 
135 1 1.92853 2.9196 4.17836 -10 0 -1 -187.326 10.5393 3.42065 1475.46 -2175.81 184.96 0 0 0 0.5 -19011 426.078 288.32 1681.62 59.1547 -16.3728 
328 1 1.50722 2.48561 5.7847 -82 0 0 -254.96 -4.1522 32.2806 822.686 -1600.01 620.75 0 0 0 0.5 -35627.6 -645.426 -1336.57 267.414 4776.17 -194.575 
176 1 4.51539 4.96909 5.17519 23 0 0 32.4712 -3.13109 9.82931 1784.74 -1890.82 -2442.34 0 0 0 0.5 -1937.74 -645.431 -1012.26 727.062 137.691 221.489 
483 1 1.89922 3.36704 5.09843 -11 0 -1 -128.049 -28.0623 -8.76369 -2394.78 -57.2024 1382.42 0 0 0 0.5 -10362.3 -995.331 -968.739 -1050.35 -895.053 -107.686 
963 2 0.923702 2.84979 5.25882 212 1 1 -201.757 16.4169 -11.55 1876.91 -1033.15 -149.098 0 0 0 0.5 -22513.3 -19.8623 -1182.67 2258.19 -1384.74 166.364 
576 2 -0.00530212 1.25639 5.0347 187 1 1 -331.899 -17.767 25.485 -703.25 1872.41 1250.87 0 0 0 0.5 -58236.3 -1468.89 -1152.32 -2934.56 4009.66 -390.442 
997 2 1.95288 4.60999 5.15978 -12 0 1 -23.1386 -16.0008 -12.1482 -2594.49 2906.49 2671.38 0 0 0 0.5 -1326.99 -440.494 -767.391 567.617 -127.921 -116.502 
377 1 4.63436 0.125078 5.18853 -327 -1 0 -463.258 -5.47202 -31.3763 -1731.89 541.576 826.465 0 0 0 0.5 -113048 -77.694 -855.264 -1260.06 -7520.41 -198.486 
208 1 0.742062 3.93651 5.13921 -13 0 0 -105.62 -1.79166 3.73024 -364.25 128.019 -18.5632 0 0 0 0.5 -5988.43 -12.4408 -253.531 -61.6259 341.327 -18.465 
857 2 0.218875 3.11577 5.38533 -114 0 0 -194.098 19.1246 -25.288 -398.547 1042.78 308.861 0 0 0 0.5 -21225.6 -321.933 -272.165 2230.44 -2069.69 184.158 
774 2 3.62618 3.7604 4.04445 -46 0 0 -130.576 5.69028 -14.2689 3169.96 -4091.16 895.866 0 0 0 0.5 -10107.7 -1188.9 -3.21124 1199.76 -720.247 27.6548 
526 2 2.70511 2.91457 4.75927 -100 0 0 -177.303 -1.72528 3.40166 956.242 418.245 -1862.96 0 0 0 0.5 -18032.2 -518.715 -280.397 1198.39 501.071 -3.06001 
473 1 0.342251 4.84339 4.25542 68 0 0 -33.1286 6.72093 -8.53793 1993.01 -636.148 878.443 0 0 0 0.5 -1460.76 -338.996 -307.496 571.834 -229.522 -74.162 
364 1 4.71043 2.05121 5.37421 -74 0 -1 -287.91 -2.52088 -19.9152 -1404.48 307.232 -787.256 0 0 0 0.5 -43899.5 -27.1293 -363.949 -271.213 -3281.01 34.7036 
908 2 3.52241 2.48509 5.04715 -137 0 0 -242.114 -14.4502 -6.26516 2595.85 -1319.88 1279.06 0 0 0 0.5 -31796.3 -357.241 -685.145 -1306.09 -1019.93 281.221 
457 1 2.79864 4.22589 4.24517 25 0 0 -67.1763 8.5741 -20.1122 -1742.96 955.549 -1378.23 0 0 0 0.5 -4625.79 -1284.22 -1635.09 1096.75 -576.951 -77.0736 
270 1 2.64296 1.76197 5.16743 -85 0 0 -402.678 11.7903 4.34368 6560.13 -4131.65 -1579.57 0 0 0 0.5 -87125.7 -1430.96 -300.817 3430.6 1218.32 -644.211 
552 2 3.02341 0.916975 4.78783 108 1 0 -427.682 1.32339 4.82057 2823.07 -254.41 452.183 0 0 0 0.5 -97226.7 39.7076 46.1444 517.728 952.123 -99.2374 
433 1 2.46888 4.31331 5.99528 251 1 -2 -84.5663 1.87688 -3.99794 3133.56 -4473.17 -710.876 0 0 0 0.5 -4283.71 -2194.52 -672.002 948.967 156.826 -471.611 
655 2 3.19248 2.31427 5.88257 -134 0 1 -289.943 5.28074 -12.9285 1913.18 -1792.43 -252.58 0 0 0 0.5 -44704.6 -480.754 -330.764 1338.25 -1592.76 -172.111 
943 2 0.310327 4.71829 5.85901 -37 0 0 25.8696 -9.65589 -12.0182 -675.578 2561.64 623.053 0 0 0 0.5 -686.938 -1359.92 55.8227 663.461 -227.301 419.456 
643 2 3.90758 1.22985 5.87086 -86 0 1 -339.528 -2.81537 -3.75054 0 0 0 0 0 0 0.5 -60359.9 -4.15021 -7.36524 -500.506 -666.757 -5.52876 
288 1 1.35446 4.84292 4.49832 7 0 0 -43.1644 3.45223 14.7064 788.194 -521.554 -1451.92 0 0 0 0.5 -2540.55 -528.897 -2043.36 930.426 1229.83 -344.563 
708 2 3.59402 3.3228 4.93033 -236 0 0 -159.683 14.4258 14.7706 1798.99 -3910.24 -772.46 0 0 0 0.5 -13493 -850.019 336.255 2246.85 1219.69 -176.541 
811 2 1.03088 0.222696 4.04428 -138 0 0 -499.568 4.93146 23.2278 1759.68 -2238.8 -593.123 0 0 0 0.5 -131353 -780.366 162.017 2073.95 6159.4 93.6278 
779 2 4.36192 1.17664 4.84177 50 1 0 -429.759 5.18547 13.4557 49.5959 -134.727 -227.849 0 0 0 0.5 -96700.8 17.8526 -3.47255 1155.09 3007.94 17.4688 
696 2 4.9132 2.68086 4.47534 172 1 0 -239.855 15.7197 9.71966 -23.9162 39.3566 -2.20181 0 0 0 0.5 -30128.2 -144.06 -49.5112 1983.12 1220.17 -79.1801 
616 2 4.93262 4.20916 4.85843 -43 0 0 -11.4905 -41.1751 -24.4464 -40.0123 402.416 235.788 0 0 0 0.5 42.4619 -741.684 -273.815 -318.996 -149.534 -462.834 
215 1 4.82682 2.7364 7.00003 -89 0 0 -174.55 -25.0065 -13.5889 -2290.97 3441.98 1242.19 0 0 0 0.5 -17262.5 -1004.29 148.286 -1767.09 -850.797 34.2062 
232 1 4.90127 0.583621 6.98611 -160 0 1 -426.418 -4.38261 -34.7783 143.12 -2716.48 -1489.81 0 0 0 0.5 -96596.6 -1218.26 -896.275 -26.0525 -7521.69 -453.071 
956 2 0.403382 1.73612 6.78188 -162 0 1 -322.888 2.67625 19.0546 -1280.43 4422.76 -759.039 0 0 0 0.5 -55495.1 -1872.33 -660.285 1831.6 3212.6 94.0833 
20 1 4.54006 1.13493 7.18933 -216 0 0 -361.584 -3.1831 -21.8902 -2727.42 2549.27 553.375 0 0 0 0.5 -68916.1 -1641.91 -731.593 54.5262 -3967.11 -285.071 
517 2 2.3859 4.39497 7.7473 -79 0 0 -20.0726 7.21332 4.83723 -1908 1237.77 -83.1395 0 0 0 0.5 -2144.29 -229.507 -675.883 504.449 -733.494 135.272 
614 2 1.36517 1.88747 6.62455 -5 0 0 -311.797 8.68391 -1.47749 -92.2859 1047.4 779.605 0 0 0 0.5 -50623.8 189.426 -972.758 1569.99 -205.036 -377.761 
966 2 2.35909 4.06471 6.84863 205 1 0 -45.4914 -28.3037 20.7916 -2793.28 2284.71 -385.524 0 0 0 0.5 -2718.61 -1524.45 -852.786 618.527 1264.44 -341.318 
650 2 0.91614 0.993044 6.41242 63 1 0 -428.396 12.1369 -15.1299 67.2646 -1942.97 -3740.93 0 0 0 0.5 -97111.7 -816.886 -1089.86 3382.48 -3348.96 -318.793 
330 1 1.66968 0.921896 6.72543 159 1 -1 -436.996 35.4567 8.48972 1052.27 594.976 1148.96 0 0 0 0.5 -101733 -952.483 -14.4319 8762.65 1970.71 -426.38 
113 1 3.6755 3.34484 7.0333 12 0 -1 -152.888 -5.63521 8.85483 2486.21 -734.633 904.779 0 0 0 0.5 -12955.5 -136.855 -208.397 -72.1553 309.978 170.851 
752 2 1.54681 2.8131 6.68429 -77 0 -1 -221.088 16.4269 23.0537 1407.08 -1139.34 -480.566 0 0 0 0.5 -26141 153.444 -1101.64 2049.29 2722.63 -331.258 
112 1 0.818421 3.01917 6.13755 -33 0 0 -204.73 10.7659 3.43334 -318.689 -1294.79 -218.072 0 0 0 0.5 -23545.4 -1730.64 -331.186 2091.17 1031.68 -284.171 
786 2 1.32866 0.547457 7.48378 -214 0 1 -499.762 22.6056 20.6464 3213.75 -723.512 1123.19 0 0 0 0.5 -132101 -1710.44 -253.394 7358.04 4853.19 -23.5711 
537 2 0.838229 0.982094 7.21851 159 1 0 -421.704 3.50596 -11.5867 -3203.31 -220.367 300.657 0 0 0 0.5 -95155.6 -2025.25 -2051.2 2441 -2747.4 693.049 
523 2 0.674681 2.75563 7.04739 -55 0 0 -219.222 -0.573618 13.0825 -1242.78 2187.32 -629.35 0 0 0 0.5 -26298.1 -852.89 -611.864 751.492 897.011 696.435 
87 1 1.10713 2.19263 7.43292 -24 0 0 -286.377 0.218901 9.27667 1224.98 -49.995 708.917 0 0 0 0.5 -43522.6 -563.541 -1566.23 980.75 809.221 937.949 
739 2 2.99181 2.54223 6.83871 -45 0 0 -241.2 -3.71386 28.6957 -1869.99 1149.19 2037.54 0 0 0 0.5 -31209.3 -547.116 -737.13 249.489 3562.13 -33.02 
822 2 2.36632 0.361252 6.59216 106 1 1 -474.345 23.3016 18.402 1401.02 -238.664 245.77 0 0 0 0.5 -118414 -1059.06 -344.433 6351.35 4707.58 -450.131 
723 2 1.35265 3.11321 7.61388 149 1 -1 -201.515 6.68053 9.29228 814.04 -3416.57 -31.8632 0 0 0 0.5 -21675 -325.174 -1193.46 1411.24 868.234 189.802 
399 1 2.23138 2.45586 7.46986 -71 0 -1 -274.547 11.7653 9.01263 234.695 957.373 259.675 0 0 0 0.5 -39321.8 -417.631 -87.4529 1779.47 1210.31 -302.146 
767 2 0.371139 3.93514 7.05351 -94 0 -1 -140.953 15.5009 -17.5554 -662.672 -1386.64 309.776 0 0 0 0.5 -11474.3 -1124.29 -849.236 1698.74 -1701.64 588.629 
619 2 0.533427 1.40854 7.77045 81 1 0 -370.042 17.0697 10.1305 -749.724 2638.91 -30.0413 0 0 0 0.5 -71911.1 -986.778 -1081.51 3586.42 2326.28 -163.774 
226 1 2.38551 1.69265 6.96071 -117 0 0 -354.63 11.373 -0.308534 -1673.41 967.02 -881.35 0 0 0 0.5 -66366.5 -929.084 -165.561 2690.66 -84.8835 -154.629 
365 1 4.6167 3.57477 6.95625 -83 0 1 -145.71 10.8235 -7.5257 482.132 1132.03 -414.102 0 0 0 0.5 -10754.4 508.131 31.4461 1173.1 -695.096 -138.922 
534 2 0.798287 0.143843 6.35597 116 1 0 -484.881 -11.103 20.3088 -1015.85 753.502 251.742 0 0 0 0.5 -123418 -156.701 -233.797 -2610.24 5231.83 72.0885 
762 2 2.63602 3.27484 7.97883 -96 0 -1 -195.494 -0.754082 1.36833 2267.53 -3199.77 -1936.09 0 0 0 0.5 -20512.7 -999.565 -366.823 630.946 568.535 -604.087 
730 2 3.43563 0.46378 6.75968 -147 0 0 -464.169 4.34639 6.94132 2001.94 -2683.73 -1107.88 0 0 0 0.5 -113319 -923.678 -180.951 1737.98 1968.4 -393.02 
665 2 2.84987 3.66198 6.6724 10 0 1 -114.258 -21.2723 8.88977 3184.46 -1841.36 -3001.28 0 0 0 0.5 -8550.52 -76.9364 -237.671 551.749 641.003 108.833 
80 1 2.10525 4.75116 6.39297 -6 0 -1 -16.8142 0.3229 14.6922 -2411.06 1866.54 1723.02 0 0 0 0.5 -594.136 -1102.32 -1191.47 577.236 616.948 -686.337 
91 1 1.76708 4.44628 7.35685 25 0 0 -35.9344 -23.0184 -8.69839 149.235 881.651 -436.735 0 0 0 0.5 -2212.44 -202.233 -467.518 982.846 -73.0501 -754.65 
267 1 3.85238 2.1159 7.73046 -157 0 -1 -257.916 -13.8064 -6.04447 -234.607 61.98 179.717 0 0 0 0.5 -34917 -105.879 -70.1839 -1841.49 -749.624 -61.3027 
622 2 0.0688318 3.05772 6.5439 -67 0 -1 -192.687 6.72392 -2.73885 -1919.63 1119.13 -147.136 0 0 0 0.5 -21182.6 -163.818 -505.963 781.734 -217.465 167.379 
222 1 2.50617 2.88274 6.15438 257 1 1 -230.118 -3.79398 26.7123 -2313.02 1432.18 1166.91 0 0 0 0.5 -28491.6 -544.366 -866.728 417.055 3360.46 546.367 
588 2 0.594264 3.89116 6.09762 -38 0 1 -112.701 -4.9796 1.53974 399.744 -135.841 319.994 0 0 0 0.5 -6901.8 -2502.43 -623.261 454.448 62.1537 407.668 
953 2 4.22687 4.98872 7.64489 52 0 0 61.1322 -23.12 15.8539 924.868 793.073 160.166 0 0 0 0.5 -2305.67 118.401 -158.504 820.438 -615.516 164.517 