ITEM: TIMESTEP
127000
ITEM: NUMBER OF ATOMS
1000
ITEM: BOX BOUNDS xy xz yz pp pp pp
0.0000000000000000e+00 1.0000000000000000e+01 0.0000000000000000e+00
0.0000000000000000e+00 1.0000000000000000e+01 0.0000000000000000e+00
0.0000000000000000e+00 1.0000000000000000e+01 0.0000000000000000e+00
ITEM: ATOMS id type x y z ix iy iz vx vy vz fx fy fz omegax omegay omegaz radius c_2[1] c_2[2] c_2[3] c_2[4] c_2[5] c_2[6] 
120 1 3.15871 1.54101 0.0720368 0 1 0 -0.000297158 0.000806089 0.00039131 0.000276218 -0.000758359 -0.000346348 0.000401621 -0.000122739 -0.000297287 0.5 -0.000279556 -0.00162308 -0.000117622 -0.00019759 -3.33166e-05 -0.000326005 
525 2 2.11645 1.23503 1.70064 0 0 0 -0.000262379 -0.00116704 -0.00128511 0.00020332 0.000977865 0.00113628 -0.000172391 -6.61761e-05 0.000293829 0.5 -1.15951e-05 -0.000108403 4.96326e-05 0.000124572 0.000108314 -8.25647e-05 
371 1 4.95913 3.68371 1.58309 0 0 1 0.000295524 -0.000750167 0.00109887 -0.000239688 0.000642172 -0.000979825 0.000124213 -1.18713e-05 5.31511e-05 0.5 -1.89996e-05 -0.000690192 0.000720435 -9.21365e-05 -8.39523e-05 3.62296e-05 
18 1 1.98126 2.6919 0.531941 0 0 0 -0.000144683 0.000118974 0.000949673 0.000125337 -0.000141361 -0.000822023 0.000609703 -0.000274073 0.000220297 0.5 -7.73078e-05 -0.00111232 -0.000619806 0.000832788 0.000743097 -0.000709609 
94 1 2.46191 3.50125 2.00424 0 0 1 -4.71926e-05 -0.000945137 0.00104982 6.5542e-05 0.000801338 -0.000909364 0.000231327 -0.000107356 3.73058e-05 0.5 0.000332062 0.000263963 0.000198929 0.000262815 0.000345425 0.000472565 
25 1 1.41556 0.70884 1.08405 0 0 0 -0.000107528 -0.000180836 -0.00146867 6.88943e-05 0.00010893 0.00133126 0.000486847 -8.50204e-05 0.00020445 0.5 -0.000615035 -0.00311444 -0.00150021 0.00113797 0.000902064 -0.00127695 
378 1 4.61919 2.40698 0.0720624 0 0 1 -9.23859e-07 0.000388435 0.000897514 1.59229e-05 -0.000368608 -0.000809091 0.000645891 0.000175386 -0.000111697 0.5 -0.000338135 -0.000790855 -0.000389317 -0.000421183 -0.000219074 -0.00084383 
8 1 3.44139 2.06836 1.74229 0 0 0 7.06924e-05 -0.000649091 0.000439595 -6.50096e-05 0.000539986 -0.000405522 0.000494653 -0.000200756 5.85484e-05 0.5 -0.000230997 -0.000249092 0.000139844 0.000279983 0.000416147 -3.15449e-05 
629 2 4.07697 2.61582 1.19756 0 0 1 0.000259261 -0.000351294 0.000960009 -0.000223941 0.000275982 -0.000856824 0.000622554 -0.000112893 -1.11379e-05 0.5 -0.000774712 -0.000444748 -0.000796164 7.21349e-05 -0.00030165 -0.0001951 
5 1 2.34666 3.9012 1.05279 0 0 0 -0.000268908 -0.00116208 0.00107512 0.000264826 0.000988605 -0.000925487 -5.56808e-06 5.33136e-05 0.000306933 0.5 -0.000124471 -0.000194013 -0.000261305 0.000195876 0.000128529 -0.000111111 
650 2 0.459567 3.43723 1.12985 0 0 0 -0.000756968 -0.000928163 -0.000376994 0.000695879 0.000803014 0.000429729 0.000517404 0.000180384 5.87738e-05 0.5 -0.000985952 -0.00117619 -0.00100701 0.000713697 0.000809202 -0.000602896 
14 1 3.29512 3.13407 1.54414 0 0 0 2.87308e-05 -0.000718963 0.000990236 -5.29435e-06 0.000614093 -0.000869887 0.000328952 6.05306e-05 3.22569e-05 0.5 1.88688e-05 -0.000286647 -0.000367411 0.000239008 7.92045e-05 -0.00042215 
264 1 3.99625 3.86837 1.37888 0 0 0 0.000284524 -0.000789539 0.00111633 -0.000230253 0.000662599 -0.0010037 0.000427715 9.25902e-05 1.79013e-05 0.5 -0.000125423 -5.7983e-06 -0.000545528 0.000231765 0.000215614 -2.97103e-05 
223 1 0.748006 2.47858 1.14571 0 0 1 -0.000624483 -0.000864638 -0.000134366 0.000556347 0.000738882 0.000157175 0.000666954 -0.000230953 0.000187424 0.5 -0.000711386 -0.00147118 -0.00401786 0.000447974 0.0015758 -0.00102486 
364 1 4.42279 4.23674 0.539012 0 0 1 -0.000165369 0.000352008 0.00140827 0.000162329 -0.000345981 -0.00125953 0.000380861 2.65342e-05 0.000253625 0.5 8.1574e-05 -3.77547e-05 -2.53303e-05 -1.47024e-05 0.000243807 -0.000140314 
107 1 1.66101 1.61823 0.747986 0 0 1 -0.000406579 8.26225e-05 -0.000956769 0.000350654 -0.000119481 0.000904543 0.000707453 -6.22301e-06 6.30183e-05 0.5 0.000642508 -0.000606787 -0.000527028 -0.000111581 5.85054e-05 -0.000459852 
529 2 2.67254 2.19976 1.06183 0 0 0 0.000194934 -0.000230341 0.000188512 -0.000180825 0.0001604 -0.000151146 0.000636364 -0.000102945 0.000141276 0.5 2.40889e-05 -0.000178089 -0.000300923 7.60989e-05 0.000213368 -6.96539e-05 
515 2 4.38641 0.436368 1.64403 0 0 0 4.17834e-05 -0.000756222 -0.000277232 -3.85175e-05 0.000646949 0.000236395 0.00038764 3.95917e-05 -4.66712e-05 0.5 -0.000943289 -0.000687494 -0.00106304 -0.00105831 0.000512165 0.000381563 
244 1 4.1137 0.570404 0.682816 0 1 1 5.34506e-05 0.000100296 -0.000139916 -4.43741e-05 -0.000107832 0.000111296 0.000556246 0.000134282 -0.000129748 0.5 -0.000522407 -0.000474976 -0.000797308 -0.000262516 0.000383574 0.000225298 
20 1 2.90173 0.571172 1.78412 0 0 0 0.000105574 -0.00056531 -0.000492696 -0.000103555 0.000466745 0.000424438 0.00026668 -0.000191862 5.47814e-05 0.5 -0.000774511 -0.00137384 -0.0018682 5.32051e-05 0.000992824 -0.00100663 
280 1 4.09068 1.58215 1.14613 0 0 0 0.00016455 -0.000209594 0.000241773 -0.000144446 0.000149041 -0.000230156 0.000551474 -7.8524e-05 -5.96602e-05 0.5 -0.000852391 -0.000629026 -0.00169518 -4.91096e-05 0.00104695 0.000169172 
620 2 1.39489 4.37124 0.857339 0 0 1 -0.000579603 -0.000699494 0.000448002 0.000600408 0.000595961 -0.000307383 0.000521179 0.000239427 -5.97528e-05 0.5 -0.000216979 -0.00122211 -0.0021364 -0.000100827 6.69232e-05 0.00039203 
1000 2 3.60314 2.39807 0.339337 0 1 1 0.000271403 0.000344585 0.000827391 -0.00019661 -0.000360516 -0.000751736 0.000500766 -3.15676e-05 -7.52786e-05 0.5 -0.000507532 -0.00131081 -0.000540395 -0.000303 -0.000376837 -0.000191049 
103 1 3.28433 3.68334 0.698175 0 0 1 -4.35152e-05 -0.00022807 0.00130729 5.26996e-05 0.000160641 -0.00116262 0.000480795 -6.94307e-06 0.000231778 0.5 1.81829e-05 0.0001458 -0.000152611 9.03586e-05 0.000222289 -0.000170319 
622 2 0.93097 4.8038 0.084248 0 0 1 -0.000624534 0.000112628 0.000929065 0.000666456 -0.00014 -0.000757909 0.00077035 -0.000214719 0.000170711 0.5 2.32305e-05 0.000152322 -0.000982822 -0.000103971 -0.00034237 0.000199671 
506 2 0.743943 1.45185 1.18312 0 0 0 -0.000622717 -0.000887882 -0.00133112 0.000529137 0.000755984 0.00121638 0.000589163 -7.0065e-05 0.000380663 0.5 8.05696e-05 -0.00183484 -0.000205491 0.00210467 0.000563281 -0.00113947 
626 2 1.28856 3.41671 0.566335 0 0 1 -0.000705428 -0.000428212 -0.000264519 0.000649031 0.000362244 0.000328704 0.000176999 -0.000375601 0.000250189 0.5 -0.000822419 -0.00124092 -0.000262022 0.000567985 0.000709599 -0.0004364 
553 2 0.744021 0.0778196 1.56416 0 0 0 7.58384e-05 -0.000682424 -0.00191405 -0.000110323 0.000591742 0.00174376 4.90826e-05 -0.000297434 0.000442447 0.5 0.000166831 0.000158498 0.000137056 -6.67671e-05 0.000136222 -0.000227062 
135 1 1.54749 3.20534 1.67719 0 0 0 0.000333924 -0.00102222 -0.000222126 -0.000283687 0.000888592 0.000241509 0.000361818 -0.000657745 -3.07099e-05 0.5 0.000103467 -0.002831 -0.000423748 0.000677933 0.000329904 -0.000120243 
624 2 4.3245 4.92128 1.47084 0 0 1 0.00013685 -0.000522633 0.00124154 -8.99376e-05 0.000473966 -0.00113325 0.000305322 0.000157362 6.11731e-05 0.5 0.000154267 0.00012628 -0.000896205 4.80894e-05 -0.00027438 -0.000511831 
256 1 4.5871 1.36776 0.304938 0 0 0 0.000143328 0.000167021 0.000132755 -0.000121234 -0.000169406 -0.000134719 0.000604963 0.000139322 -0.000277072 0.5 -0.000436517 -0.000709016 -0.00162204 -0.000482125 0.000688561 -0.000521555 
260 1 3.31851 0.0702295 1.0256 0 0 0 3.37936e-05 -0.000271333 -0.000727035 -1.33275e-05 0.000209406 0.000644764 0.000315072 0.000263034 -0.00021353 0.5 -0.000579611 -0.00137356 -0.00132125 -0.000162509 0.000399137 -0.000747049 
616 2 3.19088 4.48118 1.50597 0 0 1 0.000288937 -0.00095755 0.00115179 -0.000232599 0.000804485 -0.00104994 -7.25427e-06 3.82485e-05 6.86294e-05 0.5 -0.000364591 -0.000150441 -0.000189648 0.000250869 0.000117508 -0.000121332 
106 1 1.7451 2.23622 1.52966 0 0 1 0.000207096 -0.00106479 -0.000115333 -0.000194341 0.000923149 0.000136957 0.000549274 -0.000250553 -0.000119976 0.5 1.25728e-05 -0.00154759 -0.00044077 0.000354348 0.00064122 -0.000427689 
157 1 1.38957 4.17948 1.83877 0 0 0 0.000185188 -0.00114329 0.000365835 -0.000126803 0.000992303 -0.00023464 0.000440543 0.0001636 6.02427e-05 0.5 -0.000707118 -0.00213041 -0.00234243 0.000380846 0.000845246 -0.000464407 
516 2 2.34691 0.890189 0.688267 0 0 0 2.70494e-05 0.000453773 -0.00054447 -4.25272e-05 -0.00045405 0.000512778 3.35401e-05 -0.000395011 -0.000137405 0.5 0.000124789 -0.000325606 -0.000122257 6.02372e-05 0.000551333 -0.00049998 
183 1 0.415555 4.58289 1.00308 0 0 0 -0.000609287 -0.00116333 0.00110314 0.000649223 0.00106072 -0.000842 0.000951073 0.000253526 0.000189134 0.5 0.000133267 -0.000100456 1.57652e-05 5.57543e-05 -9.19026e-05 2.28749e-05 
625 2 0.400293 3.91215 0.209838 0 0 1 -0.000621984 6.92104e-06 0.000173583 0.000598337 1.32341e-05 -2.54465e-05 0.00102652 -0.000110525 -0.000190698 0.5 -7.8086e-05 -2.17923e-05 -0.000271188 -6.23949e-05 -9.98859e-05 0.000146823 
91 1 2.22049 4.71744 1.6959 0 0 1 0.000252477 -0.00112365 0.000890701 -0.000182214 0.00095399 -0.000751483 0.000117222 -0.000209364 -5.73805e-05 0.5 -0.000537725 -0.000576113 -0.000206228 -0.000251513 0.000269991 -0.000115176 
257 1 4.94028 2.69169 1.70774 0 0 0 0.000258849 -0.000773575 0.000907848 -0.000228043 0.000662973 -0.000813309 0.000319556 4.62823e-05 -6.18343e-05 0.5 -0.000826546 -0.000704834 -0.00207794 1.66397e-06 -0.000502698 -0.00040734 
4 1 3.72168 1.12823 1.95718 0 0 0 0.000100426 -0.00075625 -9.28745e-05 -9.50208e-05 0.000636752 6.45701e-05 0.000413191 -4.96697e-05 -2.80203e-05 0.5 -0.000287655 -0.000417994 -0.0013181 -0.000497901 0.000485177 0.000710761 
522 2 2.58379 2.5086 2.00879 0 0 0 -9.13589e-05 -0.000953953 0.000397795 8.61905e-05 0.000807164 -0.000337512 0.000412808 -0.000253458 0.000121618 0.5 -0.000501606 -8.06845e-05 -0.000280933 0.0005117 0.000770849 2.14888e-05 
117 1 3.12735 1.31393 1.15372 0 1 0 0.000178678 -0.000270724 -0.00011954 -0.000155558 0.000198502 9.00362e-05 0.000515244 -0.000146431 -5.33177e-05 0.5 8.49409e-05 -0.000307665 0.000184789 -3.70741e-05 0.000361225 0.000173972 
511 2 1.08093 2.25014 0.230847 0 0 0 -0.000230353 0.000725066 -0.000389039 0.00021272 -0.000682809 0.000389776 0.000951045 -0.000113514 -0.000199757 0.5 -0.000427675 -0.0014557 -0.00378712 0.000368207 0.00165108 -0.00075926 
911 2 0.49207 0.563805 0.698629 1 0 0 -6.0844e-05 -0.000292675 -0.00175383 2.41903e-05 0.000238925 0.00159174 0.000125662 -0.000150354 -8.29944e-05 0.5 0.000349393 -0.00120974 3.92788e-05 -0.000115269 0.00015162 -0.000509021 
668 2 0.00215057 3.82085 1.93282 0 0 0 4.26255e-05 -0.00183258 0.000481297 -5.42702e-05 0.00160905 -0.000358669 0.000174113 0.00028192 -0.000101265 0.5 -0.00131714 -0.00368476 -0.0013987 0.00108698 -0.000161721 -0.000204194 
90 1 2.94006 4.5803 0.419428 0 0 1 -0.000333355 -0.000227474 0.00164847 0.000342683 0.000175692 -0.00145627 0.000329528 -0.00015518 0.000270413 0.5 -2.9862e-05 0.00125277 0.000365768 0.00068984 0.000567774 0.000542379 
734 2 4.13726 3.24492 0.374082 0 1 1 0.000262861 0.000311112 0.001472 -0.000219897 -0.000311166 -0.00131538 0.000569795 6.70962e-05 1.10693e-05 0.5 -0.000260234 -0.000387063 -0.000204394 -0.00015812 0.000261828 -9.99901e-05 
672 2 0.0680171 1.98647 1.69037 0 0 0 -0.000775426 -0.00148258 -0.000906346 0.000664671 0.00130019 0.000821417 0.000597367 -6.87959e-05 0.000215705 0.5 -0.00249334 -0.00398057 -0.00168186 0.00156899 0.00144938 7.64435e-05 
759 2 4.95849 2.03888 0.950439 0 0 0 0.000298453 -0.000338731 0.000533668 -0.000269809 0.000278688 -0.000482578 0.000552584 2.06774e-07 -0.000136 0.5 -0.000215682 -0.00117738 -0.000333958 -0.000383737 2.51533e-05 -0.00034688 
609 2 1.99634 4.76023 0.13616 0 0 1 -0.000216713 -0.000282959 0.00126145 0.000228161 0.000193728 -0.00109206 0.000298781 -0.000372082 0.000158716 0.5 -0.00222577 -0.00725582 -0.00121681 0.00187387 0.000923557 -0.00144075 
868 2 2.87002 3.00633 0.0283465 0 0 1 1.65346e-05 6.79623e-05 0.0009416 5.03246e-06 -0.000129233 -0.000819139 0.000515439 -0.000122874 0.000220004 0.5 -0.000504418 -0.0011155 -6.11529e-05 0.000803154 0.000145828 -5.38235e-05 
21 1 1.84581 0.357453 2.43185 0 0 0 -0.000239248 -0.0011708 -0.00119452 0.000193349 0.00102495 0.0010724 0.000252243 -0.000413027 0.000345634 0.5 8.64723e-05 0.000186496 -1.42044e-05 -2.79476e-05 0.00013611 -0.000263936 
682 2 2.73043 4.0841 2.77198 0 0 0 0.00025255 -0.000838354 0.000875249 -0.00021096 0.000737856 -0.000775024 5.97356e-05 -5.06989e-05 -4.35755e-05 0.5 -0.00131786 -0.00122023 -0.000517564 0.000314718 0.00110995 0.00104067 
907 2 0.98193 4.6259 2.63534 1 0 0 0.000284583 -0.00142454 0.000575193 -0.000250355 0.00122722 -0.000430352 5.50456e-05 -0.000196724 6.41005e-05 0.5 -0.00156333 -0.00219294 -0.00198934 0.00045679 0.0011319 -0.000766358 
144 1 1.68483 3.60142 2.81084 0 0 0 0.000410252 -0.00130559 4.32697e-05 -0.000368247 0.00112094 -2.14314e-05 1.49544e-05 -4.0594e-05 -0.000108692 0.5 -9.35977e-05 -0.000297353 -0.000263127 0.000232642 0.000250101 -0.000107697 
675 2 2.83081 4.73896 3.54485 0 0 0 0.000487755 -0.000794392 0.0009462 -0.000484566 0.000731734 -0.000844391 -0.000146355 -2.85314e-06 -0.000130074 0.5 1.00907e-05 0.00016173 0.000297019 0.00014354 3.60636e-05 0.000358737 
502 2 4.38942 1.31176 3.26924 0 0 0 0.000228281 -0.000908166 -3.32468e-05 -0.00022339 0.000840812 1.22216e-05 0.000173061 7.65311e-05 -0.000121792 0.5 -0.0010158 -0.00067649 -0.000594167 -0.000611499 0.00071324 0.00103393 
27 1 2.60893 0.301283 3.21103 0 0 0 0.00028479 -0.000907017 -0.000613489 -0.000292896 0.000795729 0.000533032 -4.38911e-05 -0.000140735 7.52546e-05 0.5 -0.00101647 -0.00109782 -0.00223709 0.000360785 0.000928735 0.000140959 
965 2 1.35546 3.65898 3.79905 1 0 0 0.000533202 -0.00138633 -0.000183014 -0.000497633 0.00116035 0.000184516 -0.000153714 0.000181322 -0.000275628 0.5 -0.000378618 -0.00100611 -0.00124991 0.000562978 -0.000294201 0.0006757 
61 1 1.66167 0.449331 3.51442 0 0 0 9.5658e-06 -0.00116638 -0.00150914 -5.89579e-05 0.000985976 0.00132241 -0.000125427 -0.000142218 0.000182833 0.5 -0.000804439 -2.07009e-05 -0.000139546 0.000111192 0.000583806 -6.58383e-05 
680 2 1.19022 2.78228 3.34705 0 0 0 -0.000182747 -0.00122858 -0.000222644 0.000143084 0.00102099 0.000216873 5.35025e-05 0.000135996 -5.98422e-05 0.5 -7.75484e-05 -0.000341938 -0.000553226 3.78668e-05 0.000300313 0.000179756 
251 1 4.71379 3.03443 3.89502 0 0 0 0.000730041 -0.00106226 0.000940427 -0.000664909 0.000984051 -0.000856123 0.000270249 0.000207095 -0.000328725 0.5 -0.000986749 -0.00030417 2.89195e-05 -0.000828466 0.000371558 0.000629851 
517 2 4.00879 2.8942 2.21776 0 0 0 0.000160748 -0.00102807 0.0007581 -0.000106754 0.000934438 -0.000669191 0.000107061 0.000183262 -0.00018365 0.5 2.66474e-05 -3.39877e-05 -0.000150216 -5.14553e-05 2.00163e-06 0.000122851 
6 1 3.42173 1.78028 2.73234 0 0 0 0.000131838 -0.000688271 0.000491609 -0.000139914 0.000604467 -0.000445644 0.000370334 -0.000151398 0.000132974 0.5 -0.00150219 -0.000125582 8.1147e-05 0.000248859 0.000726697 0.00018692 
519 2 4.43331 3.61456 3.03021 0 0 0 0.000238395 -0.000861263 0.00123575 -0.000210834 0.000808051 -0.00110777 0.000157221 0.000124597 -5.21664e-05 0.5 -2.32738e-05 0.000495381 0.000259573 -0.000366554 2.2866e-05 0.000172736 
509 2 1.93589 1.51667 3.62411 0 0 0 0.000552266 -0.000897222 -0.00132978 -0.00050828 0.000701982 0.00116839 -0.000185051 0.000434738 7.49704e-05 0.5 0.000147204 -0.000156474 -0.00120289 -0.000121968 0.000246355 0.000335683 
142 1 1.03557 1.94286 2.17045 0 0 0 -0.000309029 -0.00113552 -0.000724267 0.00024748 0.000988594 0.000660247 0.000485078 -4.95976e-06 0.000108282 0.5 -2.10284e-06 -0.000210917 -0.000374407 4.97286e-05 3.16728e-05 0.000417889 
941 2 0.192566 2.25946 2.77382 1 0 0 -0.000591782 -0.00175528 -0.000659298 0.000505235 0.00153658 0.000604204 0.000244461 3.13129e-05 5.35164e-05 0.5 -0.000265261 -0.000728681 -0.00118308 -3.49637e-05 0.000203431 0.000180254 
919 2 0.650311 4.31648 3.53359 1 0 0 0.000152814 -0.00156595 0.000381233 -0.000159548 0.00133771 -0.000272132 0.000205258 2.93636e-05 -0.000238125 0.5 -0.000782327 -0.00147275 -0.000857146 0.000780259 5.95153e-05 0.000475684 
95 1 3.53882 3.77869 2.26877 0 0 1 0.000344542 -0.00095076 0.0010905 -0.00029817 0.000852586 -0.000983936 0.000103118 -6.78389e-06 -3.94323e-05 0.5 -0.00112467 -0.000436626 -0.00125072 -2.0512e-05 0.00057796 -0.00024102 
458 1 1.55671 4.75426 3.86404 1 0 0 0.000327202 -0.00108461 0.00105569 -0.000295361 0.000953395 -0.000918151 -0.000315796 3.43074e-05 4.12646e-05 0.5 -0.000215362 -9.59903e-05 -0.000147299 0.000172457 -1.261e-05 -6.21894e-05 
41 1 1.14056 0.961089 2.01181 0 0 0 -0.000160208 -0.00103126 -0.00125268 0.000113524 0.000895648 0.00112971 0.000441467 -2.26768e-05 0.000189489 0.5 -0.00030973 -0.000196146 -0.000638562 0.00011692 0.000683379 -0.000473412 
814 2 0.271043 1.22831 3.40412 1 0 0 0.000159653 -0.00125647 -0.00109453 -0.000168761 0.00105289 0.000982399 0.000177785 -0.000126787 0.000497972 0.5 -0.0010534 -0.00104071 -0.00108224 0.000451703 0.000579394 0.00115981 
130 1 1.70537 2.64823 2.5005 0 0 0 -0.000313537 -0.00119484 -0.000307806 0.000280087 0.00101844 0.000300865 0.000357854 -0.00016287 -0.000177361 0.5 -0.000624263 -0.00132046 -0.0010931 0.000469414 0.000537931 0.000666997 
12 1 2.70241 1.09619 2.61154 0 0 0 0.000295752 -0.000711721 -0.000353447 -0.00026926 0.000611007 0.000292438 0.000218657 -0.00035332 0.000156244 0.5 -0.000978056 -0.00165888 -0.00122511 0.000355737 0.000760667 -9.42045e-05 
512 2 3.18605 2.03178 3.7873 0 0 0 0.000532491 -0.000187486 0.000244011 -0.000497801 0.000175124 -0.000185461 0.000284322 -0.000134903 0.000147955 0.5 -0.000242138 -0.000649106 -0.000400728 -6.16629e-06 7.58504e-05 0.00061741 
151 1 2.47914 3.3011 3.34098 0 0 0 0.000168223 -0.00104082 0.000560384 -0.000136698 0.000924434 -0.000486548 -3.27373e-06 -0.000140326 5.51446e-05 0.5 -9.25273e-06 -0.00204154 -0.00152103 -7.84153e-05 0.000768611 0.000741493 
667 2 0.284437 1.32167 2.40774 0 0 0 -0.000169375 -0.00144396 -0.0011009 0.000121825 0.00126354 0.000992672 0.000290297 9.39807e-05 0.000286221 0.5 -0.000507463 -0.00227154 -0.00164683 4.30832e-05 3.75712e-05 0.000367602 
38 1 3.79018 0.738342 3.87297 0 0 0 0.000439104 -0.000357782 -0.000219964 -0.000413487 0.000351252 0.00019463 -0.000319188 -5.51601e-05 -9.1711e-05 0.5 -0.00116805 -0.000467901 -0.0025967 -0.00127265 0.000859853 0.0018431 
936 2 0.32021 3.37029 3.50687 1 0 0 -0.000480381 -0.0013205 -0.000102708 0.000391778 0.00112396 0.000133003 0.000224376 -0.000272476 -0.000157235 0.5 6.73855e-05 -0.00157998 -0.000583066 -2.49133e-05 0.000721998 0.00107389 
531 2 4.80019 0.808932 2.48031 0 0 0 -8.7241e-05 -0.00125409 -4.92136e-05 5.53718e-05 0.00112239 3.26221e-05 9.93307e-05 6.66253e-05 -0.000199309 0.5 -0.000307525 -5.2598e-05 -0.000694902 -0.000382417 -0.000543474 -0.000380808 
527 2 4.02992 4.31561 3.61827 0 0 0 0.000587249 -0.000780015 0.00138442 -0.000559855 0.000725258 -0.00125252 -0.000108744 2.1485e-05 4.19183e-05 0.5 -0.00139928 -0.000348304 4.01647e-05 -0.000808363 0.000452273 0.000646479 
383 1 4.36286 4.3449 2.28824 0 0 1 0.000119031 -0.00062514 0.00117494 -0.000102184 0.000569813 -0.00106968 9.53159e-05 1.18794e-05 6.59196e-05 0.5 -0.000942282 -0.000189127 0.000317581 0.000237645 -0.000103189 -0.000287229 
992 2 0.695532 0.44011 3.85346 1 1 0 0.000301779 -0.0012557 -0.00131219 -0.000317039 0.00103318 0.00116488 -8.88796e-05 0.000261703 0.000181561 0.5 -0.000844818 -0.00191245 -0.000315592 0.000584843 -0.00024791 0.000914146 
521 2 4.93589 4.5283 3.24965 0 0 0 0.000476509 -0.000602499 0.00124203 -0.000460373 0.000560414 -0.00113033 -8.24163e-05 0.000170975 0.000117342 0.5 -0.000404763 -0.000349141 -0.000528432 -0.000266409 2.40758e-05 0.000816334 
136 1 1.88506 1.67221 2.62335 0 0 0 -0.00010802 -0.0012671 -0.00117973 6.90874e-05 0.00107406 0.00104543 5.85833e-05 0.000196781 0.000156097 0.5 -0.00110584 -0.00141762 -0.00100432 0.000782819 0.00011293 0.000383762 
540 2 4.51118 0.179157 3.4151 0 0 0 0.000212444 -0.000997098 -0.000151067 -0.000207356 0.000927584 0.000122409 -0.000399741 0.000115629 -0.000216493 0.5 0.000338999 0.000268262 4.90741e-05 -0.000313956 -0.000170507 0.000258566 
510 2 3.85494 2.56893 3.17033 0 0 0 0.000202863 -0.000865576 0.000759151 -0.000215906 0.000774313 -0.000691457 8.32315e-05 3.85578e-05 -1.74721e-05 0.5 0.000582074 0.000574026 -0.000283243 -0.000109037 8.91435e-05 0.000434146 
19 1 4.36546 1.84764 2.40854 0 0 0 0.000104311 -0.000258229 0.00049959 -0.000124828 0.000231686 -0.000477883 0.000311914 4.53584e-05 -0.000120018 0.5 -0.00198284 -5.66524e-05 -0.000932025 7.65015e-05 0.000914284 0.000150838 
543 2 1.07316 1.78787 3.19558 0 0 0 0.000185915 -0.00117686 -0.000780649 -0.000186382 0.000973546 0.000702773 0.000267619 0.000276714 0.000144306 0.5 -0.000263068 -0.000257755 -0.000163607 -0.000347102 0.000318302 0.000219204 
773 2 4.78763 2.22826 3.30724 0 0 0 0.000210892 -0.000929909 0.000676901 -0.000212729 0.000861843 -0.000616898 0.000151241 0.000190863 -0.000123963 0.5 -0.000292316 -0.00145819 -0.00277529 -0.000509393 0.000994213 0.00246834 
555 2 2.23885 2.50619 3.8981 0 0 0 0.000392521 -0.0010217 0.000684857 -0.000367703 0.000921143 -0.000591359 -4.97482e-05 -1.4075e-05 2.57458e-05 0.5 -0.000118765 9.53554e-05 0.000180138 -0.000140866 0.000285021 0.000630299 
429 1 0.307146 2.40196 3.75696 1 0 0 -0.000345162 -0.00146063 -0.000730521 0.000278135 0.00124415 0.000672774 0.000132687 7.25812e-05 0.000321231 0.5 -0.000446814 -0.00254461 -0.00156958 0.000606754 -0.000376395 0.00147786 
316 1 0.889815 0.513707 2.87075 1 0 0 -0.000111895 -0.00136253 -0.00141444 3.39182e-05 0.00118173 0.00125774 8.14734e-05 1.40305e-05 0.000213545 0.5 0.000197708 -0.000241303 3.2295e-05 0.000126739 0.000104399 0.00021615 
503 2 3.61678 0.769315 2.88633 0 0 0 0.000183536 -0.00087836 -0.000155157 -0.000169752 0.000782574 0.000133622 -2.80245e-06 3.24593e-05 2.30613e-05 0.5 0.00010566 0.000240279 -0.00162221 -5.58219e-06 1.29651e-05 0.000377987 
896 2 0.702036 3.66589 2.63006 1 0 0 0.0003663 -0.00144672 0.000242554 -0.000335049 0.00125068 -0.000157012 0.000139658 2.97611e-05 -0.000120023 0.5 -0.000447083 -0.000996719 -0.00152771 0.000107004 -0.00020048 0.000249345 
690 2 1.93663 4.67156 2.92938 0 0 0 0.000135978 -0.0010278 0.000996673 -0.000104593 0.000902224 -0.000854346 -4.4368e-05 -5.96696e-05 0.000144109 0.5 -0.00114359 -0.000696984 -0.000139048 0.000699205 0.000108179 -0.00018118 
641 2 3.45936 3.50094 3.22659 0 0 0 0.000204968 -0.000772506 0.00112464 -0.000179029 0.000708983 -0.00101086 -8.06981e-05 7.22549e-06 7.1553e-05 0.5 0.000397007 0.000361409 -0.000488331 -8.10478e-05 -0.000139908 0.000799694 
528 2 3.34248 4.80269 2.44179 0 0 0 0.000452741 -0.00090365 0.00110373 -0.000403014 0.000790849 -0.00101508 0.000107768 6.42837e-05 -8.60499e-06 0.5 -0.000202558 -0.000408625 -0.000459396 -0.00034337 5.58281e-05 9.49166e-05 
225 1 2.66668 2.38043 2.99769 0 0 1 -0.000159608 -0.00103074 0.000395589 0.000127876 0.000906574 -0.000330283 -4.35386e-05 0.000194495 0.000202852 0.5 -0.000398505 -0.00114021 2.6486e-05 0.000708149 -9.97198e-05 -0.000186441 
119 1 0.614829 2.84414 2.06692 0 0 0 -0.00057764 -0.00117908 -2.21375e-06 0.000498467 0.00103439 3.09031e-05 0.000458729 4.73376e-05 -2.18253e-05 0.5 0.000282996 -0.000851593 -0.0018889 0.000106467 0.000674409 -0.000274292 
200 1 2.465 0.208811 4.19629 0 1 0 0.000856246 -0.000522012 -0.000493446 -0.000797492 0.000467108 0.000427831 -0.000440191 -0.000263053 0.000390783 0.5 -0.000998233 -0.000611591 -0.0017024 5.55499e-06 0.000694573 0.000393052 
114 1 4.70687 1.00414 4.17135 0 0 0 0.000409283 -0.000548934 4.24997e-05 -0.00038789 0.000536171 -4.94042e-05 -0.00011097 -5.96068e-05 -0.00020758 0.5 -0.000503808 0.000104813 0.000208296 -8.41666e-05 -0.000279552 -0.00016058 
820 2 1.30989 2.2938 4.21138 1 0 0 0.00011735 -0.000873031 -6.31565e-05 -0.000106862 0.000715385 7.85409e-05 -0.000225582 -0.000196674 0.000209524 0.5 -0.000348763 9.28595e-05 -0.000418965 0.000483464 0.000541469 0.000627911 
47 1 4.65526 1.58221 5.43537 0 0 0 0.00085777 -0.000423766 0.000281193 -0.000796388 0.000447446 -0.000253792 7.85052e-05 0.000229163 2.81286e-05 0.5 -0.000819948 -0.0011184 -0.000491058 -0.000334137 -0.000516145 0.000769325 
824 2 1.64899 3.83164 5.7918 1 0 0 0.000168659 0.000329626 0.000957181 -0.000176342 -0.000267419 -0.000827527 -0.000540614 -2.45015e-06 -0.000236244 0.5 -0.000281176 -0.000214558 -0.000868785 -0.000161664 5.696e-05 0.000310414 
172 1 3.44239 0.338594 4.72105 0 1 0 0.000544618 0.000348467 0.000157239 -0.000522294 -0.000269347 -0.000143833 -0.000401115 -0.000104973 3.93561e-05 0.5 -0.0010634 -0.00107207 -0.00336623 -0.000944216 0.000888701 0.00145694 
718 2 0.202236 2.03678 5.51281 0 1 0 9.78594e-05 -1.41581e-06 -5.47287e-05 -0.000102829 -7.31224e-05 8.51589e-05 -0.00032003 -0.000153343 9.34935e-05 0.5 -0.0012231 -0.000212573 -0.000823972 0.000657995 -0.000703248 0.00181931 
505 2 0.484515 3.5012 5.83344 0 0 -1 -0.000129034 0.00107715 0.000664764 0.000100711 -0.00102596 -0.000574434 5.86745e-05 -0.000263486 0.000373707 0.5 -0.00014226 -0.00283043 -0.00136096 4.51785e-07 -8.32275e-06 0.00221551 
524 2 3.99436 2.73476 5.70573 0 0 0 0.00172342 0.000667585 0.00178737 -0.00155643 -0.000506185 -0.00158505 -0.000429457 0.00113608 0.000674264 0.5 2.16981e-06 0.000313061 0.000270185 -0.000190533 -0.000221882 0.000180498 
839 2 0.579154 1.61554 4.31153 1 0 0 0.000403373 -0.00131844 -0.000894687 -0.000369562 0.00111699 0.000808371 -0.000146311 -3.02258e-05 0.000431023 0.5 -0.000247253 -0.0019322 -0.00115749 0.000943427 -1.90821e-05 0.00191979 
937 2 2.44339 3.38705 4.33688 1 0 0 0.000392972 -0.000881597 0.00054053 -0.000370221 0.000804527 -0.00047233 -0.000244677 -0.000234871 9.23606e-05 0.5 -0.000520891 6.60762e-05 -0.00147772 0.000118559 0.000590179 0.000855686 
811 2 2.60618 3.94623 5.5246 1 0 0 9.60136e-05 0.000101758 0.000607883 -0.000116682 -4.86001e-05 -0.000528813 -0.000368166 -0.000349907 -3.25134e-05 0.5 -0.000236622 -0.000986289 -0.000313788 -0.000422401 -0.000105311 0.000856022 
827 2 1.52073 3.1819 4.6634 1 0 0 0.000248013 -0.00089679 0.000121999 -0.000218052 0.000741597 -8.28601e-05 -0.000441885 -0.000280616 -0.000242626 0.5 -0.000563758 -0.000316454 -0.00140279 -0.000193718 0.000378172 0.000951424 
149 1 4.0554 3.93284 4.61811 0 0 0 0.000432106 -0.000223051 0.00119892 -0.000425495 0.000255307 -0.00107481 -2.56089e-05 3.63481e-05 0.000182487 0.5 7.57436e-05 -0.000266496 0.000514925 0.000910333 -0.000387932 0.000380092 
925 2 0.622934 3.59932 4.523 1 0 0 0.000535722 -0.00037033 -0.000152893 -0.000489463 0.000241698 0.000168553 -0.000383929 7.63233e-05 -0.000165488 0.5 -0.00026452 -0.000589159 -0.000226932 -1.39237e-05 -0.000203272 0.000354703 
168 1 3.33502 4.6036 5.33085 0 0 0 0.00037582 -3.55649e-05 0.00126524 -0.000384351 8.54549e-05 -0.0011475 -0.000188025 -0.000231341 0.000192507 0.5 -0.00102173 -0.000878214 -0.00101192 -6.13111e-05 -0.00023691 0.0007135 
928 2 1.57457 4.40875 4.97822 1 0 0 0.000230363 5.63009e-05 0.000771886 -0.000213167 -8.58393e-06 -0.00065348 -0.000284332 -5.52821e-05 -0.00037064 0.5 -0.000704949 -0.000776448 -0.000700288 -0.00049705 0.000320367 0.000517072 
148 1 3.9397 3.74192 5.74473 0 0 0 0.0002729 0.000630682 0.0016574 -0.000299951 -0.000478173 -0.00149235 -0.000339584 -0.000192312 0.000705255 0.5 0.000283008 0.00085133 0.000629398 0.000426824 0.000463003 0.000429524 
914 2 4.69247 4.38504 5.24333 0 0 0 -1.08034e-05 -7.43004e-05 0.00155325 -4.17881e-05 0.000160691 -0.00140719 -0.000490126 -0.000386953 -0.000376905 0.5 1.69654e-05 0.000180575 0.000386029 -2.69409e-05 0.000165022 0.000249261 
23 1 2.87754 1.11869 4.05753 0 0 0 0.000364212 -0.000381458 -0.000644232 -0.000352628 0.000346683 0.000594191 3.75924e-05 -0.000191699 5.43087e-05 0.5 -0.000876621 -0.000881993 -0.000615758 -0.000478558 0.000476421 0.000466392 
594 2 2.0556 1.97068 4.80229 0 0 0 0.000446223 0.000375534 0.000146359 -0.000402643 -0.000348464 -8.229e-05 0.000153803 -0.00016258 0.000415571 0.5 -1.90606e-05 -0.000916841 -0.000154172 0.000439295 -0.000212331 0.000503519 
539 2 3.78424 1.04031 5.46879 0 0 0 0.000552875 0.000677305 0.000560339 -0.000516915 -0.000550524 -0.000502567 -0.000209858 0.000311019 -0.000135527 0.5 -0.000275218 -0.00295071 -0.00122383 -0.00117682 -0.000745155 0.00235894 
730 2 0.4616 1.11577 5.16968 0 1 0 0.000301096 -8.74965e-05 -0.000191258 -0.000289265 1.42002e-05 0.000175378 -0.000189004 -2.35275e-05 0.000469149 0.5 0.000752596 -0.000172322 -0.000688166 1.66468e-05 -0.000178374 0.00136138 
689 2 3.51918 0.103263 5.69615 0 1 0 0.000274794 0.000639483 8.42323e-05 -0.000257214 -0.000519719 -7.70968e-05 -0.00014523 -0.000286716 -0.000153555 0.5 -0.00129996 -0.00380229 -0.00331907 -0.000538285 0.000135575 0.00278887 
450 1 0.618688 4.79902 4.46873 1 0 0 0.000986081 -0.000512728 0.000244364 -0.000847798 0.000449694 -0.000140334 -0.000823099 -0.000182938 7.61635e-05 0.5 -0.000463459 -0.00124729 -0.00254376 3.23333e-05 -0.000406031 0.00146257 
549 2 4.49949 0.500881 5.0142 0 0 0 -5.71836e-05 -4.18975e-05 0.000260511 2.78004e-05 9.36559e-05 -0.000238482 -0.000145595 0.000161643 -0.000402945 0.5 0.000840532 0.0012122 0.000857365 -0.000546396 -0.000473431 0.000452134 
591 2 1.44612 1.12546 4.404 0 0 0 0.000758511 -0.000713686 -0.0011234 -0.000692131 0.000566126 0.000997775 -0.000271 0.000178864 0.000170709 0.5 -0.000512121 -0.000916655 -0.000740651 0.000251866 0.000101099 0.000721244 
243 1 1.20283 1.83719 5.34399 0 1 0 7.72762e-05 0.000449926 -0.000347551 -8.4545e-05 -0.000454512 0.000336759 -0.000135014 -0.00014288 0.00027017 0.5 -0.000383154 -0.000484937 -0.00026447 0.000255799 -1.15795e-06 0.000652704 
646 2 3.74102 3.12374 4.10886 0 0 0 0.000832955 -0.000342421 0.00110838 -0.000751324 0.000345323 -0.000984239 -3.24999e-05 9.45863e-05 -6.33809e-05 0.5 -0.000657009 -0.00203466 -0.00147943 0.000334351 0.000122682 0.00136708 