ITEM: TIMESTEP
233500
ITEM: NUMBER OF ATOMS
1000
ITEM: BOX BOUNDS xy xz yz pp pp pp
0.0000000000000000e+00 1.0000000000000000e+01 0.0000000000000000e+00
0.0000000000000000e+00 1.0000000000000000e+01 0.0000000000000000e+00
0.0000000000000000e+00 1.0000000000000000e+01 0.0000000000000000e+00
ITEM: ATOMS id type x y z ix iy iz vx vy vz fx fy fz omegax omegay omegaz radius c_2[1] c_2[2] c_2[3] c_2[4] c_2[5] c_2[6] 
120 1 3.15852 1.54146 0.0722925 0 1 0 -3.45886e-12 1.46976e-11 8.99541e-12 4.98856e-12 -1.41077e-11 -7.60091e-12 7.01302e-12 2.72694e-12 -5.43003e-12 0.5 -4.9959e-12 -3.27523e-11 -3.42698e-12 -4.27748e-12 -2.38922e-12 -1.06706e-11 
525 2 2.11627 1.23431 1.69988 0 0 0 -1.57926e-11 -3.58644e-11 -2.08369e-11 1.29797e-11 3.12098e-11 1.88894e-11 -2.88413e-12 3.93722e-12 1.23703e-11 0.5 1.08668e-12 -2.13696e-12 1.89491e-12 2.85272e-12 6.63175e-13 -9.4736e-14 
371 1 4.95931 3.68326 1.58374 0 0 1 7.81713e-12 -1.03828e-11 1.86038e-11 -3.25933e-12 1.09543e-11 -1.76302e-11 1.28614e-12 -1.44177e-12 6.4233e-13 0.5 -5.08295e-12 -1.80037e-11 1.18335e-11 -1.16289e-12 -3.48648e-12 1.56175e-12 
18 1 1.98117 2.69195 0.532518 0 0 0 -8.19546e-12 -3.80905e-13 2.37474e-11 9.08515e-12 2.87284e-12 -1.96472e-11 1.58129e-11 -5.37113e-12 5.33417e-12 0.5 -1.52367e-11 -3.00433e-11 -1.82134e-11 2.38951e-11 8.36059e-12 -1.27591e-11 
868 2 2.87004 3.00634 0.0289121 0 0 1 6.41974e-12 -3.55502e-12 1.87827e-11 -3.42444e-12 -6.05234e-12 -1.7673e-11 1.256e-11 -2.20406e-12 5.63054e-12 0.5 -2.51017e-11 -3.89012e-11 -9.82739e-12 2.80897e-11 -2.99403e-12 3.15015e-12 
25 1 1.41548 0.708705 1.0832 0 0 0 -6.10861e-12 -1.41496e-11 -1.98547e-11 7.76642e-13 1.42009e-11 1.72507e-11 1.00726e-11 -2.47491e-12 7.54761e-12 0.5 -5.08704e-12 -4.94118e-11 -2.68125e-11 2.01286e-11 1.36039e-11 -2.33999e-11 
378 1 4.61919 2.40719 0.0725816 0 0 1 2.43231e-12 1.17516e-11 1.37208e-11 -1.91015e-12 -1.11346e-11 -1.33883e-11 1.35781e-11 3.20548e-12 -2.64579e-12 0.5 -7.94464e-12 -2.25226e-11 -1.11015e-11 1.68741e-12 -5.03027e-13 -1.53912e-11 
8 1 3.44143 2.06796 1.74253 0 0 0 -1.40119e-12 -1.47773e-11 4.61539e-12 3.91034e-12 1.26729e-11 -2.85929e-12 1.22798e-11 -2.74226e-12 3.11954e-12 0.5 9.11382e-12 4.85586e-12 7.3485e-12 3.5877e-12 -4.8894e-12 4.27903e-12 
629 2 4.07713 2.6156 1.19812 0 0 1 3.38819e-12 -6.2001e-12 1.86117e-11 -2.91387e-12 7.48797e-12 -1.56087e-11 1.31342e-11 -4.57163e-12 1.02841e-12 0.5 -2.27375e-11 -4.93423e-12 -1.92893e-11 4.56859e-12 -1.67593e-11 -9.62497e-12 
5 1 2.34651 3.9005 1.05345 0 0 0 -1.23125e-12 -2.56934e-11 2.62789e-11 1.29051e-12 2.19401e-11 -2.26443e-11 1.33024e-12 1.62643e-12 5.33247e-12 0.5 -1.18915e-12 -2.48194e-12 -3.44198e-12 3.33415e-12 3.33281e-13 -5.76791e-13 
650 2 0.459129 3.43666 1.12967 0 0 0 -1.68376e-11 -2.98252e-11 7.61964e-12 1.60848e-11 2.71487e-11 -7.24137e-12 1.67935e-11 1.00687e-12 -9.99693e-14 0.5 -2.1376e-11 -2.49618e-11 -2.67331e-11 1.88033e-11 1.80162e-11 -1.22667e-11 
14 1 3.29515 3.13364 1.54473 0 0 0 5.36274e-13 -1.19158e-11 2.01705e-11 1.34871e-12 1.33488e-11 -1.34624e-11 3.20433e-12 2.51781e-12 2.26205e-12 0.5 -1.77127e-12 -5.25303e-12 -1.34557e-11 1.10363e-11 -2.54624e-12 -3.26375e-12 
264 1 3.99643 3.86789 1.37953 0 0 0 7.29389e-12 -1.32135e-11 1.90948e-11 -1.72067e-12 1.24354e-11 -2.43691e-11 5.37089e-12 5.9179e-13 1.55626e-12 0.5 -6.58447e-12 1.40575e-12 -1.40741e-11 9.19565e-12 -9.49817e-13 -3.01495e-12 
223 1 0.747634 2.47805 1.14565 0 0 1 -1.85127e-11 -2.99117e-11 7.77128e-12 1.47024e-11 2.63849e-11 9.7759e-14 1.56926e-11 -6.33774e-12 2.43862e-12 0.5 -9.12849e-12 -2.50871e-11 -5.27761e-11 9.63826e-12 2.2114e-11 -1.38838e-11 
364 1 4.4227 4.23693 0.53984 0 0 1 5.80692e-12 8.14233e-12 2.70336e-11 -1.0214e-11 -5.52227e-12 -3.26876e-11 7.66104e-12 -1.96289e-12 2.88816e-12 0.5 3.58441e-12 4.71409e-12 6.23298e-12 1.35036e-12 4.2862e-12 -5.41587e-12 
107 1 1.66076 1.61825 0.747451 0 0 1 -1.52303e-11 -7.10774e-12 -7.2389e-12 4.43597e-12 1.02982e-11 9.4599e-12 1.59109e-11 -1.17007e-12 2.59345e-12 0.5 2.0132e-12 -2.29486e-11 -2.27699e-11 8.43548e-12 -2.20952e-12 -1.3829e-11 
529 2 2.67265 2.1996 1.06195 0 0 0 -2.21286e-12 -9.85967e-12 6.83343e-12 3.70264e-12 9.96391e-12 -6.6498e-12 1.46421e-11 1.42339e-12 4.52139e-12 0.5 -5.86361e-12 -1.24778e-11 -1.4283e-11 9.37188e-12 -7.06096e-12 3.76018e-12 
515 2 4.38643 0.435908 1.64385 0 0 0 3.06202e-12 -1.53893e-11 -1.35168e-11 -1.44411e-11 6.36073e-12 2.17516e-11 9.0715e-12 -1.66397e-12 2.92325e-12 0.5 -1.04188e-11 -1.46095e-11 -3.30744e-11 -2.67833e-11 4.45259e-12 1.03857e-11 
244 1 4.11373 0.570462 0.682724 0 1 1 4.44151e-12 7.20679e-12 -9.27845e-12 -3.22046e-12 -9.3689e-12 4.91436e-12 1.23964e-11 4.52473e-12 1.29927e-12 0.5 -1.02497e-11 -7.79204e-12 -2.95607e-11 -3.62748e-12 3.15658e-12 5.99399e-12 
20 1 2.90179 0.570818 1.78382 0 0 0 5.20206e-13 -1.48924e-11 -1.51219e-11 -3.80507e-16 7.6205e-12 4.04502e-12 6.17674e-12 -3.48228e-12 4.1419e-12 0.5 -8.96389e-12 -2.68303e-11 -5.06676e-11 1.6115e-11 1.93121e-11 -3.34903e-11 
280 1 4.09077 1.582 1.14626 0 0 0 1.37701e-12 -2.78442e-12 -2.34265e-12 8.07609e-13 6.37e-12 -2.71326e-12 1.42494e-11 -1.4631e-12 1.26622e-12 0.5 -2.19962e-12 -8.49788e-12 -2.35952e-11 1.91446e-12 1.25989e-11 7.86601e-12 
620 2 1.3946 4.37082 0.857654 0 0 1 4.01041e-12 -1.77333e-11 2.27693e-11 -1.01536e-12 1.64147e-11 -3.51421e-11 1.06896e-11 7.3695e-12 -7.0664e-12 0.5 -8.01624e-12 -2.83213e-11 -6.04839e-11 1.47862e-12 -6.14871e-12 1.0194e-11 
1000 2 3.60332 2.39824 0.339819 0 1 1 1.43397e-11 3.86657e-12 1.19145e-11 -8.31819e-12 -6.32876e-12 -1.01869e-11 9.30552e-12 -1.04599e-12 3.56071e-13 0.5 -1.9647e-11 -2.84506e-11 -2.01669e-11 2.62874e-12 -1.67093e-11 -3.38759e-12 
103 1 3.28431 3.68319 0.698947 0 0 1 1.41715e-12 -7.70137e-12 2.40908e-11 -2.0808e-12 3.2166e-12 -2.19428e-11 7.29167e-12 1.19581e-13 3.99513e-12 0.5 -1.07115e-11 -1.33102e-11 -1.33776e-11 8.95407e-12 -1.97685e-12 1.32186e-12 
622 2 0.930663 4.80385 0.0848388 0 0 1 3.98507e-12 -1.71655e-12 3.2254e-11 -5.874e-12 2.3136e-12 -3.96495e-11 1.39896e-11 -6.44972e-13 -3.08883e-12 0.5 -1.09991e-12 3.92718e-12 -2.32125e-11 -1.44493e-12 -1.16898e-11 7.47255e-12 
506 2 0.74356 1.4513 1.18235 0 0 0 -1.99724e-11 -3.06219e-11 -1.64785e-11 1.92886e-11 3.00311e-11 1.55927e-11 1.19516e-11 -1.82665e-12 8.85088e-12 0.5 7.26034e-12 -3.64573e-11 -7.79115e-12 3.98414e-11 7.18963e-12 -2.26766e-11 
626 2 1.28815 3.41645 0.566227 0 0 1 -1.68894e-11 -9.90792e-12 7.94986e-12 1.32521e-11 5.75767e-12 -6.11871e-12 9.14099e-12 -3.83018e-12 1.13138e-12 0.5 -2.06349e-11 -3.17551e-11 -5.44897e-12 1.78224e-11 1.28806e-11 -9.2708e-12 
553 2 0.744043 0.0774004 1.56305 0 0 0 -4.51699e-12 -2.18123e-11 -2.57273e-11 1.22921e-12 1.89089e-11 2.45768e-11 1.59279e-12 -5.45017e-12 9.7016e-12 0.5 5.66845e-12 2.89986e-12 5.12587e-12 -9.9195e-13 -1.09917e-13 -4.47935e-12 
135 1 1.54769 3.20472 1.67709 0 0 0 4.70257e-12 -2.71027e-11 4.26176e-12 -3.62283e-12 2.31021e-11 -6.99493e-12 8.63916e-12 -1.10911e-11 -3.56686e-12 0.5 8.98145e-13 -6.27896e-11 -1.28006e-11 1.5322e-11 5.15962e-12 -3.69456e-13 
624 2 4.32461 4.92098 1.47156 0 0 1 1.48033e-11 -5.21895e-13 1.87994e-11 -1.32209e-11 -6.1906e-14 -1.39439e-11 5.56702e-12 -1.33116e-12 4.32344e-12 0.5 5.62271e-12 4.69543e-12 -1.12822e-11 6.43246e-12 -1.07152e-11 -1.11038e-11 
256 1 4.58719 1.36786 0.305 0 0 0 3.55103e-12 1.01079e-11 -4.07126e-12 -9.04956e-12 -3.8516e-12 -4.60043e-12 1.32067e-11 2.40759e-12 -2.82205e-12 0.5 -7.98455e-12 -1.84442e-11 -2.72646e-11 -9.52912e-12 -5.10035e-12 -1.67685e-11 
260 1 3.31854 0.0700552 1.02517 0 0 0 7.69702e-12 -5.51558e-12 -1.65198e-11 1.35366e-11 -2.73721e-12 1.5567e-11 5.4141e-12 7.24451e-12 1.71689e-12 0.5 -2.02045e-11 -2.64068e-11 -3.58587e-11 -2.50002e-12 1.11307e-12 -1.9736e-11 
616 2 3.19106 4.4806 1.50664 0 0 1 4.5623e-12 -2.03974e-11 1.76692e-11 -2.85393e-12 1.91291e-11 -9.96091e-12 -1.05449e-12 2.70121e-12 4.53632e-12 0.5 -9.94676e-12 -3.76667e-12 -2.00955e-12 6.06356e-12 1.02431e-12 -1.73755e-12 
106 1 1.74522 2.23558 1.52961 0 0 1 -1.75992e-12 -2.84808e-11 7.69464e-12 3.34232e-12 2.36947e-11 -1.72876e-12 1.08117e-11 -3.29122e-12 -2.54863e-12 0.5 5.97858e-12 -3.47388e-11 -1.53327e-11 8.49511e-12 7.67494e-12 -1.53579e-11 
157 1 1.3897 4.17879 1.83903 0 0 0 8.81452e-12 -2.98489e-11 2.10936e-11 -2.53489e-12 2.28034e-11 1.44718e-12 1.12054e-11 1.40057e-12 1.76058e-12 0.5 -1.24682e-11 -4.7159e-11 -6.49666e-11 1.30625e-11 1.61723e-11 -8.9346e-12 
516 2 2.34691 0.89043 0.68796 0 0 0 -4.32051e-12 3.71063e-12 -5.11896e-12 3.47861e-12 1.08986e-11 7.71928e-12 1.16355e-12 -1.78786e-12 2.14271e-12 0.5 -6.82566e-12 -4.23336e-11 -5.84909e-12 1.0554e-11 4.30598e-12 -1.79417e-11 
183 1 0.415258 4.58221 1.00381 0 0 0 6.14591e-12 -2.4859e-11 4.78933e-11 -3.96679e-12 2.11368e-11 -4.10861e-11 2.13001e-11 1.20447e-11 1.05574e-12 0.5 3.1046e-13 -1.20571e-12 2.80347e-12 2.10249e-12 -3.52271e-12 2.68699e-12 
625 2 0.399951 3.91216 0.210014 0 0 1 -2.65765e-12 8.13263e-13 2.53145e-11 2.27621e-12 -9.22454e-13 -2.13061e-11 2.01522e-11 -2.41504e-12 -9.65314e-12 0.5 -7.37061e-13 7.14188e-13 -3.41853e-12 -6.9261e-13 -1.61832e-12 3.59365e-12 
91 1 2.22066 4.71676 1.69645 0 0 1 6.30964e-12 -2.52444e-11 2.46341e-11 -5.23895e-12 2.19907e-11 -2.08382e-11 -4.30009e-14 2.43488e-12 1.96355e-12 0.5 -1.04437e-11 -4.41401e-12 -2.55763e-12 -7.2179e-13 7.17553e-13 -2.58028e-12 
257 1 4.94043 2.69123 1.70827 0 0 0 3.59329e-12 -1.05618e-11 1.52813e-11 -1.52655e-12 9.84734e-12 -1.75656e-11 5.10996e-12 -5.3973e-13 -2.34043e-12 0.5 -2.53993e-11 -1.72629e-11 -4.46337e-11 1.85901e-12 -1.57006e-11 -1.02567e-11 
4 1 3.72174 1.12777 1.95711 0 0 0 1.42756e-12 -1.73782e-11 -1.0217e-11 -1.20656e-12 1.16841e-11 6.02404e-12 9.19746e-12 -7.46008e-13 1.31696e-12 0.5 -1.63447e-12 -3.72891e-12 -4.24385e-11 -6.20118e-12 4.20849e-12 2.02503e-11 
609 2 1.99624 4.76004 0.136921 0 0 1 3.77799e-12 -1.33207e-11 2.93549e-11 2.04108e-11 -1.39581e-12 -2.0791e-11 3.95998e-12 -1.60026e-12 5.59501e-12 0.5 -5.68806e-11 -2.04193e-10 -2.34885e-11 5.89072e-11 1.08061e-11 -4.10504e-11 
117 1 3.12746 1.31374 1.15363 0 1 0 2.86476e-12 -8.41881e-12 -6.62637e-12 8.29651e-13 1.03026e-11 7.01753e-12 1.16589e-11 7.80406e-13 1.6758e-12 0.5 -2.67733e-12 -1.0217e-11 -6.29581e-12 3.98713e-12 -6.42486e-12 4.24486e-12 
511 2 1.08079 2.25054 0.230642 0 0 0 -6.44612e-12 8.195e-12 1.52626e-12 -2.38934e-13 -3.37698e-12 6.61151e-14 2.00789e-11 -5.72624e-12 -3.98758e-12 0.5 -1.22945e-11 -2.73698e-11 -5.29958e-11 3.36707e-12 2.00553e-11 -1.43042e-11 
911 2 0.492018 0.563612 0.697612 1 0 0 -5.30103e-12 -1.65599e-11 -2.45369e-11 3.40369e-12 -6.28411e-12 2.01123e-11 2.6769e-12 -3.86528e-12 2.18312e-12 0.5 5.5672e-12 -2.43637e-11 -1.34022e-13 -4.17461e-12 1.66241e-12 -1.23294e-11 
668 2 0.00216515 3.81975 1.93315 0 0 0 -5.0775e-12 -5.16833e-11 2.40195e-11 -1.43522e-11 4.07024e-11 -3.24539e-11 4.79742e-12 3.39839e-12 -5.3326e-12 0.5 -4.31387e-11 -8.97637e-11 -4.48109e-11 3.06074e-11 -1.46431e-11 -1.10463e-12 
90 1 2.93989 4.58015 0.420403 0 0 1 4.95044e-12 -4.86011e-12 2.94381e-11 3.48583e-11 1.15453e-11 -6.66921e-11 3.76164e-12 -5.96096e-13 6.04866e-12 0.5 1.0301e-11 1.50923e-11 1.05347e-11 2.3104e-11 -3.15852e-12 1.40356e-11 
734 2 4.13742 3.24508 0.37494 0 1 1 7.50212e-12 7.60784e-12 2.55137e-11 -7.02047e-12 -6.61721e-12 -2.26476e-11 1.25305e-11 1.23447e-12 2.47795e-12 0.5 -1.30797e-11 -6.16407e-12 6.29753e-13 1.19994e-11 3.58438e-12 -7.0365e-12 
672 2 0.0675425 1.98557 1.68985 0 0 0 -2.2745e-11 -4.19719e-11 -8.73694e-12 2.19308e-12 4.58822e-11 8.45215e-12 1.19944e-11 -1.94131e-12 5.20533e-12 0.5 -3.88852e-11 -7.02762e-11 -3.12374e-11 3.25975e-11 2.2939e-11 3.19683e-12 
759 2 4.95866 2.03867 0.950748 0 0 0 3.27204e-12 -2.10692e-12 7.62883e-12 1.19343e-12 -3.22765e-13 -6.84972e-12 1.16596e-11 -2.93665e-12 -3.09087e-12 0.5 -2.6375e-12 -3.42554e-11 -1.90847e-11 -5.41344e-12 -3.71135e-12 -4.80852e-12 
21 1 1.84566 0.35675 2.43115 0 0 0 -5.7427e-12 -2.77038e-11 -2.13788e-11 4.4889e-12 2.48772e-11 1.73448e-11 5.55645e-12 -3.19337e-12 9.0349e-12 0.5 -4.71361e-13 -3.25512e-12 -8.45044e-14 2.26885e-12 -1.87142e-13 -1.23854e-12 
682 2 2.73058 4.0836 2.7725 0 0 0 4.68706e-12 -1.73856e-11 1.79638e-11 6.92489e-12 -2.25833e-12 -8.03754e-12 -8.03252e-13 1.90633e-12 3.32968e-12 0.5 -2.87141e-11 -4.73486e-12 4.79605e-12 2.99356e-11 3.76549e-12 1.27478e-11 
907 2 0.982097 4.62503 2.63573 1 0 0 1.48992e-12 -4.31254e-11 2.54809e-11 1.49945e-12 1.40887e-11 -2.42243e-11 1.84426e-12 -3.69698e-12 2.78221e-12 0.5 -4.23471e-11 -5.05599e-11 -5.25076e-11 1.83588e-11 1.79073e-11 -1.94845e-11 
144 1 1.68507 3.60062 2.81087 0 0 0 4.68486e-12 -3.60017e-11 4.19117e-12 -2.30912e-12 3.35891e-11 -3.58179e-13 -1.53983e-12 4.35855e-12 1.99222e-12 0.5 -2.71462e-11 -6.15696e-12 -8.23209e-12 1.4003e-11 -8.85833e-12 7.1648e-13 
675 2 2.83107 4.7385 3.54541 0 0 0 -3.83501e-12 -9.19679e-12 1.75957e-11 4.01367e-12 4.31039e-12 -1.69454e-11 -4.65323e-12 4.41917e-12 -1.76217e-13 0.5 1.78706e-12 7.9147e-12 1.46735e-11 6.48025e-12 -3.25197e-12 1.17665e-11 
502 2 4.38953 1.31124 3.26921 0 0 0 -6.34904e-12 -9.55928e-12 -8.86289e-12 1.75024e-12 7.8943e-12 3.49351e-12 1.97095e-12 -5.80766e-13 -6.58492e-13 0.5 -1.8779e-11 -8.73744e-12 -2.20104e-11 -8.12092e-12 4.94497e-12 2.40055e-11 
27 1 2.60908 0.300739 3.21066 0 0 0 -3.68758e-12 -2.25388e-11 -1.59331e-11 -5.85514e-12 1.44587e-11 4.61985e-11 6.86046e-13 -3.02003e-12 5.15733e-12 0.5 -2.13001e-11 -4.21196e-11 -7.35491e-11 1.08741e-11 1.69694e-11 5.19308e-12 
965 2 1.35576 3.65812 3.79896 1 0 0 8.51558e-12 -4.5056e-11 2.48782e-12 -7.77744e-12 4.07631e-11 -3.63183e-12 -2.60068e-12 7.90575e-12 -6.04949e-12 0.5 -8.35798e-12 -2.84495e-11 -2.76595e-11 1.60622e-11 -1.15706e-11 1.72623e-11 
61 1 1.66165 0.448609 3.51352 0 0 0 -8.99183e-12 -3.87068e-11 -2.71638e-11 6.88314e-12 3.37383e-11 2.30184e-11 2.21472e-12 -4.62457e-13 7.77136e-12 0.5 -1.32866e-11 -6.68539e-13 -2.53782e-12 3.50897e-12 7.85569e-12 -8.54266e-13 
680 2 1.1901 2.78151 3.34693 0 0 0 -1.15408e-11 -4.10246e-11 2.2195e-12 5.69294e-12 3.69717e-11 1.0333e-12 1.43631e-12 4.20661e-12 -1.09541e-12 0.5 -1.80594e-13 -1.11358e-11 -1.85432e-11 2.64977e-12 6.42664e-12 2.78901e-12 
251 1 4.71421 3.03382 3.89556 0 0 0 6.95201e-12 -1.40304e-11 1.40391e-11 -4.44646e-12 1.50048e-11 -1.54952e-11 7.87296e-12 5.45151e-12 -7.86912e-12 0.5 -2.25044e-11 -2.70227e-12 1.97239e-12 -1.48121e-11 5.90961e-12 1.40628e-11 
517 2 4.0089 2.89361 2.21821 0 0 0 5.63503e-12 -1.20748e-11 1.36873e-11 -6.10469e-12 1.40536e-11 -1.13379e-11 3.06648e-12 -9.00531e-13 -9.50035e-14 0.5 -4.57229e-13 1.23409e-12 -9.61399e-12 -6.18146e-13 -2.5194e-12 4.47848e-12 
6 1 3.42179 1.77987 2.73262 0 0 0 -6.73093e-12 -1.32259e-11 6.44213e-12 6.1207e-12 1.38993e-11 -1.2163e-12 8.3532e-12 -4.02197e-13 6.65501e-12 0.5 -5.22222e-11 -4.66777e-12 1.35362e-12 4.17655e-12 1.4269e-11 4.16013e-12 
519 2 4.43345 3.61408 3.03093 0 0 0 2.23614e-12 -5.89024e-12 2.03574e-11 -2.75121e-12 1.00025e-11 -1.66158e-11 2.7175e-12 1.08826e-12 -1.21208e-12 0.5 5.76694e-12 1.20078e-11 1.03122e-11 -6.17177e-12 -5.82419e-12 5.8818e-12 
509 2 1.93621 1.51608 3.62332 0 0 0 4.35864e-12 -3.59535e-11 -2.28248e-11 -6.66167e-12 3.09034e-11 2.16616e-11 -1.39386e-12 1.10652e-11 1.09906e-13 0.5 4.09354e-12 -3.60511e-12 -3.059e-11 -3.95639e-12 6.85237e-12 8.51886e-12 
142 1 1.03537 1.94217 2.17003 0 0 0 -1.42307e-11 -3.27102e-11 -8.09173e-12 6.16805e-12 2.77514e-11 3.75235e-12 1.09847e-11 6.59305e-13 2.38831e-12 0.5 -2.03528e-11 -1.50166e-11 -8.77959e-12 9.92667e-12 -7.4697e-12 1.1996e-11 
941 2 0.192203 2.2584 2.77344 1 0 0 -1.95367e-11 -4.6715e-11 -4.17231e-12 1.84964e-11 4.53261e-11 3.84042e-12 6.96084e-12 9.55676e-13 2.80559e-12 0.5 -6.56817e-12 -2.90135e-11 -2.946e-11 3.39983e-12 2.89601e-12 -2.12132e-12 
919 2 0.650389 4.31552 3.53385 1 0 0 -6.29127e-13 -4.8261e-11 2.05641e-11 -2.75272e-12 4.16275e-11 -1.22416e-11 5.94657e-12 3.65204e-12 -8.04128e-12 0.5 -2.12149e-11 -3.60823e-11 -2.15535e-11 2.02284e-11 5.09956e-14 1.24395e-11 
95 1 3.53903 3.77814 2.2694 0 0 1 6.55067e-12 -1.16864e-11 1.77998e-11 1.06395e-11 2.57499e-11 -2.26785e-11 8.42838e-14 3.98327e-13 1.64748e-12 0.5 -1.88976e-13 2.24621e-12 -3.2481e-11 8.03634e-12 7.5595e-12 8.29529e-13 
458 1 1.5569 4.7536 3.86468 1 0 0 -1.79934e-14 -3.32677e-11 2.68615e-11 6.62936e-14 2.92246e-11 -2.18898e-11 -4.83238e-12 1.42583e-12 2.51166e-12 0.5 -1.48836e-11 -9.46794e-12 -9.38076e-12 1.25622e-11 -2.44906e-12 -7.30516e-14 
41 1 1.14045 0.960462 2.01108 0 0 0 -1.07218e-11 -3.08572e-11 -1.70364e-11 8.90499e-12 2.76274e-11 1.49571e-11 9.77998e-12 -9.9832e-13 5.54829e-12 0.5 -8.30307e-12 -4.97949e-12 -1.86532e-11 5.38174e-12 1.04494e-11 -5.84129e-12 
814 2 0.27112 1.22753 3.40348 1 0 0 -5.32696e-12 -3.96777e-11 -1.15753e-11 -1.46974e-11 6.71536e-11 -4.5374e-12 6.08125e-12 -3.44753e-12 1.01314e-11 0.5 -2.80531e-11 -3.82482e-11 -3.90431e-11 1.64771e-11 1.07443e-11 3.53004e-11 
130 1 1.70518 2.6475 2.50033 0 0 0 -1.04645e-11 -3.4673e-11 -4.87244e-13 1.08859e-11 3.51953e-11 -4.75262e-12 9.03213e-12 -3.78566e-12 -3.98092e-12 0.5 -6.28882e-12 -3.21484e-11 -2.75324e-11 1.48651e-11 9.80311e-12 1.61244e-11 
12 1 2.70258 1.09575 2.61132 0 0 0 2.21185e-12 -2.01043e-11 -1.10973e-11 -1.48864e-12 2.04049e-11 8.80708e-12 6.06455e-12 -5.94016e-12 7.0808e-12 0.5 -6.18463e-11 -6.91337e-11 -4.34908e-11 2.72366e-11 1.07983e-11 2.19921e-12 
512 2 3.18635 2.03167 3.78747 0 0 0 -8.37445e-13 -4.72747e-12 1.04408e-11 -1.01044e-12 4.3982e-12 -9.89384e-12 7.02704e-12 -9.63049e-13 4.53456e-12 0.5 -7.56684e-12 -1.36885e-11 -1.34084e-11 3.53658e-12 -4.3175e-12 1.50704e-11 
151 1 2.47925 3.30049 3.34132 0 0 0 3.87259e-12 -1.99752e-11 1.39785e-11 -1.03257e-11 1.3628e-11 -9.69084e-12 -3.04362e-12 -1.87291e-12 1.24474e-12 0.5 -9.99665e-12 -1.31167e-11 -2.63594e-11 1.98905e-11 -4.99138e-13 -1.35799e-11 
667 2 0.284319 1.3208 2.4071 0 0 0 -9.33168e-12 -3.89456e-11 -1.1051e-11 -1.82965e-12 2.43908e-11 -5.61538e-12 5.6232e-12 2.58106e-12 6.28667e-12 0.5 -1.79596e-11 -7.53909e-11 -4.88612e-11 -6.71488e-12 -1.08335e-12 4.65475e-14 
38 1 3.79042 0.738149 3.87284 0 0 0 -4.00278e-12 -1.8106e-12 -1.11e-11 2.58695e-11 1.53289e-11 1.03245e-11 -6.73559e-12 -2.24102e-12 1.34593e-12 0.5 -1.7529e-11 -4.95773e-12 -6.34478e-11 -2.05895e-11 1.00233e-11 3.8445e-11 
936 2 0.319906 3.36948 3.50683 1 0 0 -1.82336e-11 -4.15825e-11 1.03914e-11 1.57215e-11 3.876e-11 -8.51971e-12 6.50683e-12 -5.02524e-12 -4.69221e-12 0.5 1.17529e-12 -4.36258e-11 -1.85721e-11 5.05643e-13 1.98202e-11 2.54986e-11 
531 2 4.80013 0.808197 2.48028 0 0 0 -9.70013e-12 -1.89688e-11 -7.28117e-12 6.8682e-12 1.89518e-11 6.67672e-12 6.04049e-13 -2.16179e-12 -2.94648e-12 0.5 -9.51833e-12 -7.65269e-13 -1.88136e-11 -9.51415e-12 -1.68197e-11 -8.8663e-12 
527 2 4.03024 4.31517 3.61908 0 0 0 3.96436e-12 -7.94139e-12 2.43127e-11 1.92628e-12 2.06269e-11 -1.71944e-11 -3.62126e-12 -1.94397e-17 1.17857e-12 0.5 8.76424e-12 1.02079e-11 1.3306e-11 -2.90678e-14 -6.95637e-12 1.46051e-11 
383 1 4.36293 4.34454 2.28892 0 0 1 3.19346e-12 -4.44093e-12 1.67151e-11 -2.09505e-11 -2.07299e-12 -1.51774e-11 1.12139e-12 -2.95198e-12 -5.15439e-13 0.5 -1.04412e-12 4.1415e-12 6.77863e-12 1.85676e-11 -2.68573e-12 -4.91465e-12 
992 2 0.695682 0.439322 3.85269 1 1 0 -3.31254e-12 -4.24436e-11 -2.1649e-11 6.12338e-15 1.33476e-10 -2.19285e-12 2.70849e-12 6.36706e-12 3.59104e-12 0.5 -2.20458e-11 -1.21256e-10 -2.69884e-11 3.07287e-11 -1.44647e-11 5.57933e-11 
521 2 4.93615 4.52796 3.25037 0 0 0 1.19195e-12 -5.33181e-12 1.8865e-11 2.49457e-12 8.19867e-12 -9.26402e-12 -2.69783e-12 7.31006e-13 5.57582e-13 0.5 7.61243e-12 -1.22695e-11 -1.70262e-11 2.54517e-12 1.58403e-13 1.22596e-11 
136 1 1.88498 1.67143 2.62265 0 0 0 -1.08331e-11 -3.6406e-11 -1.77683e-11 4.72428e-12 3.57525e-11 1.54361e-11 4.36066e-12 5.81276e-12 4.3673e-12 0.5 -6.62079e-11 -5.13596e-11 -2.91516e-11 4.24204e-11 -7.29016e-12 1.28345e-11 
540 2 4.51129 0.178592 3.415 0 0 0 -5.33569e-12 -1.00311e-11 -1.2368e-11 3.85425e-12 7.92398e-12 1.1119e-11 -3.61225e-12 2.94082e-12 -3.5763e-12 0.5 1.24466e-11 7.71364e-12 3.43823e-12 -7.20869e-12 -4.12963e-12 6.31084e-12 
510 2 3.85504 2.56842 3.17077 0 0 0 -8.17845e-12 -1.3546e-11 8.84933e-12 6.3829e-12 1.99892e-11 -4.54363e-12 1.18147e-12 -1.00053e-12 2.84509e-14 0.5 5.22065e-12 1.0147e-11 -1.0812e-11 3.35283e-12 -2.72429e-13 1.06397e-11 
19 1 4.3655 1.84749 2.40882 0 0 0 -1.00271e-11 1.10122e-12 1.71747e-12 4.40897e-12 1.17041e-11 4.39367e-12 3.12233e-12 6.54362e-13 1.54783e-12 0.5 -6.39249e-11 -3.09623e-12 -2.95121e-11 4.21064e-12 3.00832e-11 3.43827e-12 
543 2 1.07326 1.78713 3.19513 0 0 0 -4.36209e-12 -4.01179e-11 -8.21721e-12 2.36206e-12 3.99423e-11 1.09379e-11 7.84286e-12 7.66035e-12 3.01134e-12 0.5 -6.23878e-12 -5.89407e-12 -5.99619e-13 -7.54828e-12 7.70315e-12 2.017e-12 
773 2 4.78774 2.22773 3.30763 0 0 0 -6.52636e-12 -1.01724e-11 6.66233e-12 1.74293e-12 7.81151e-12 -4.77633e-12 3.6507e-12 2.97175e-12 -2.95561e-12 0.5 -5.1558e-13 -2.77373e-11 -5.74787e-11 -1.39251e-12 7.06755e-12 5.85999e-11 
555 2 2.23907 2.5056 3.89852 0 0 0 -4.98381e-13 -1.67304e-11 1.72859e-11 -4.25132e-12 4.68019e-11 -3.49303e-11 -2.65811e-12 -4.66178e-13 1.99694e-12 0.5 1.83175e-11 2.59666e-11 1.80229e-11 1.24445e-11 -6.26621e-12 -1.73335e-12 
429 1 0.306925 2.40106 3.75655 1 0 0 -1.53246e-11 -4.49886e-11 -5.23243e-12 9.74095e-12 4.64316e-11 4.04027e-12 4.34702e-12 1.88817e-12 7.73784e-12 0.5 -8.33406e-12 -7.23015e-11 -4.18271e-11 1.65934e-11 -1.12103e-11 3.86262e-11 
316 1 0.889712 0.512877 2.86992 1 0 0 -1.27357e-11 -4.1585e-11 -2.33069e-11 1.3026e-11 3.21061e-11 1.55009e-11 4.89941e-12 1.03094e-12 6.81222e-12 0.5 3.22103e-12 -4.11568e-12 -6.91203e-12 2.50588e-12 1.69637e-12 5.39509e-12 
503 2 3.61689 0.768796 2.88623 0 0 0 7.5191e-13 -1.78199e-11 -1.12358e-11 -9.4829e-13 1.16254e-11 5.6222e-12 -5.21945e-13 -2.62229e-12 4.54798e-12 0.5 -1.4243e-11 -1.1143e-12 -5.56406e-11 3.07704e-12 -7.31861e-12 1.44534e-11 
896 2 0.702247 3.66501 2.63024 1 0 0 1.90079e-12 -4.31737e-11 1.91403e-11 2.84894e-12 3.76295e-11 -1.23363e-11 4.70865e-12 2.92394e-12 -1.91193e-12 0.5 -3.62508e-11 -1.2847e-11 -4.69537e-11 9.16766e-12 -2.01339e-11 1.35638e-11 
690 2 1.93672 4.67095 2.92999 0 0 0 1.1095e-12 -2.43225e-11 2.78298e-11 -2.66287e-12 2.51844e-11 -2.17531e-11 8.35077e-14 2.22555e-12 7.8989e-12 0.5 -3.96704e-11 -1.78371e-11 -8.38985e-12 2.37731e-11 -1.49197e-12 -4.23497e-12 
641 2 3.45948 3.5005 3.22725 0 0 0 2.02745e-12 -8.02714e-12 1.81823e-11 -6.60487e-12 1.35067e-11 -2.71116e-11 -2.25581e-12 -4.82183e-13 2.75219e-12 0.5 -6.7344e-12 -2.27863e-12 -4.15496e-11 1.03704e-11 -1.60328e-11 3.20043e-11 
528 2 3.34275 4.80215 2.44243 0 0 0 4.88918e-12 -1.80425e-11 1.67709e-11 -5.78181e-12 1.19369e-11 -7.76757e-12 -7.61289e-13 7.4874e-13 1.06114e-12 0.5 1.77481e-12 1.94195e-12 -1.30293e-12 9.55243e-13 -1.26419e-12 -2.2213e-12 
225 1 2.66658 2.37982 2.99794 0 0 1 -1.12179e-11 -2.18827e-11 1.21448e-11 5.26527e-12 1.23501e-11 -1.4436e-11 -1.97556e-12 4.52319e-12 1.27732e-12 0.5 -1.41977e-11 -3.3142e-11 -7.18349e-12 1.9007e-11 -6.60526e-12 -2.81839e-12 
119 1 0.614476 2.84343 2.06694 0 0 0 -2.02001e-11 -3.37964e-11 9.07127e-12 2.65621e-11 3.4704e-11 -1.20047e-11 1.09688e-11 1.81253e-12 6.39994e-14 0.5 -2.34031e-12 -2.17318e-11 -2.35659e-11 8.80125e-12 6.87711e-12 4.00359e-12 
94 1 2.46189 3.50067 2.00487 0 0 1 -1.81274e-12 -2.42676e-11 2.52387e-11 1.18441e-12 2.11675e-11 -2.3118e-11 3.87213e-12 -6.42421e-13 1.56363e-12 0.5 5.7139e-12 8.48472e-12 3.01365e-12 7.75957e-12 5.44458e-12 9.12357e-12 
522 2 2.58373 2.50801 2.00903 0 0 0 -4.52931e-12 -2.47129e-11 1.12761e-11 6.39323e-12 2.22618e-11 -1.12863e-11 8.17815e-12 -2.58938e-12 3.63523e-12 0.5 3.52647e-12 2.57494e-12 -1.18993e-11 6.57923e-12 4.83552e-12 2.99236e-12 
200 1 2.46549 0.208501 4.19599 0 1 0 3.45679e-12 -1.36155e-11 -1.33269e-11 -7.25578e-12 1.64816e-11 1.62498e-11 -7.68362e-12 -5.51998e-12 1.47476e-11 0.5 -2.02254e-11 -1.14797e-11 -4.96829e-11 8.19371e-12 1.17337e-11 1.32407e-11 
114 1 4.70709 1.00384 4.17137 0 0 0 -4.44184e-12 -6.93537e-13 -7.26577e-12 -1.29891e-11 -1.26596e-12 8.34417e-13 -3.01104e-12 -1.95888e-12 -2.52067e-12 0.5 -1.76574e-11 2.97771e-12 -1.70723e-11 7.03961e-13 -1.77801e-11 8.03515e-14 
820 2 1.30996 2.29325 4.21136 1 0 0 -1.87289e-12 -3.09124e-11 6.37738e-12 8.04387e-12 2.85774e-11 -5.23656e-12 -5.40363e-12 -2.70165e-12 8.89262e-12 0.5 1.3077e-11 9.06962e-12 -9.07578e-12 3.15072e-11 -3.48404e-13 1.48067e-11 
47 1 4.65574 1.582 5.43553 0 0 0 3.54953e-12 4.65724e-12 3.5626e-13 -5.95421e-12 -3.7924e-12 -5.58019e-12 1.08482e-12 5.06856e-12 2.55003e-12 0.5 -1.08573e-11 -2.03527e-11 -8.18623e-12 -4.85417e-12 -1.18204e-11 1.83917e-11 
824 2 1.64908 3.83184 5.79238 1 0 0 2.18604e-12 8.90206e-12 2.77069e-11 -2.87936e-12 -9.79464e-12 -2.7271e-11 -5.49976e-12 9.53008e-13 -1.72477e-12 0.5 -7.22902e-12 -3.68659e-12 -1.8553e-11 -2.29949e-13 1.76039e-12 5.89281e-12 
172 1 3.44268 0.338821 4.72114 0 1 0 -6.66149e-12 1.07325e-11 -6.11515e-12 1.82614e-13 -1.30562e-11 1.54274e-11 -9.78602e-12 -1.90891e-12 5.61174e-12 0.5 -1.91547e-11 -2.03137e-11 -7.27397e-11 -1.68414e-11 1.80007e-11 3.02078e-11 
718 2 0.202285 2.03673 5.5128 0 1 0 -5.23503e-12 -1.49091e-11 1.06353e-11 6.41908e-12 1.18729e-11 -8.1662e-12 -6.48224e-12 -1.91353e-12 -1.7765e-12 0.5 -3.87683e-11 -1.2263e-11 -2.40994e-11 2.04093e-11 -2.1648e-11 4.37901e-11 
505 2 0.484433 3.5018 5.83385 0 0 -1 -3.53296e-12 9.64044e-12 2.24002e-11 3.76227e-12 -7.72139e-12 -1.89243e-11 1.15621e-12 -3.20455e-12 9.45627e-12 0.5 -2.95706e-13 -5.75015e-11 -2.98307e-11 3.96867e-12 -1.46794e-12 4.72589e-11 
524 2 3.99535 2.7352 5.70679 0 0 0 1.65694e-11 3.17317e-11 2.65116e-11 -1.52793e-11 -2.59095e-11 -2.31603e-11 -6.55444e-12 1.89365e-11 8.21077e-12 0.5 6.59459e-13 5.17017e-12 5.73959e-12 -4.39924e-12 -4.6852e-12 5.57987e-12 
839 2 0.579387 1.61472 4.31101 1 0 0 4.04758e-12 -4.04998e-11 -8.6841e-12 8.89154e-13 2.23283e-11 2.30729e-11 -2.51665e-12 1.00611e-12 7.61175e-12 0.5 -2.49132e-12 -4.44644e-11 -2.68555e-11 3.18791e-11 -5.59053e-12 4.50467e-11 
937 2 2.44361 3.38654 4.3372 1 0 0 3.80875e-12 -1.39406e-11 1.30072e-11 -6.65024e-13 1.93264e-11 -2.71008e-12 -5.53694e-12 -2.57088e-12 7.71034e-12 0.5 1.37607e-11 1.26551e-11 -3.6706e-11 2.10521e-11 -4.74872e-13 1.23742e-11 
811 2 2.60623 3.94632 5.52498 1 0 0 -1.07732e-12 9.65799e-12 1.66179e-11 2.04586e-12 -8.25526e-12 -1.57558e-11 -6.54845e-12 -2.5001e-12 -7.10666e-14 0.5 -5.9926e-12 -1.22144e-11 -4.00797e-12 -4.92176e-12 -4.98095e-12 1.20344e-11 
827 2 1.52088 3.18133 4.66349 1 0 0 6.4807e-12 -3.13065e-11 9.92097e-12 -5.7683e-12 2.57354e-11 -9.54932e-12 -9.64081e-12 -4.39459e-12 1.39826e-12 0.5 7.26487e-12 -3.08922e-12 -2.76931e-11 4.13124e-12 1.44744e-12 2.07111e-11 
149 1 4.05563 3.93275 4.61881 0 0 0 -1.56173e-12 7.38469e-12 2.02332e-11 -5.39602e-14 1.4969e-12 -1.66791e-11 -4.04094e-12 1.90542e-12 6.00354e-12 0.5 -1.98933e-11 -1.5154e-11 4.82152e-12 4.16216e-11 -3.14179e-11 8.21485e-12 
925 2 0.623246 3.59905 4.52293 1 0 0 9.22883e-12 -2.67254e-11 5.27112e-12 -7.9073e-12 2.21917e-11 -4.37554e-12 -9.0574e-12 3.97949e-12 -1.30855e-12 0.5 9.41144e-12 -1.35787e-11 -3.18668e-12 -3.23404e-12 -3.56746e-12 6.84725e-12 
168 1 3.33522 4.60361 5.33159 0 0 0 1.01305e-12 8.27506e-12 2.063e-11 -2.70281e-12 -3.0849e-12 -2.15888e-11 -5.89335e-12 -2.76638e-12 5.50977e-12 0.5 -2.00745e-11 -1.44324e-11 -1.50019e-11 6.50051e-12 -1.24162e-11 1.17239e-11 
928 2 1.57471 4.4088 4.9787 1 0 0 4.88677e-12 7.19404e-12 2.65202e-11 -4.70947e-12 -4.22926e-12 -2.48907e-11 -3.53189e-12 2.08755e-12 -3.08124e-12 0.5 -5.59849e-12 -8.05865e-12 -9.09697e-12 -3.14722e-12 -1.45069e-12 8.60447e-12 
148 1 3.93983 3.74234 5.7457 0 0 0 -4.72661e-12 3.09416e-11 3.01699e-11 3.97203e-12 -2.51217e-11 -2.59782e-11 -8.43752e-12 -2.37167e-12 1.36066e-11 0.5 8.69602e-12 1.69157e-11 2.20346e-11 1.30163e-11 1.49896e-11 1.30917e-11 
914 2 4.69244 4.38506 5.24423 0 0 0 -1.09103e-11 2.0306e-11 2.05773e-11 1.12884e-11 -1.52245e-11 -1.67959e-11 -1.24998e-11 -1.53608e-12 2.17901e-13 0.5 -1.45745e-12 3.94348e-12 6.36398e-12 1.21599e-12 1.65028e-12 3.95453e-12 
23 1 2.87773 1.11847 4.05716 0 0 0 -6.91249e-12 -9.17501e-12 -1.238e-11 6.13457e-12 8.31985e-12 1.05292e-11 3.92491e-12 1.30843e-12 3.64116e-12 0.5 -1.46494e-11 -1.32075e-11 -1.25048e-11 -3.56089e-12 7.3584e-12 1.15152e-11 
594 2 2.05586 1.97089 4.80241 0 0 0 3.41585e-12 2.84968e-12 1.59214e-11 -2.08553e-12 -2.52446e-12 -1.20511e-11 3.60982e-12 -3.39877e-12 1.13753e-11 0.5 -6.26561e-13 -1.97362e-11 -4.92774e-12 1.72042e-11 -9.30153e-12 1.23577e-11 
539 2 3.78455 1.04074 5.46912 0 0 0 -2.02243e-12 2.30787e-11 4.00136e-12 -4.03097e-13 -2.04975e-11 -3.82107e-12 -3.59915e-12 6.97664e-12 -1.18287e-12 0.5 -5.44582e-12 -5.59214e-11 -2.48783e-11 -1.75812e-11 -1.65352e-11 5.08714e-11 
730 2 0.461765 1.11568 5.16957 0 1 0 -3.94238e-12 -1.5729e-11 4.44683e-12 4.24542e-12 1.78896e-11 -9.36441e-12 -2.81121e-12 -1.13128e-12 1.09789e-11 0.5 1.75701e-11 -4.63968e-12 -1.31086e-11 5.02938e-12 -5.23637e-12 2.88018e-11 
689 2 3.51933 0.103669 5.69619 0 1 0 -5.07353e-12 2.21341e-11 -6.9007e-12 3.57775e-12 -1.6552e-11 1.06438e-11 -2.35337e-12 -1.45928e-12 7.77884e-13 0.5 -2.73791e-11 -7.05894e-11 -6.64539e-11 -8.38188e-12 1.53304e-12 5.49624e-11 
450 1 0.619288 4.79871 4.46892 1 0 0 2.5828e-11 -1.86911e-11 1.9841e-11 -2.10311e-11 1.53975e-11 -1.67029e-11 -1.68317e-11 -4.35188e-12 3.33265e-12 0.5 -8.96744e-12 -2.37721e-11 -5.33529e-11 2.70469e-12 -9.95275e-12 2.91131e-11 
549 2 4.49944 0.500888 5.01435 0 0 0 -1.49935e-11 9.00086e-12 -3.66112e-12 9.21166e-12 -6.00588e-12 -9.97624e-13 -2.59411e-12 2.96736e-12 -6.49199e-12 0.5 1.58569e-11 2.55165e-11 1.29892e-11 -1.05014e-11 -8.90702e-12 1.22596e-11 
591 2 1.44655 1.12499 4.40334 0 0 0 9.49764e-12 -3.1985e-11 -1.80073e-11 -7.29542e-12 1.12637e-11 1.53691e-11 -4.53763e-12 6.18514e-12 3.50125e-13 0.5 -1.67551e-11 -1.66951e-11 -2.2947e-11 5.45572e-12 2.26947e-12 1.92793e-11 
243 1 1.20287 1.83742 5.34381 0 1 0 -7.69537e-12 -3.01116e-12 1.35493e-12 6.3063e-12 -1.21734e-13 -1.73632e-12 -3.00861e-12 -1.30682e-12 6.00444e-12 0.5 -1.0333e-11 -1.10867e-11 -2.34637e-12 1.53453e-11 -6.89663e-12 1.28491e-11 