ITEM: TIMESTEP
193000
ITEM: NUMBER OF ATOMS
1000
ITEM: BOX BOUNDS xy xz yz pp pp pp
0.0000000000000000e+00 1.0000000000000000e+01 0.0000000000000000e+00
0.0000000000000000e+00 1.0000000000000000e+01 0.0000000000000000e+00
0.0000000000000000e+00 1.0000000000000000e+01 0.0000000000000000e+00
ITEM: ATOMS id type x y z ix iy iz vx vy vz fx fy fz omegax omegay omegaz radius c_2[1] c_2[2] c_2[3] c_2[4] c_2[5] c_2[6] 
120 1 3.15852 1.54146 0.0722925 0 1 0 -4.02756e-09 1.14291e-08 7.49529e-09 3.65567e-09 -9.76502e-09 -6.57593e-09 6.83306e-09 1.03561e-09 -4.08694e-09 0.5 -5.71201e-09 -3.01169e-08 -2.78169e-09 -3.30648e-09 -1.482e-09 -7.22651e-09 
525 2 2.11627 1.23431 1.69988 0 0 0 -1.00684e-08 -2.65968e-08 -1.84413e-08 8.35857e-09 2.26767e-08 1.62323e-08 -2.70027e-09 1.73181e-09 8.22478e-09 0.5 4.54207e-10 -1.83633e-09 1.07627e-09 2.30757e-09 1.09986e-09 -6.84372e-10 
371 1 4.95931 3.68326 1.58374 0 0 1 5.90999e-09 -1.06211e-08 1.63935e-08 -5.06239e-09 9.45613e-09 -1.43944e-08 1.30936e-09 -8.94304e-10 8.07433e-10 0.5 -3.61729e-09 -1.54584e-08 1.01457e-08 -1.82586e-09 -1.8719e-09 2.02524e-09 
18 1 1.98117 2.69195 0.532518 0 0 0 -5.03942e-09 -4.06647e-10 1.8072e-08 4.15928e-09 3.20689e-10 -1.55453e-08 1.13233e-08 -3.81771e-09 3.59592e-09 0.5 -9.26794e-09 -2.21894e-08 -1.31616e-08 1.78842e-08 8.07568e-09 -1.01242e-08 
868 2 2.87004 3.00634 0.0289121 0 0 1 3.13042e-09 -2.28928e-09 1.56942e-08 -2.46415e-09 1.97025e-09 -1.36751e-08 9.63426e-09 -1.78602e-09 4.02821e-09 0.5 -1.46983e-08 -2.31621e-08 -5.28749e-09 1.72185e-08 -5.16919e-10 1.09875e-09 
25 1 1.41548 0.708705 1.0832 0 0 0 -4.05624e-09 -9.12383e-09 -1.88437e-08 3.43898e-09 7.58273e-09 1.67063e-08 8.01468e-09 -2.09538e-09 4.8561e-09 0.5 -6.838e-09 -4.80184e-08 -2.65616e-08 1.71769e-08 1.32957e-08 -2.11696e-08 
378 1 4.61919 2.40719 0.0725815 0 0 1 1.02906e-09 7.37483e-09 1.22476e-08 -7.90931e-10 -6.09921e-09 -1.07998e-08 1.07825e-08 2.74096e-09 -2.10607e-09 0.5 -6.16744e-09 -1.62565e-08 -9.24851e-09 -1.65912e-09 -2.02014e-09 -1.25706e-08 
8 1 3.44143 2.06796 1.74253 0 0 0 -4.76323e-10 -1.22742e-08 5.02695e-09 2.98166e-10 1.06721e-08 -4.51509e-09 9.14267e-09 -2.40496e-09 1.8558e-09 0.5 3.5414e-09 1.17942e-09 4.20591e-09 3.63318e-09 -3.41288e-10 3.14371e-09 
629 2 4.07713 2.6156 1.19812 0 0 1 3.11241e-09 -6.07264e-09 1.53523e-08 -2.77988e-09 5.41259e-09 -1.33157e-08 1.04098e-08 -2.71613e-09 2.67614e-10 0.5 -1.67206e-08 -4.32281e-09 -1.48132e-08 2.39592e-09 -1.09197e-08 -5.93774e-09 
5 1 2.34651 3.9005 1.05345 0 0 0 -1.94472e-09 -2.0599e-08 2.07972e-08 1.80075e-09 1.78204e-08 -1.79292e-08 7.05115e-10 1.44464e-09 4.25798e-09 0.5 -1.4316e-09 -2.37053e-09 -3.41868e-09 2.89226e-09 8.44734e-10 -7.52892e-10 
650 2 0.459129 3.43666 1.12967 0 0 0 -1.23332e-08 -2.11407e-08 3.41332e-09 1.05633e-08 1.7881e-08 -2.51998e-09 1.21472e-08 1.25395e-09 1.51794e-10 0.5 -1.68433e-08 -1.91554e-08 -2.04569e-08 1.36663e-08 1.41572e-08 -9.14659e-09 
14 1 3.29515 3.13364 1.54473 0 0 0 8.84004e-10 -1.05767e-08 1.70648e-08 -7.73556e-10 9.3947e-09 -1.48124e-08 3.04575e-09 2.13744e-09 1.38244e-09 0.5 -1.379e-09 -4.54849e-09 -8.56388e-09 6.68214e-09 -1.01496e-09 -4.19081e-09 
264 1 3.99643 3.86789 1.37953 0 0 0 5.65756e-09 -1.21464e-08 1.6549e-08 -4.85358e-09 1.07658e-08 -1.44818e-08 4.76467e-09 1.08364e-09 7.52378e-10 0.5 -4.42721e-09 -2.2119e-11 -8.60982e-09 5.76312e-09 4.81927e-10 -1.56197e-09 
223 1 0.747634 2.47805 1.14565 0 0 1 -1.25734e-08 -2.08999e-08 3.33044e-09 1.06544e-08 1.76346e-08 -2.55711e-09 1.22148e-08 -4.8229e-09 1.80244e-09 0.5 -8.40379e-09 -2.10443e-08 -4.89631e-08 7.10563e-09 1.9627e-08 -1.22904e-08 
364 1 4.4227 4.23693 0.53984 0 0 1 1.96428e-09 5.24118e-09 2.22061e-08 -1.31663e-09 -4.38413e-09 -1.9308e-08 6.2598e-09 -7.07449e-10 2.89303e-09 0.5 3.23678e-10 2.05036e-09 3.32818e-10 8.18058e-10 3.41266e-09 -3.03731e-09 
107 1 1.66076 1.61825 0.747451 0 0 1 -9.48123e-09 -4.02708e-09 -8.70314e-09 7.97738e-09 3.21482e-09 7.93756e-09 1.23758e-08 -9.16725e-10 1.45117e-09 0.5 8.70009e-09 -1.10791e-08 -1.09924e-08 -5.0047e-10 7.87473e-11 -7.12898e-09 
529 2 2.67265 2.1996 1.06195 0 0 0 -3.40028e-11 -7.20527e-09 5.06505e-09 -2.16061e-10 6.12695e-09 -4.3086e-09 1.1252e-08 2.50841e-10 3.01735e-09 0.5 -3.49245e-09 -8.14938e-09 -9.55875e-09 5.96498e-09 -3.46294e-09 2.01002e-09 
515 2 4.38643 0.435908 1.64385 0 0 0 1.43589e-09 -1.29065e-08 -8.27153e-09 -1.19065e-09 1.12472e-08 6.86087e-09 6.82997e-09 -5.88419e-10 1.5971e-09 0.5 -1.61538e-09 -6.96263e-09 -1.4617e-08 -1.28794e-08 8.1415e-10 2.82297e-09 
244 1 4.11373 0.570462 0.682724 0 1 1 1.70831e-09 3.47468e-09 -5.57872e-09 -1.41207e-09 -2.74324e-09 4.55165e-09 9.88847e-09 3.04236e-09 2.22121e-10 0.5 -4.95531e-09 -4.39173e-09 -1.3998e-08 -1.01244e-09 3.08378e-09 1.97514e-09 
20 1 2.90179 0.570818 1.78382 0 0 0 7.34941e-10 -1.18504e-08 -1.03141e-08 -6.80199e-10 1.02227e-08 8.78342e-09 4.50683e-09 -2.88767e-09 2.46112e-09 0.5 -7.92697e-09 -1.8373e-08 -2.73891e-08 6.72499e-09 1.21862e-08 -1.63518e-08 
280 1 4.09077 1.582 1.14626 0 0 0 1.44162e-09 -3.79617e-09 4.27887e-10 -1.33384e-09 3.44788e-09 -6.34909e-10 1.04937e-08 -1.05303e-09 2.58566e-10 0.5 -4.2478e-09 -6.34539e-09 -1.84079e-08 1.61784e-09 1.07004e-08 3.91122e-09 
620 2 1.3946 4.37082 0.857654 0 0 1 2.72936e-10 -1.3702e-08 1.60544e-08 2.1766e-10 1.17859e-08 -1.35396e-08 8.45845e-09 5.42113e-09 -4.25174e-09 0.5 -4.43735e-09 -2.08266e-08 -3.05641e-08 3.52886e-10 -2.46024e-09 3.26082e-09 
1000 2 3.60332 2.39824 0.339819 0 1 1 8.79397e-09 3.05925e-09 1.11996e-08 -7.27025e-09 -2.58483e-09 -9.90483e-09 7.66492e-09 -5.14778e-10 -2.62264e-10 0.5 -1.27937e-08 -2.28036e-08 -1.38041e-08 -1.33469e-09 -1.09994e-08 -3.53053e-09 
103 1 3.28431 3.68319 0.698947 0 0 1 4.51131e-10 -6.06384e-09 2.04852e-08 -3.02789e-10 5.28889e-09 -1.78687e-08 6.18109e-09 3.93953e-10 3.2265e-09 0.5 -4.66081e-09 -4.15062e-09 -6.55239e-09 4.56214e-09 7.34163e-10 -9.57956e-10 
622 2 0.930663 4.80385 0.0848388 0 0 1 -1.85413e-11 -7.46377e-10 2.34839e-08 4.48599e-10 5.48864e-10 -1.99454e-08 1.1265e-08 -9.8677e-10 -1.37551e-09 0.5 -2.44401e-10 2.19679e-09 -1.42041e-08 -1.33518e-09 -6.09515e-09 3.21063e-09 
506 2 0.74356 1.4513 1.18235 0 0 0 -1.36422e-08 -2.12818e-08 -1.62721e-08 1.16235e-08 1.79839e-08 1.44876e-08 9.64664e-09 -1.78476e-09 6.36299e-09 0.5 3.93223e-09 -2.8316e-08 -4.53653e-09 3.27258e-08 6.92415e-09 -1.74355e-08 
626 2 1.28815 3.41645 0.566227 0 0 1 -1.21264e-08 -7.98911e-09 4.17997e-09 1.03465e-08 6.90431e-09 -3.25311e-09 6.06221e-09 -3.76377e-09 1.50246e-09 0.5 -1.61671e-08 -2.35049e-08 -4.43929e-09 1.2845e-08 1.07553e-08 -6.92421e-09 
553 2 0.744043 0.0774004 1.56305 0 0 0 -2.482e-09 -1.59878e-08 -2.44172e-08 2.01102e-09 1.35615e-08 2.16797e-08 9.14398e-10 -5.05688e-09 7.81806e-09 0.5 2.96342e-09 1.47156e-09 2.36724e-09 2.95129e-10 1.2331e-09 -3.78775e-09 
135 1 1.54769 3.20472 1.67709 0 0 0 4.61364e-09 -2.04076e-08 1.93561e-09 -4.12546e-09 1.74541e-08 -1.36994e-09 6.7922e-09 -9.49558e-09 -2.26505e-09 0.5 1.09116e-09 -4.28209e-08 -8.45429e-09 1.06789e-08 4.39847e-09 -2.60752e-10 
624 2 4.32461 4.92098 1.47156 0 0 1 8.57763e-09 -3.62805e-09 1.69994e-08 -6.98225e-09 3.57921e-09 -1.49466e-08 4.38643e-09 5.59256e-11 2.6193e-09 0.5 3.98421e-09 3.12771e-09 -1.09482e-08 3.90694e-09 -7.41525e-09 -8.7924e-09 
256 1 4.58719 1.36786 0.305 0 0 0 2.18581e-09 5.14048e-09 -1.41305e-09 -1.89236e-09 -4.10179e-09 9.82669e-10 1.04337e-08 2.03788e-09 -3.18055e-09 0.5 -2.63493e-09 -9.5634e-09 -1.29328e-08 -6.06966e-09 1.48247e-09 -1.36719e-08 
260 1 3.31854 0.0700552 1.02517 0 0 0 3.96716e-09 -5.16955e-09 -1.29585e-08 -3.2069e-09 4.59401e-09 1.11024e-08 4.4716e-09 5.09036e-09 1.37966e-11 0.5 -5.75375e-09 -1.76677e-08 -1.97919e-08 -4.1015e-10 3.20938e-09 -1.19443e-08 
616 2 3.19106 4.4806 1.50664 0 0 1 4.4286e-09 -1.68821e-08 1.61826e-08 -3.93611e-09 1.46898e-08 -1.42227e-08 -9.56344e-10 1.79289e-09 2.79656e-09 0.5 -7.84981e-09 -3.13124e-09 -3.5104e-09 4.75589e-09 8.47387e-10 -2.04746e-09 
106 1 1.74522 2.23558 1.52961 0 0 1 1.0962e-10 -2.16758e-08 4.19592e-09 -3.48025e-10 1.85023e-08 -3.23889e-09 8.83876e-09 -3.32359e-09 -2.07958e-09 0.5 5.38025e-09 -2.26655e-08 -7.14495e-09 6.74297e-09 6.85314e-09 -8.56951e-09 
157 1 1.3897 4.17879 1.83903 0 0 0 6.08439e-09 -2.2236e-08 1.44194e-08 -5.17716e-09 1.90556e-08 -1.21493e-08 8.44887e-09 1.45341e-09 1.06184e-09 0.5 -9.449e-09 -3.22369e-08 -3.40439e-08 7.30519e-09 1.11464e-08 -6.42139e-09 
516 2 2.34691 0.89043 0.68796 0 0 0 -2.13139e-09 2.6795e-09 -5.56113e-09 1.69315e-09 -2.41236e-09 5.00583e-09 1.03108e-09 -3.21279e-09 2.07595e-10 0.5 1.97124e-09 -9.1132e-09 -2.63853e-09 2.11297e-09 5.96207e-09 -8.46361e-09 
183 1 0.415258 4.58221 1.00381 0 0 0 1.62144e-09 -1.94058e-08 3.38497e-08 -8.91864e-10 1.66753e-08 -2.86132e-08 1.66297e-08 8.50903e-09 9.70168e-10 0.5 3.40072e-10 -1.08047e-09 1.86291e-09 1.4652e-09 -2.4158e-09 1.79223e-09 
625 2 0.399951 3.91216 0.210014 0 0 1 -4.52156e-09 8.07705e-10 1.63827e-08 4.25254e-09 -7.63965e-10 -1.35867e-08 1.60164e-08 -1.36047e-09 -6.85665e-09 0.5 -6.85187e-10 1.29355e-10 -3.09873e-09 -7.39599e-10 -1.26321e-09 2.93708e-09 
91 1 2.22066 4.71676 1.69645 0 0 1 5.39744e-09 -2.01343e-08 1.90996e-08 -4.72978e-09 1.74093e-08 -1.64223e-08 5.05829e-10 4.07765e-10 6.15357e-10 0.5 -8.78816e-09 -5.66629e-09 -2.45038e-09 -2.00075e-09 1.72742e-09 -1.98173e-09 
257 1 4.94043 2.69123 1.70827 0 0 0 3.40006e-09 -1.10058e-08 1.29685e-08 -2.97645e-09 9.8026e-09 -1.13845e-08 4.33371e-09 1.09103e-10 -1.53628e-09 0.5 -1.90531e-08 -1.32568e-08 -3.31015e-08 1.4297e-09 -1.09867e-08 -6.34215e-09 
4 1 3.72174 1.12777 1.95711 0 0 0 1.10836e-09 -1.4143e-08 -5.51456e-09 -9.73819e-10 1.22702e-08 4.48561e-09 6.85536e-09 -5.79496e-10 5.77936e-10 0.5 -2.77203e-09 -4.84737e-09 -2.39263e-08 -4.4349e-09 4.11661e-09 1.17711e-08 
609 2 1.99624 4.76004 0.136921 0 0 1 1.08644e-09 -7.51558e-09 2.31022e-08 -6.65199e-10 6.45962e-09 -1.99024e-08 3.50333e-09 -2.50101e-09 3.6614e-09 0.5 -3.80553e-08 -1.16923e-07 -1.63836e-08 3.28513e-08 8.23406e-09 -2.49133e-08 
117 1 3.12746 1.31374 1.15363 0 1 0 2.27042e-09 -6.96409e-09 -4.00527e-09 -2.01437e-09 6.01195e-09 3.33192e-09 8.93183e-09 -3.76499e-10 5.48925e-10 0.5 1.41175e-09 -6.36807e-09 -1.03953e-09 3.5631e-09 4.79171e-10 4.81357e-09 
511 2 1.08079 2.25054 0.230642 0 0 0 -4.68382e-09 7.07414e-09 -7.65988e-10 3.95196e-09 -6.35346e-09 9.83743e-10 1.55482e-08 -3.382e-09 -3.11173e-09 0.5 -6.3668e-09 -1.92014e-08 -4.41738e-08 4.04931e-09 1.86493e-08 -1.24898e-08 
911 2 0.492018 0.563612 0.697612 1 0 0 -3.20479e-09 -1.17341e-08 -2.30514e-08 2.70691e-09 9.68114e-09 2.04006e-08 1.81928e-09 -3.14731e-09 7.68898e-10 0.5 4.96296e-09 -2.12875e-08 -3.9628e-11 -2.13902e-09 1.74773e-09 -8.47163e-09 
668 2 0.00216515 3.81975 1.93315 0 0 0 -2.68937e-09 -3.78711e-08 1.63387e-08 2.08135e-09 3.22071e-08 -1.37149e-08 3.98233e-09 3.1302e-09 -3.33539e-09 0.5 -2.99082e-08 -7.28105e-08 -3.06301e-08 2.20222e-08 -8.32457e-09 -8.14737e-10 
90 1 2.93989 4.58015 0.420403 0 0 1 7.83325e-10 -4.59593e-09 2.48701e-08 -2.80892e-10 4.0967e-09 -2.17595e-08 3.69217e-09 -9.88293e-10 4.29828e-09 0.5 -8.57558e-09 8.52367e-09 -1.8227e-09 1.60382e-08 8.60255e-09 3.18268e-09 
734 2 4.13742 3.24508 0.37494 0 1 1 5.19029e-09 4.80948e-09 2.17133e-08 -4.37374e-09 -3.95673e-09 -1.89558e-08 9.83271e-09 1.24639e-09 1.40307e-09 0.5 -7.92874e-09 -5.48118e-09 -5.28903e-10 5.0589e-09 3.02323e-09 -4.28367e-09 
672 2 0.0675425 1.98557 1.68985 0 0 0 -1.61754e-08 -3.03804e-08 -1.00463e-08 1.38252e-08 2.58585e-08 9.11767e-09 1.02055e-08 -1.94439e-09 3.58933e-09 0.5 -3.4945e-08 -7.17849e-08 -2.68965e-08 2.79851e-08 1.92652e-08 2.0472e-11 
759 2 4.95866 2.03867 0.950748 0 0 0 3.00824e-09 -3.99501e-09 6.91593e-09 -2.73229e-09 3.72626e-09 -6.13882e-09 9.07257e-09 -1.4363e-09 -2.45448e-09 0.5 -1.96088e-09 -2.40027e-08 -1.13007e-08 -3.8271e-09 -1.95772e-09 -2.82876e-09 
21 1 1.84566 0.35675 2.43115 0 0 0 -4.66216e-09 -2.16695e-08 -1.77844e-08 4.06652e-09 1.86347e-08 1.55187e-08 4.27334e-09 -4.1061e-09 6.53452e-09 0.5 2.23041e-10 -7.18222e-10 -3.11354e-10 1.12324e-09 7.02757e-10 -2.08094e-09 
682 2 2.73058 4.0836 2.7725 0 0 0 4.03996e-09 -1.39964e-08 1.48615e-08 -3.55477e-09 1.21439e-08 -1.28925e-08 -2.18735e-10 6.92136e-10 1.84536e-09 0.5 -2.123e-08 -1.32658e-08 -2.71448e-09 1.34342e-08 9.27456e-09 1.60782e-08 
907 2 0.982097 4.62503 2.63573 1 0 0 2.73162e-09 -3.12937e-08 1.77896e-08 -2.51632e-09 2.65816e-08 -1.50201e-08 1.42809e-09 -3.09208e-09 1.75022e-09 0.5 -2.31707e-08 -2.79526e-08 -3.17954e-08 1.10201e-08 1.36516e-08 -9.92717e-09 
144 1 1.68507 3.60062 2.81087 0 0 0 4.88022e-09 -2.69541e-08 3.21085e-09 -4.39729e-09 2.30305e-08 -2.67776e-09 -6.84393e-10 1.95373e-09 4.84349e-10 0.5 -1.48967e-08 -3.99477e-09 -6.09787e-09 8.86634e-09 -3.39946e-09 8.24852e-11 
675 2 2.83107 4.7385 3.54541 0 0 0 2.01963e-11 -9.298e-09 1.50042e-08 -5.07546e-10 8.29288e-09 -1.30781e-08 -3.46786e-09 2.46068e-09 -4.41703e-10 0.5 1.05658e-09 4.84732e-09 9.67965e-09 4.66665e-09 -1.96694e-09 8.47566e-09 
502 2 4.38953 1.31124 3.26921 0 0 0 -1.71599e-09 -9.95028e-09 -4.42346e-09 1.10003e-09 8.90866e-09 3.54297e-09 1.64227e-09 2.71552e-10 -9.18627e-10 0.5 -1.63145e-08 -8.17388e-09 -1.05021e-08 -8.34073e-09 7.81761e-09 1.71368e-08 
27 1 2.60908 0.300739 3.21066 0 0 0 -8.87414e-10 -1.73493e-08 -1.22296e-08 4.51285e-10 1.48696e-08 1.0466e-08 -2.554e-11 -2.56996e-09 3.19747e-09 0.5 -1.48932e-08 -1.88688e-08 -3.53981e-08 7.51953e-09 1.18847e-08 3.03639e-09 
965 2 1.35576 3.65812 3.79896 1 0 0 7.06093e-09 -3.23234e-08 8.03006e-10 -6.21714e-09 2.74401e-08 -5.05177e-10 -1.92303e-09 5.32164e-09 -4.32954e-09 0.5 -6.16435e-09 -1.87261e-08 -2.0544e-08 1.08748e-08 -7.02831e-09 1.27491e-08 
61 1 1.66165 0.448609 3.51352 0 0 0 -5.40448e-09 -2.76427e-08 -2.3357e-08 4.41426e-09 2.34076e-08 2.04483e-08 8.21991e-10 -9.69036e-10 5.17583e-09 0.5 -1.04795e-08 -4.61521e-10 -2.11155e-09 2.57833e-09 6.87608e-09 -7.79472e-10 
680 2 1.1901 2.78151 3.34693 0 0 0 -6.39999e-09 -2.93092e-08 -2.06106e-11 5.26731e-09 2.4855e-08 2.3457e-10 1.22243e-09 2.84033e-09 -7.16251e-10 0.5 4.51967e-10 -6.26338e-09 -9.47493e-09 1.46697e-09 3.96421e-09 2.79827e-09 
251 1 4.71421 3.03382 3.89556 0 0 0 7.89801e-09 -1.27838e-08 1.27678e-08 -7.13438e-09 1.13379e-08 -1.1255e-08 5.41021e-09 3.99873e-09 -5.90948e-09 0.5 -1.87629e-08 -3.69557e-09 6.97352e-10 -1.29995e-08 5.92975e-09 1.10974e-08 
517 2 4.0089 2.89361 2.21821 0 0 0 4.66108e-09 -1.17894e-08 1.21604e-08 -3.9916e-09 1.05906e-08 -1.06201e-08 2.23095e-09 3.70973e-10 -8.75407e-10 0.5 -2.07377e-10 -1.71623e-10 -6.3305e-09 -1.6907e-10 -1.34513e-09 3.18706e-09 
6 1 3.42179 1.77987 2.73262 0 0 0 -2.45589e-09 -1.13115e-08 6.15668e-09 1.804e-09 9.83717e-09 -5.49343e-09 6.45252e-09 -8.88353e-10 4.22292e-09 0.5 -1.98002e-08 4.32651e-09 2.94345e-09 8.24641e-09 9.28881e-09 6.02754e-09 
519 2 4.43345 3.61408 3.03093 0 0 0 2.83516e-09 -7.74299e-09 1.83682e-08 -2.56118e-09 7.11702e-09 -1.60967e-08 2.20307e-09 1.48626e-09 -7.26222e-10 0.5 1.12377e-09 1.03652e-08 7.15143e-09 -7.23462e-09 -2.83826e-09 5.46502e-09 
509 2 1.93621 1.51608 3.62332 0 0 0 5.58782e-09 -2.54656e-08 -1.97224e-08 -5.11203e-09 2.14946e-08 1.73466e-08 -1.63607e-09 8.54679e-09 -1.04003e-10 0.5 2.47394e-09 -2.81998e-09 -2.21548e-08 -2.78377e-09 4.78606e-09 6.2765e-09 
142 1 1.03537 1.94217 2.17003 0 0 0 -9.62691e-09 -2.43383e-08 -7.80549e-09 8.04302e-09 2.06754e-08 7.05636e-09 8.88593e-09 1.25147e-10 1.69671e-09 0.5 -5.25757e-10 -4.52409e-09 -5.547e-09 7.08881e-09 -2.94141e-09 6.67379e-09 
941 2 0.192203 2.2584 2.77344 1 0 0 -1.33752e-08 -3.53653e-08 -6.44888e-09 1.13315e-08 3.01924e-08 5.91765e-09 5.3717e-09 6.99416e-10 1.43636e-09 0.5 -4.44946e-09 -1.44314e-08 -2.00943e-08 6.6963e-10 2.63633e-09 1.57276e-09 
919 2 0.650389 4.31552 3.53385 1 0 0 -1.7642e-11 -3.45475e-08 1.40984e-08 -1.50858e-10 2.93827e-08 -1.1825e-08 4.65939e-09 1.83492e-09 -5.5091e-09 0.5 -1.42009e-08 -2.49354e-08 -1.44798e-08 1.39997e-08 -2.20717e-10 8.93967e-09 
95 1 3.53903 3.77814 2.2694 0 0 1 5.81709e-09 -1.13783e-08 1.61205e-08 -5.032e-09 1.02133e-08 -1.41104e-08 3.37587e-10 2.23612e-10 8.3125e-10 0.5 -9.9098e-09 -3.2808e-09 -1.81067e-08 2.03933e-09 5.88128e-09 -2.35642e-09 
458 1 1.5569 4.7536 3.86468 1 0 0 1.89805e-09 -2.37182e-08 2.05508e-08 -1.93141e-09 2.00876e-08 -1.7647e-08 -4.42948e-09 9.89845e-10 1.4811e-09 0.5 -9.52174e-09 -5.89067e-09 -5.63559e-09 7.86349e-09 -1.6102e-09 -2.76876e-10 
41 1 1.14045 0.960462 2.01108 0 0 0 -6.74115e-09 -2.26461e-08 -1.59636e-08 5.59467e-09 1.92083e-08 1.41763e-08 7.80653e-09 -1.14594e-09 3.99417e-09 0.5 -7.50867e-09 -6.47944e-09 -1.80998e-08 4.38511e-09 1.1463e-08 -6.25344e-09 
814 2 0.27112 1.22753 3.40348 1 0 0 -1.81497e-09 -2.90096e-08 -1.35561e-08 1.27467e-09 2.46229e-08 1.21569e-08 4.24968e-09 -2.63838e-09 7.99271e-09 0.5 -1.53777e-08 -1.5928e-08 -1.86497e-08 6.21295e-09 1.34938e-08 1.97471e-08 
130 1 1.70518 2.6475 2.50033 0 0 0 -7.27897e-09 -2.57133e-08 -1.12797e-09 6.12473e-09 2.19016e-08 1.18835e-09 7.12134e-09 -2.85342e-09 -3.18592e-09 0.5 -4.83899e-09 -1.98625e-08 -1.75545e-08 9.90839e-09 6.696e-09 1.27417e-08 
12 1 2.70258 1.09575 2.61132 0 0 0 3.06818e-09 -1.46125e-08 -7.99211e-09 -2.79405e-09 1.25005e-08 6.81312e-09 4.27505e-09 -5.34079e-09 4.48908e-09 0.5 -2.34756e-08 -2.86048e-08 -1.99386e-08 1.54504e-08 9.53033e-09 7.60992e-10 
512 2 3.18635 2.03167 3.78747 0 0 0 2.72015e-09 -3.56244e-09 7.69048e-09 -2.78883e-09 2.99562e-09 -6.50999e-09 5.13883e-09 -1.29199e-09 3.4979e-09 0.5 -5.45288e-09 -1.07169e-08 -9.36817e-09 2.02267e-09 -2.00448e-09 1.13162e-08 
151 1 2.47925 3.30049 3.34132 0 0 0 3.40724e-09 -1.65857e-08 1.10274e-08 -2.95774e-09 1.44215e-08 -9.50202e-09 -1.71692e-09 -1.77104e-09 1.16444e-09 0.5 -6.81646e-09 -2.63453e-08 -2.43838e-08 5.89077e-09 5.89376e-09 7.1352e-09 
667 2 0.284319 1.3208 2.4071 0 0 0 -6.7834e-09 -3.0025e-08 -1.34167e-08 5.6535e-09 2.5547e-08 1.20426e-08 5.17643e-09 1.55755e-09 4.5975e-09 0.5 -8.91837e-09 -4.1072e-08 -3.16381e-08 2.27137e-09 -1.72326e-10 4.28692e-09 
38 1 3.79042 0.738149 3.87284 0 0 0 1.26801e-09 -2.29105e-09 -6.14437e-09 -1.54632e-09 2.15853e-09 5.08326e-09 -5.47329e-09 -1.47719e-09 3.38111e-10 0.5 -1.55255e-08 -5.03299e-09 -3.89204e-08 -1.75055e-08 9.14257e-09 2.82504e-08 
936 2 0.319906 3.36948 3.50683 1 0 0 -1.23465e-08 -2.98256e-08 5.20126e-09 1.04083e-08 2.53355e-08 -4.0919e-09 5.12048e-09 -4.37952e-09 -3.05031e-09 0.5 1.29251e-09 -3.02828e-08 -1.23691e-08 4.49447e-10 1.4443e-08 1.9617e-08 
531 2 4.80013 0.808197 2.48028 0 0 0 -5.65816e-09 -1.69379e-08 -3.97132e-09 4.63184e-09 1.49604e-08 3.1733e-09 5.19211e-10 -5.63046e-10 -2.72699e-09 0.5 -5.48528e-09 4.38328e-10 -1.1368e-08 -6.76527e-09 -1.06509e-08 -5.60717e-09 
527 2 4.03024 4.31517 3.61908 0 0 0 5.25048e-09 -8.29709e-09 2.09183e-08 -4.80457e-09 7.47017e-09 -1.82584e-08 -2.68848e-09 -3.52433e-11 9.46223e-10 0.5 -2.55324e-09 1.60317e-09 7.71984e-09 -6.11061e-09 -2.48544e-09 1.08108e-08 
383 1 4.36293 4.34454 2.28892 0 0 1 2.05899e-09 -5.8991e-09 1.57948e-08 -1.77401e-09 5.45505e-09 -1.39484e-08 8.62971e-10 -1.46477e-09 2.24378e-10 0.5 -9.89842e-09 -1.94345e-09 5.2219e-09 8.38609e-09 -2.30876e-09 -4.31575e-09 
992 2 0.695682 0.439322 3.85269 1 1 0 -7.64695e-10 -3.07278e-08 -1.88759e-08 3.74249e-10 2.60206e-08 1.66128e-08 1.02346e-09 4.73156e-09 3.02595e-09 0.5 -1.26005e-08 -3.10075e-08 -6.90795e-09 9.12036e-09 -4.36093e-09 1.60485e-08 
521 2 4.93615 4.52796 3.25037 0 0 0 3.24644e-09 -6.20928e-09 1.72461e-08 -3.08826e-09 5.609e-09 -1.51711e-08 -1.96873e-09 1.28298e-09 1.03404e-09 0.5 1.93167e-09 -7.80823e-09 -8.60712e-09 -4.48889e-10 -1.30097e-09 1.05895e-08 
136 1 1.88498 1.67143 2.62265 0 0 0 -6.06064e-09 -2.73993e-08 -1.63229e-08 4.96373e-09 2.33719e-08 1.44363e-08 2.98208e-09 4.3561e-09 3.23526e-09 0.5 -2.71823e-08 -2.83172e-08 -1.85993e-08 1.94673e-08 -2.35472e-09 8.32779e-09 
540 2 4.51129 0.178592 3.415 0 0 0 -1.48104e-09 -1.04045e-08 -7.23435e-09 9.16539e-10 9.37079e-09 5.8692e-09 -4.75299e-09 2.4378e-09 -3.28841e-09 0.5 8.39147e-09 5.41128e-09 1.24581e-09 -5.19568e-09 -3.54661e-09 5.05839e-09 
510 2 3.85504 2.56842 3.17077 0 0 0 -3.20598e-09 -1.23256e-08 9.16884e-09 2.36074e-09 1.08296e-08 -8.20347e-09 1.08501e-09 -5.45282e-10 1.76739e-10 0.5 7.83752e-09 1.12738e-08 -6.94075e-09 1.91427e-09 1.25392e-09 9.5198e-09 
19 1 4.3655 1.84749 2.40882 0 0 0 -4.20854e-09 -1.67823e-09 3.04307e-09 3.2541e-09 1.67402e-09 -2.96425e-09 2.72487e-09 7.40571e-10 4.64016e-10 0.5 -2.85275e-08 -1.15315e-09 -1.48495e-08 1.46118e-09 1.27296e-08 2.72201e-09 
543 2 1.07326 1.78713 3.19513 0 0 0 -9.08771e-10 -2.85286e-08 -8.78587e-09 4.86097e-10 2.41636e-08 7.93388e-09 6.17604e-09 5.58159e-09 2.09564e-09 0.5 -2.6232e-09 -3.74334e-09 -1.56132e-09 -5.46803e-09 4.58917e-09 2.76756e-09 
773 2 4.78774 2.22773 3.30763 0 0 0 -2.05817e-09 -1.03144e-08 7.83918e-09 1.41244e-09 9.2364e-09 -7.03325e-09 2.50598e-09 2.72524e-09 -2.048e-09 0.5 1.07436e-09 -2.25088e-08 -4.34361e-08 -4.13384e-09 9.07064e-09 4.38986e-08 
555 2 2.23907 2.5056 3.89852 0 0 0 2.40091e-09 -1.46074e-08 1.34196e-08 -2.44513e-09 1.28362e-08 -1.15675e-08 -1.76013e-09 -4.67449e-10 1.61736e-09 0.5 5.62379e-09 7.22046e-09 7.46072e-09 3.06488e-09 6.54852e-10 8.84425e-09 
429 1 0.306925 2.40106 3.75655 1 0 0 -9.7619e-09 -3.26107e-08 -7.26616e-09 8.16802e-09 2.77329e-08 6.63259e-09 3.34992e-09 1.34807e-09 6.04971e-09 0.5 -5.98162e-09 -4.91546e-08 -2.82872e-08 1.14356e-08 -7.38705e-09 2.73009e-08 
316 1 0.889712 0.512877 2.86992 1 0 0 -8.35219e-09 -3.0051e-08 -2.03992e-08 6.94003e-09 2.55013e-08 1.79391e-08 3.44477e-09 5.1382e-10 4.70103e-09 0.5 2.55086e-09 -5.93061e-09 -4.43474e-09 2.06154e-09 1.54592e-09 5.87714e-09 
503 2 3.61689 0.768796 2.88623 0 0 0 1.65653e-09 -1.43043e-08 -5.95631e-09 -1.52655e-09 1.24135e-08 4.85178e-09 -7.64339e-10 -1.05489e-09 2.46044e-09 0.5 -5.27719e-09 7.43845e-10 -2.9853e-08 1.40352e-09 -2.50745e-09 8.39235e-09 
896 2 0.702247 3.66501 2.63024 1 0 0 3.23903e-09 -3.14087e-08 1.18319e-08 -3.03764e-09 2.66924e-08 -9.81368e-09 3.72627e-09 1.62952e-09 -1.7067e-09 0.5 -2.02839e-08 -1.07085e-08 -3.18597e-08 5.47928e-09 -1.09154e-08 9.25255e-09 
690 2 1.93672 4.67095 2.92999 0 0 0 1.27009e-09 -1.92866e-08 2.0669e-08 -1.23636e-09 1.65411e-08 -1.76922e-08 -4.82406e-10 1.11357e-09 5.05332e-09 0.5 -2.22167e-08 -1.12377e-08 -4.56381e-09 1.47364e-08 -1.86157e-10 -2.51101e-09 
641 2 3.45948 3.5005 3.22725 0 0 0 2.57902e-09 -8.62064e-09 1.65372e-08 -2.31539e-09 7.73607e-09 -1.45023e-08 -1.72053e-09 -3.46118e-10 2.03085e-09 0.5 -2.14261e-09 3.07408e-09 -1.41557e-08 3.66984e-09 -7.20322e-09 1.77063e-08 
528 2 3.34275 4.80215 2.44243 0 0 0 5.20196e-09 -1.4795e-08 1.52738e-08 -4.69174e-09 1.28693e-08 -1.34186e-08 -2.04288e-10 5.21832e-10 8.83864e-10 0.5 -1.86622e-09 -3.48126e-09 -6.8902e-09 -3.32275e-09 -1.14696e-09 -1.61752e-09 
225 1 2.66658 2.37982 2.99794 0 0 1 -6.18908e-09 -1.75558e-08 9.0892e-09 5.08478e-09 1.51828e-08 -7.75715e-09 -1.42337e-09 3.57409e-09 1.84861e-09 0.5 -7.33134e-09 -1.87325e-08 -1.71387e-09 1.1357e-08 -5.71368e-09 -2.33866e-10 
119 1 0.614476 2.84343 2.06694 0 0 0 -1.34423e-08 -2.47707e-08 4.74671e-09 1.13558e-08 2.10467e-08 -3.81565e-09 8.50569e-09 9.0744e-10 -2.84965e-10 0.5 4.16825e-09 -1.25073e-08 -2.26429e-08 4.10668e-09 8.74059e-09 4.72157e-10 
94 1 2.46189 3.50067 2.00487 0 0 1 -8.88133e-10 -1.86526e-08 1.99388e-08 6.81462e-10 1.604e-08 -1.71787e-08 3.32539e-09 -9.0001e-10 1.01503e-09 0.5 4.60808e-09 6.25392e-09 2.31851e-09 5.68622e-09 4.78591e-09 7.54571e-09 
522 2 2.58373 2.50801 2.00903 0 0 0 -2.81422e-09 -1.8972e-08 8.63825e-09 2.30849e-09 1.63096e-08 -7.38695e-09 6.58599e-09 -2.54783e-09 2.49933e-09 0.5 8.1601e-10 1.45741e-09 -7.17426e-09 6.1669e-09 6.42187e-09 2.06431e-09 
200 1 2.46549 0.208501 4.19599 0 1 0 6.72808e-09 -1.03066e-08 -1.04539e-08 -6.36526e-09 8.76665e-09 8.88185e-09 -6.45351e-09 -4.48907e-09 1.03276e-08 0.5 -1.53657e-08 -8.34646e-09 -2.76162e-08 4.43106e-09 1.00385e-08 7.30981e-09 
114 1 4.70709 1.00384 4.17137 0 0 0 3.14468e-10 -2.84087e-09 -2.71774e-09 -7.55972e-10 2.79671e-09 2.09446e-09 -2.27823e-09 -1.44605e-09 -2.51245e-09 0.5 -9.63401e-09 2.26203e-10 -2.12881e-09 -1.22647e-09 -6.19319e-09 -6.34189e-10 
820 2 1.30996 2.29325 4.21136 1 0 0 3.96376e-10 -2.21333e-08 3.09251e-09 -5.39236e-10 1.87674e-08 -2.42475e-09 -3.90311e-09 -2.73374e-09 6.21742e-09 0.5 2.06359e-09 6.13184e-09 -6.54649e-09 1.93279e-08 5.21491e-09 1.09022e-08 
47 1 4.65574 1.582 5.43553 0 0 0 6.80948e-09 1.34283e-09 2.24644e-09 -6.4669e-09 -7.25424e-10 -2.16352e-09 8.12032e-10 3.91323e-09 1.72448e-09 0.5 -1.05154e-08 -1.73996e-08 -7.11622e-09 -4.31966e-09 -8.53821e-09 1.4323e-08 
824 2 1.64908 3.83184 5.79238 1 0 0 2.1965e-09 6.48659e-09 2.08008e-08 -1.92858e-09 -5.55002e-09 -1.77231e-08 -5.49001e-09 5.41022e-10 -1.88017e-09 0.5 -3.3991e-09 -2.78112e-09 -1.21301e-08 -7.91544e-10 -1.58103e-11 4.31592e-09 
172 1 3.44268 0.338821 4.72114 0 1 0 -3.86778e-10 8.21089e-09 -1.86416e-09 -3.35596e-10 -7.03813e-09 1.21544e-09 -7.28292e-09 -1.93416e-09 3.29889e-09 0.5 -1.40933e-08 -1.47657e-08 -5.08501e-08 -1.24159e-08 1.2464e-08 2.12639e-08 
718 2 0.202285 2.03673 5.5128 0 1 0 -2.06518e-09 -8.81897e-09 5.31756e-09 1.42142e-09 7.22511e-09 -4.21144e-09 -5.48629e-09 -2.47966e-09 -6.56887e-10 0.5 -2.37778e-08 -5.5093e-09 -1.56153e-08 1.14732e-08 -1.20327e-08 3.27006e-08 
505 2 0.484433 3.5018 5.83385 0 0 -1 -2.49719e-09 8.9979e-09 1.58968e-08 2.12499e-09 -8.23173e-09 -1.34195e-08 1.19125e-09 -2.84176e-09 7.37944e-09 0.5 -1.4374e-10 -4.20435e-08 -2.16262e-08 2.42607e-09 -5.60316e-10 3.48098e-08 
524 2 3.99535 2.7352 5.70679 0 0 0 1.80012e-08 2.10932e-08 2.43577e-08 -1.62617e-08 -1.76847e-08 -2.15074e-08 -5.7963e-09 1.62916e-08 8.2196e-09 0.5 4.08914e-10 3.90807e-09 4.55527e-09 -3.27754e-09 -3.70477e-09 3.8703e-09 
839 2 0.579387 1.61472 4.31101 1 0 0 4.93832e-09 -2.96189e-08 -1.02227e-08 -4.45056e-09 2.52148e-08 9.24611e-09 -1.96963e-09 1.0637e-10 6.40228e-09 0.5 -2.2844e-09 -3.20981e-08 -1.91725e-08 2.1888e-08 -1.71428e-09 3.40407e-08 
937 2 2.44361 3.38654 4.3372 1 0 0 4.28263e-09 -1.21869e-08 1.04243e-08 -3.86328e-09 1.0714e-08 -8.99486e-09 -4.26631e-09 -2.71733e-09 5.04353e-09 0.5 8.29557e-09 9.61578e-09 -2.1962e-08 1.36934e-08 1.74006e-09 1.05093e-08 
811 2 2.60623 3.94632 5.52498 1 0 0 1.05064e-10 5.99149e-09 1.31999e-08 -1.88408e-10 -4.92491e-09 -1.1311e-08 -5.20613e-09 -3.03432e-09 3.0544e-11 0.5 -2.33122e-09 -9.7389e-09 -3.27015e-09 -4.09126e-09 -3.74401e-09 1.01492e-08 
827 2 1.52088 3.18133 4.66349 1 0 0 5.0365e-09 -2.2318e-08 6.34328e-09 -4.33204e-09 1.89182e-08 -5.24175e-09 -7.33022e-09 -3.72365e-09 -2.58937e-11 0.5 4.72466e-09 -1.67987e-09 -1.81403e-08 1.44257e-09 1.88031e-09 1.44618e-08 
149 1 4.05563 3.93275 4.61881 0 0 0 1.32275e-09 3.16432e-09 1.78963e-08 -1.50627e-09 -2.37668e-09 -1.56658e-08 -2.58748e-09 1.04732e-09 4.38812e-09 0.5 -8.32293e-09 -8.0726e-09 6.26035e-09 2.56356e-08 -1.58117e-08 7.45385e-09 
925 2 0.623246 3.59905 4.52293 1 0 0 7.88863e-09 -1.73041e-08 2.49227e-09 -6.9051e-09 1.43743e-08 -1.89506e-09 -6.70069e-09 2.75324e-09 -1.23771e-09 0.5 5.81819e-09 -1.11504e-08 -3.15057e-09 -2.61062e-09 -2.10741e-09 5.77868e-09 
168 1 3.33522 4.60361 5.33159 0 0 0 2.00659e-09 5.22654e-09 1.8435e-08 -1.94446e-09 -4.22247e-09 -1.61431e-08 -4.37436e-09 -2.74979e-09 4.06204e-09 0.5 -1.40702e-08 -1.11872e-08 -1.18147e-08 3.96906e-09 -7.25311e-09 9.44562e-09 
928 2 1.57471 4.4088 4.9787 1 0 0 3.70517e-09 4.20277e-09 1.92441e-08 -3.21244e-09 -3.46848e-09 -1.63057e-08 -3.35892e-09 9.11705e-10 -3.27331e-09 0.5 -6.09622e-09 -7.62766e-09 -7.75172e-09 -3.92208e-09 6.83593e-10 6.71012e-09 
148 1 3.93983 3.74234 5.7457 0 0 0 -1.27041e-09 2.03893e-08 2.54974e-08 7.73063e-10 -1.70747e-08 -2.22157e-08 -6.09768e-09 -2.23489e-09 1.11358e-08 0.5 6.14695e-09 1.25458e-08 1.49937e-08 9.03641e-09 1.03857e-08 9.02123e-09 
914 2 4.69244 4.38506 5.24423 0 0 0 -6.24982e-09 1.16734e-08 1.96217e-08 5.07041e-09 -9.4481e-09 -1.73931e-08 -9.18659e-09 -2.51119e-09 -9.62098e-10 0.5 -3.85043e-10 3.25549e-09 5.71427e-09 9.62049e-10 1.98902e-09 3.61887e-09 
23 1 2.87773 1.11847 4.05716 0 0 0 -1.0662e-09 -7.08266e-09 -9.2054e-09 3.97181e-10 6.02302e-09 7.94822e-09 2.47214e-09 -3.24685e-10 2.55084e-09 0.5 -1.20869e-08 -1.15203e-08 -9.56234e-09 -4.35141e-09 6.12371e-09 8.87514e-09 
594 2 2.05586 1.97089 4.80241 0 0 0 4.98749e-09 3.02116e-09 9.66122e-09 -4.58354e-09 -2.79729e-09 -7.93129e-09 2.54481e-09 -3.07438e-09 8.6271e-09 0.5 4.47562e-11 -1.49494e-08 -3.12147e-09 1.133e-08 -5.43913e-09 8.96797e-09 
539 2 3.78455 1.04074 5.46912 0 0 0 2.76061e-09 1.65217e-08 5.85123e-09 -2.92594e-09 -1.40342e-08 -5.39037e-09 -2.99501e-09 5.42715e-09 -1.23039e-09 0.5 -5.15429e-09 -4.90765e-08 -2.11839e-08 -1.57599e-08 -1.32363e-08 4.11008e-08 
730 2 0.461765 1.11568 5.16957 0 1 0 3.58021e-11 -9.64003e-09 7.2813e-10 -4.73089e-10 7.92061e-09 -2.51708e-10 -2.48384e-09 -1.39487e-09 8.30726e-09 0.5 1.34495e-08 -2.55469e-09 -1.13555e-08 2.38658e-09 -3.06335e-09 2.35372e-08 
689 2 3.51933 0.103669 5.69619 0 1 0 -1.07157e-09 1.55542e-08 -2.55577e-09 4.23682e-10 -1.32061e-08 1.8615e-09 -1.77995e-09 -2.08396e-09 -4.42394e-10 0.5 -2.02641e-08 -6.0163e-08 -5.22006e-08 -6.79137e-09 1.57436e-09 4.50966e-08 
450 1 0.619288 4.79871 4.46892 1 0 0 1.83319e-08 -1.28686e-08 1.32108e-08 -1.5821e-08 1.07945e-08 -1.09847e-08 -1.31136e-08 -3.27214e-09 2.3116e-09 0.5 -6.46186e-09 -1.80502e-08 -3.87343e-08 1.5075e-09 -6.77499e-09 2.15056e-08 
549 2 4.49944 0.500888 5.01435 0 0 0 -7.19851e-09 5.08609e-09 4.72478e-10 5.70498e-09 -4.1342e-09 -7.30955e-10 -2.11534e-09 2.21569e-09 -5.50463e-09 0.5 1.53223e-08 2.03554e-08 9.9751e-09 -9.18891e-09 -5.73361e-09 9.62559e-09 
591 2 1.44655 1.12499 4.40334 0 0 0 9.60408e-09 -2.19399e-08 -1.57293e-08 -8.55722e-09 1.84382e-08 1.39044e-08 -3.95076e-09 4.16624e-09 9.12303e-10 0.5 -1.22435e-08 -1.90406e-08 -1.47905e-08 4.90983e-09 1.71355e-09 1.45893e-08 
243 1 1.20287 1.83742 5.34381 0 1 0 -3.08308e-09 1.13114e-11 -1.18375e-09 2.25173e-09 -3.62549e-10 1.28477e-09 -2.09483e-09 -1.67661e-09 4.62683e-09 0.5 -6.89975e-09 -7.52221e-09 -3.14396e-09 9.45141e-09 -3.16708e-09 1.1046e-08 