ITEM: TIMESTEP
44000
ITEM: NUMBER OF ATOMS
1000
ITEM: BOX BOUNDS xy xz yz pp pp pp
0.0000000000000000e+00 1.0000000000000000e+01 0.0000000000000000e+00
0.0000000000000000e+00 1.0000000000000000e+01 0.0000000000000000e+00
-0.0000000000000000e+00 1.0000000000000000e+01 0.0000000000000000e+00
ITEM: ATOMS id type x y z ix iy iz vx vy vz fx fy fz omegax omegay omegaz radius c_2[1] c_2[2] c_2[3] c_2[4] c_2[5] c_2[6] 
646 2 2.03818 1.65632 1.9383 -91 0 0 -317.124 5.58606 -10.0743 -858.448 1823.4 -1063 0 0 0 0.5 -52856.8 -485.486 -798.836 1163.88 -2038.51 342.867 
542 2 1.76135 0.0872422 0.952096 -201 0 1 -487.489 18.0348 13.8459 -502.831 4530.2 -4637.84 0 0 0 0.5 -125665 -225.725 -452.716 5752.74 3000.87 -228.902 
496 1 0.229502 2.66765 0.55005 255 1 1 -256.999 8.03111 -24.445 13.5111 -463.62 291.51 0 0 0 0.5 -34589.2 -523.173 -507.266 1032.92 -3290.73 209.02 
697 2 2.18185 0.847925 0.469056 -95 0 1 -381.851 5.99633 -15.213 -2319.83 -2190.95 3376.9 0 0 0 0.5 -76839.5 -563.263 -615.504 2407.67 -2820.89 -678.352 
385 1 0.466737 1.01529 0.965826 -197 0 0 -371.812 7.98351 6.64171 -51.6467 -943.429 1286.1 0 0 0 0.5 -72647.2 -499.247 -111.902 1861.75 1414.62 -84.3903 
233 1 3.54338 2.45348 0.708184 -42 0 1 -275.648 -6.33919 23.4183 591.084 -1182.96 -555.912 0 0 0 0.5 -41920.5 -952.959 -501.949 540.604 4237.57 -414.486 
878 2 0.905511 1.61228 0.268791 -1 0 0 -312.504 5.8576 6.64515 -391.03 2045.82 137.243 0 0 0 0.5 -51111.7 -1063.72 -132.315 1105.26 1029.76 131.473 
877 2 1.43321 3.62395 1.00156 285 1 1 -176.407 -4.12546 -7.74652 479.34 975.455 835.274 0 0 0 0.5 -16212.2 330.411 217.382 -214.312 -572.739 273.825 
86 1 1.77509 4.31967 1.5973 -103 0 1 -95.2503 -13.4774 6.13781 -401.593 -776.695 -1106.05 0 0 0 0.5 -4678.91 230.902 119.297 -526.193 483.243 392.703 
73 1 4.18238 2.15028 0.504634 -79 0 1 -292.533 1.76308 24.0125 264.412 861.021 80.0166 0 0 0 0.5 -46867.7 -959.022 -1773.96 1527.8 3686.31 38.0466 
680 2 1.04789 0.647499 0.359069 -166 0 0 -387.197 29.9588 -18.9505 1386.48 -2042.35 2225.48 0 0 0 0.5 -78800.2 -1977.34 -211.528 6543.41 -4152.85 -117.862 
892 2 0.0964003 1.82078 0.719726 4 0 0 -339.828 5.56966 -16.4598 141.527 577.789 1290.54 0 0 0 0.5 -60619.6 -624.048 -778.981 1179.97 -3285.56 275.143 
400 1 1.84449 1.22101 1.16343 -111 0 -1 -384.105 17.9938 -4.38427 -413.692 -32.8638 -135.814 0 0 0 0.5 -77308 -308.235 -436.977 3635.47 -858.03 -176.87 
273 1 0.874614 2.58603 1.47966 -193 0 1 -259.699 2.91565 0.45605 0 0 0 0 0 0 0.5 -35313.5 -4.45112 -0.108899 396.465 62.013 -0.696221 
251 1 0.513638 0.536447 1.77121 -81 0 0 -430.342 14.9207 36.3415 988.32 982.425 -1921.2 0 0 0 0.5 -97781.1 -1389.63 -1148.92 4225.14 8624.31 -495.948 
930 2 0.892939 0.0682318 1.15129 -131 0 0 -474.504 12.232 -4.98962 -2459.03 2690.87 -2426.83 0 0 0 0.5 -118956 -529.416 11.8165 3529.5 -1228.27 -147.407 
172 1 1.94871 1.67359 0.108681 32 1 1 -342.234 1.06276 13.655 -499.487 1322.62 398.049 0 0 0 0.5 -61492.3 -835.088 -712.412 439.652 2276.68 519.124 
915 2 4.75471 1.55982 0.85563 121 1 -1 -340.423 8.29265 8.71767 1511.87 -1843.4 735.547 0 0 0 0.5 -61550.5 -608.442 -15.4421 2073.71 1276.96 216.092 
271 1 2.87952 3.00567 1.0523 -143 0 0 -176.906 -0.354261 -1.00196 -4506.33 2699.38 239.717 0 0 0 0.5 -17744.7 -576.362 -960.05 1083.22 259.165 -230.036 
471 1 2.03747 0.560896 1.78101 162 1 1 -416.768 -2.11653 4.03352 -2832.97 4136.07 342.585 0 0 0 0.5 -91599.8 -1533.34 -157.786 250.844 739.571 -307.848 
416 1 0.31295 3.5774 0.659148 -126 0 0 -169.426 0.560568 4.11223 459.947 130.456 -404.856 0 0 0 0.5 -15313.7 -485.102 -698.701 -132.519 566.373 222.089 
972 2 3.31082 3.59522 0.340385 26 0 0 -155.822 -7.6287 17.3982 -1746.92 -2408.51 523.806 0 0 0 0.5 -13977.3 -47.793 -439.39 -402.204 1034.97 384.958 
200 1 2.57511 2.15361 1.19506 -108 0 0 -323.389 18.6922 9.56045 -407.921 2530.22 1197.13 0 0 0 0.5 -54893.2 -107.692 148.912 3710.59 1920.62 -165.975 
392 1 3.43424 4.52559 0.314018 -34 0 0 -35.0743 -29.9116 6.76505 -1259.42 2144.72 693.921 0 0 0 0.5 -1286.79 -520.455 -171.06 -411.071 585.314 -46.3296 
736 2 2.86 1.66169 0.0301463 -175 0 0 -333.353 16.115 -30.1528 -993.398 550.47 -272.445 0 0 0 0.5 -58749.1 -236.858 -476.251 3032.58 -5378.96 312.814 
647 2 3.44721 4.11153 1.54265 -69 0 1 -111.453 6.53401 -1.68629 -492.073 -627.532 707.105 0 0 0 0.5 -6391.2 161.143 231.494 525.19 -260.539 -200.996 
136 1 3.04772 2.58207 1.93239 -97 0 0 -220.774 9.92928 -20.8605 -598.842 85.4406 521.705 0 0 0 0.5 -25598.1 -640.511 -631.143 1350.09 -2427.8 597.528 
231 1 3.0722 1.59804 0.934068 -9 0 1 -343.67 3.93494 -13.2287 -118.535 -515.625 -32.76 0 0 0 0.5 -62533.7 -522.489 -618.258 1182.47 -1969.68 -212.47 
72 1 3.83369 0.715171 0.698728 223 1 1 -407.503 -11.736 28.584 -714.179 -579.642 407.761 0 0 0 0.5 -87429.3 -254.285 -705.077 -2325.43 5767.71 546.143 
431 1 3.78796 0.375803 1.76201 -140 0 1 -419.135 -15.666 18.5593 1199.57 -970.1 670.811 0 0 0 0.5 -92413.7 -432.059 -110.656 -3062.94 3897.94 361.458 
641 2 1.33302 4.74802 0.676863 52 0 0 -10.9761 -27.2816 -8.22506 424.288 1211.88 805.801 0 0 0 0.5 26.1665 29.9363 401.558 -82.8603 148.498 -7.34917 
613 2 0.560736 4.11405 0.141101 18 0 1 -78.3632 -3.60821 12.3798 -185.511 691.01 1123.92 0 0 0 0.5 -3317.48 -215.377 -974.754 -236.517 800.94 218.317 
482 1 3.64452 1.30009 0.248892 205 1 1 -350.989 10.3592 1.37027 -171.597 694.865 -593.728 0 0 0 0.5 -66082.1 -624.977 -797.934 2593.37 676.694 4.2752 
241 1 3.7961 2.99288 1.34752 220 1 0 -185.435 16.9225 12.8363 -1345.38 2059.94 -378.636 0 0 0 0.5 -18673.5 -704.933 22.0374 2307.42 1117.92 -19.6494 
900 2 4.0937 3.59738 0.424079 -46 0 0 -160.588 16.4042 1.4148 -495.486 1117.15 1162.03 0 0 0 0.5 -15237.7 -278.268 -853.069 1672.01 232.92 44.0827 
744 2 0.098183 4.39874 1.66501 -39 0 0 -118.666 30.9268 5.01683 444.581 -464.237 -1312.85 0 0 0 0.5 -8050.93 -61.5467 -301.305 1928.58 217.907 181.756 
829 2 4.31847 2.42195 1.37101 122 1 1 -236.669 -9.95157 21.8488 2268.8 -3743.75 -1432.77 0 0 0 0.5 -29914.1 10.8896 -1375.17 -334.306 3052.89 129.758 
436 1 0.126708 3.46628 1.52924 179 1 0 -180.674 -3.89538 -1.91976 296.944 1198.88 586.878 0 0 0 0.5 -17275.4 521.627 -756.619 -444.937 129.494 199.127 
999 2 3.07743 1.74055 1.96884 -111 0 1 -304.174 1.39084 8.63009 -1471.74 2482.07 -1424.18 0 0 0 0.5 -48728.6 -1870.28 -599.245 801.374 1014.84 564.18 
839 2 2.32262 4.81128 0.284501 -106 0 1 -5.93409 -25.9341 4.46971 510.283 -600.609 523.92 0 0 0 0.5 -153.751 -516.466 -158.838 63.2854 -127.651 209.255 
998 2 3.93373 1.52384 1.24662 -222 0 1 -348.921 -2.44974 24.9497 1299.78 1118.26 453.408 0 0 0 0.5 -63641.2 884.25 -196.176 -157.875 4691.57 195.716 
508 2 3.11016 1.00085 1.57353 -9 1 0 -375.108 -10.5128 -3.16593 -2242.21 -435.816 -1499.88 0 0 0 0.5 -74166.2 -647.216 -747.743 -1516.83 -1116.11 -138.189 
429 1 4.65031 0.606092 1.17912 -73 0 0 -412.229 -11.3711 5.68189 1064.62 -595.093 226.181 0 0 0 0.5 -89428.3 -223.461 -304.445 -2406.9 949.453 -70.2477 
405 1 4.63512 3.27999 0.895649 -73 0 0 -171.035 -6.32816 9.52312 -753.571 -768.338 998.015 0 0 0 0.5 -15998.7 -766.98 -1236.23 20.8037 733.354 -436.615 
675 2 4.52569 3.96898 1.44452 1 0 1 -107.001 13.5267 -14.1295 -793.16 2294.5 231.953 0 0 0 0.5 -6185.94 -732.148 -556.819 1123.21 -838.573 -95.6893 
444 1 4.51043 4.49741 0.576964 26 0 1 -78.5959 -2.82365 12.4093 645.042 290.722 1583.97 0 0 0 0.5 -3235.25 30.0798 -393.33 -82.8231 442.914 62.863 
948 2 4.70701 1.26594 1.8021 264 1 0 -322.383 -11.45 5.67666 155.811 74.5997 -543.963 0 0 0 0.5 -54376.9 -311.389 -223.291 -1883.22 1197.64 -288.781 
153 1 4.43343 4.00968 2.40593 -64 0 -1 -78.3087 -2.77584 -9.97148 61.2969 945.157 -501.551 0 0 0 0.5 -4317.43 -1099.52 -360.224 545.367 -73.0014 0.629248 
90 1 2.73278 0.381799 2.14614 -97 0 1 -418.538 -4.43071 24.9431 735.581 -2071.57 -2701.58 0 0 0 0.5 -91888.4 425.339 -260.558 -252.703 5575.48 427.64 
990 2 2.40321 1.12321 2.54338 -114 0 0 -402.426 13.4284 12.2918 296.919 -671.801 1192.67 0 0 0 0.5 -85059.9 -745.889 -1006.13 3241.14 2196.34 290.857 
32 1 1.30478 1.8633 3.76849 249 1 0 -288.265 3.82806 5.23054 -2924.72 1109.64 1818.47 0 0 0 0.5 -46368.7 -999.723 -889.641 1713.99 1546.71 -308.584 
596 2 1.19503 1.0653 3.52703 -71 0 0 -411.478 6.53505 -5.19573 -1531.88 2333.33 1884.11 0 0 0 0.5 -89121.4 -1575.23 -559.428 2166.81 -1357.65 71.3072 
653 2 4.69916 3.30311 2.5437 250 1 0 -137.974 -20.9779 -1.82393 30.5324 -935.868 2190.78 0 0 0 0.5 -10208.4 -1576.5 -612.519 -1088.7 81.2831 -124.018 
181 1 0.0238146 2.8291 2.83895 18 0 1 -217.658 9.95901 28.0173 1180.12 -2366.29 -548.816 0 0 0 0.5 -25045.2 -982.299 -413.869 1700.78 3294.58 -355.135 
562 2 0.380191 2.13831 2.39543 142 1 0 -249.793 -10.5651 -9.25358 -2113.26 3332.52 -2077.85 0 0 0 0.5 -33108.5 -1128.13 -502.394 -697.239 -1675.78 682.895 
861 2 2.98863 3.52671 2.20163 -17 0 1 -171.413 11.2435 -6.90156 298.227 605.179 -687.744 0 0 0 0.5 -15183.4 106.74 206.309 1186.75 -783.875 -173.506 
852 2 2.16321 1.47585 3.48832 -109 0 1 -386.362 2.37866 9.2313 2579.14 -632.859 368.942 0 0 0 0.5 -81037.6 -1165.11 -779.831 2189.24 2265.4 -231.995 
678 2 4.54684 4.28145 3.29519 -54 0 0 -31.6173 -29.4549 5.28259 -316.641 -306.465 -365.635 0 0 0 0.5 -654.195 -571.374 -97.7366 -474.282 -13.4642 57.5238 
704 2 4.61416 4.99696 2.50911 240 1 0 -55.6402 3.41798 20.7751 -603.416 -243.441 -1698.09 0 0 0 0.5 -2208.55 -35.8131 -1396.16 196.583 743.363 -143.558 
493 1 2.46598 4.3073 3.37103 351 1 0 -51.7871 -16.6289 -6.27602 659.028 249.314 -257.465 0 0 0 0.5 -1322.7 -66.7429 -335.481 -374.401 -93.7113 84.8754 
663 2 1.31682 3.35418 3.2577 233 1 1 -143.777 -4.40869 -7.10095 -2416.2 1296.6 1498.51 0 0 0 0.5 -11113.4 -546.771 -748.457 705.799 -302.47 -923.165 
789 2 0.833735 2.50245 3.40962 -161 0 0 -258.345 15.1319 -14.2935 390.525 2831.99 -1266.99 0 0 0 0.5 -34903.3 228.517 -343.924 2634.26 -2072.7 248.662 
824 2 3.91595 2.44994 2.27552 -105 0 0 -220.869 9.10333 -12.4073 -1129.76 2451.49 1756.21 0 0 0 0.5 -25841.1 -958.13 -963.051 1522.48 -1185.37 124.833 
660 2 1.70409 1.81639 2.9413 138 1 1 -352.401 -4.75425 -22.7141 -805.649 152.801 -2199.61 0 0 0 0.5 -65401.4 -457.366 -1036.35 -656.869 -4363.48 226.486 
668 2 1.69673 2.59859 2.80182 -76 0 0 -272.006 22.9758 -12.9882 1810.36 -2119.23 -2389.09 0 0 0 0.5 -39006.1 -1667.3 -441.404 3943.86 -1544.99 -618.512 
184 1 1.5166 3.85306 2.43151 49 0 0 -145.434 16.4711 2.53585 761.209 209.48 578.464 0 0 0 0.5 -11753.8 -407.549 -152.007 1509.48 217.978 -1.73484 
823 2 1.5111 0.495943 3.44854 167 1 -1 -457.895 3.03885 -1.01238 1488.34 -1122.14 -320.097 0 0 0 0.5 -110206 -2097.95 -208.57 1507.13 -214.008 -352.94 
928 2 2.81725 2.73994 3.8803 90 0 1 -172.77 -5.46379 -11.4671 2521.49 -657.205 -628.062 0 0 0 0.5 -16787.6 -67.5188 -211.373 -263.233 -1096.21 -49.5409 
891 2 2.06115 3.18784 2.23008 -49 0 0 -172.272 -6.14002 -25.4297 481.374 -886.866 140.863 0 0 0 0.5 -15548.8 -111.103 -262.156 -291.911 -2306.5 -242.557 
127 1 1.43603 0.94835 2.5227 -120 0 0 -403.459 -2.25766 -16.4505 1325.7 -2644.85 -652.101 0 0 0 0.5 -85655.7 63.1243 -260.098 245.759 -3242.04 -368.543 
842 2 1.0131 0.137661 2.71779 -224 0 1 -518.67 23.6277 18.0421 540.843 3431.34 -502.727 0 0 0 0.5 -142266 -233.268 -899.815 6787.13 4964.37 -397.319 
255 1 2.1189 2.89729 3.93337 -114 0 0 -173.124 -17.4411 -22.8607 -1887.41 923.231 -655.461 0 0 0 0.5 -16986.8 -1455.86 -373.576 -964.032 -1901.58 -150.953 
188 1 0.809372 1.46451 2.83592 156 1 0 -363.225 4.51516 -14.0714 550.813 -900.706 1357.59 0 0 0 0.5 -70837.6 -1674.35 -1248.84 2208.23 -3034.2 806.205 
731 2 1.79573 4.80262 2.91419 404 1 0 -26.6513 8.69855 -22.3479 680.828 -1668.53 487.791 0 0 0 0.5 -616.145 -659.336 -637.904 442.396 -627.63 -128.154 
843 2 3.79206 3.38777 3.03069 24 0 0 -170.503 25.2855 -36.1996 -52.4535 184.046 -200.473 0 0 0 0.5 -15225.6 -383.618 -744.093 2271.29 -3246.89 532.475 
305 1 1.2475 4.44305 3.56878 33 0 0 -43.2764 -9.54765 -14.1003 720.729 921.853 1134.45 0 0 0 0.5 -846.964 146.694 626.209 -69.4366 -215.924 189.713 
31 1 1.28059 4.91556 2.23923 11 0 0 -54.157 -7.01307 -8.90652 -351.486 -1004.79 -1137.99 0 0 0 0.5 -1757.65 -494.557 -343.356 -16.1399 -512.771 -17.5768 
541 2 2.81256 4.50913 2.33987 231 1 1 -29.4686 -12.3155 -7.74434 -486.756 15.2798 -173.354 0 0 0 0.5 -681.328 -79.6383 -60.1482 -182.911 -200.207 -47.4047 
636 2 4.26818 1.70529 2.3431 -177 0 1 -315.704 -11.1484 33.7614 2794.01 735.274 242.417 0 0 0 0.5 -51843.9 -84.1827 -722.894 -483.706 5492.56 -94.6129 
245 1 3.94336 2.8569 3.60894 -102 0 0 -214.443 8.94081 5.83769 -678.373 1587.7 259.627 0 0 0 0.5 -24223.5 -750.569 -194.525 1299.15 708.72 -17.3648 
236 1 2.62971 0.11923 2.98961 -129 0 1 -511.318 -5.25292 18.8583 -5.54587 393.687 1091.53 0 0 0 0.5 -136892 228.092 -470.065 -1379.6 5107.98 280.51 
379 1 0.427435 3.64182 3.47722 -102 0 1 -143.011 1.42674 -13.568 -378.398 122.376 93.3997 0 0 0 0.5 -10877.1 -18.6653 -106.642 161.254 -974.449 -3.29647 
260 1 3.4604 0.998013 2.46407 -235 0 1 -442 9.27614 -1.06985 2218.66 -3135.15 3141.94 0 0 0 0.5 -102658 -1026.71 -1049.97 2653.05 -930.245 809.839 
306 1 4.32283 2.08978 3.43716 201 1 0 -277.968 -5.42469 -27.9847 -1534.23 72.0076 -569.474 0 0 0 0.5 -41650.2 -940.332 -337.903 55.6621 -4443.73 13.1233 
457 1 0.723044 4.01594 2.33759 22 0 0 -155.331 8.39769 -4.01019 2142.6 -4272.51 -1363.08 0 0 0 0.5 -14074 -1657.93 -624.016 1948.49 -139.504 -549.867 
414 1 3.26263 4.36103 3.96942 62 0 0 -37.4039 6.14399 -11.1957 -153.955 47.931 -479.653 0 0 0 0.5 -680.577 -26.3135 -30.5633 111.179 -64.216 62.9084 
286 1 0.226753 4.75319 2.69171 231 1 0 -4.05209 -19.4369 15.803 -2766.29 4109.41 1973.86 0 0 0 0.5 -695.039 -1712.65 -480.256 978.492 523.333 -566.789 
819 2 3.47247 2.04638 3.07768 -21 0 0 -288.866 -16.2355 -20.9021 -316.352 -16.1447 -133.733 0 0 0 0.5 -43825.5 -138.366 -252.795 -2462.48 -3218.3 -180.588 
830 2 2.75282 0.974649 3.37211 156 1 0 -418.118 8.49566 16.8906 2475.1 -1577.11 -2646.9 0 0 0 0.5 -92457.9 -698.276 -1400.66 2743.65 3530.33 526.689 
657 2 3.74376 4.4799 2.67151 30 0 1 -45.0976 -3.17795 13.6853 -1287.5 1194.43 856.587 0 0 0 0.5 -1903.35 -289.927 -217.534 349.22 478.038 -135.33 
362 1 4.88059 2.46089 2.16733 -118 0 -1 -203.752 -19.8564 3.47704 -2467.42 -3328.26 -683.426 0 0 0 0.5 -20916.6 501.834 -199.376 -1121.68 59.3614 -564.629 
703 2 1.38667 0.397914 5.54875 -155 0 -1 -479.235 30.1408 4.47152 986.248 1502.76 -305.422 0 0 0 0.5 -121062 -903.272 -23.2811 7648.55 1152.69 -3.96864 
20 1 2.1121 1.15877 5.97798 -229 0 0 -386.001 5.68244 17.7105 0 0 0 0 0 0 0.5 -78014.5 -16.9071 -164.234 1148.48 3579.47 -52.6945 
643 2 1.19958 0.735425 4.53045 -100 0 1 -473.461 -2.31948 9.08667 942.085 -2161.41 1127.09 0 0 0 0.5 -118796 -1173.47 -459.896 -29.3967 2047.48 -256.87 
121 1 1.52004 3.81914 5.09742 63 0 1 -119.854 -1.69179 -20.0802 -657.028 -421.761 692.657 0 0 0 0.5 -8529.05 -956.087 -272.915 834.177 -1006.82 -217.12 
47 1 1.64395 3.50092 4.11775 -294 -1 0 -134.112 16.2975 -14.9693 -1211.84 1649.29 594.416 0 0 0 0.5 -9810.02 -589.192 -633.813 1492.43 -1180.42 -16.1197 
765 2 3.46792 0.680913 5.5574 465 2 0 -415.323 9.09584 -19.7009 -395.603 672.008 -1173.9 0 0 0 0.5 -91369 -1849.83 -584.729 2991.26 -4064.52 434.411 
146 1 4.70273 0.506083 4.80518 -55 0 -1 -438.296 -41.5601 8.11235 -698.11 -3.9239 -653.149 0 0 0 0.5 -101070 -834.276 -335.352 -9482.43 2062.2 20.583 
692 2 2.14597 3.35311 4.88631 47 0 0 -140.455 -2.38757 -12.2574 -360.805 -289.684 -315.216 0 0 0 0.5 -12109.2 -643.807 -350.896 865.557 -822.444 -137.511 
134 1 0.249026 2.20704 4.88678 -59 0 1 -274.988 -10.381 -3.378 -3504.97 4039.75 -1651.27 0 0 0 0.5 -39319.7 194.114 -393.341 196.018 -254.953 -484.754 
114 1 2.03369 0.423349 4.24765 -207 0 0 -489.138 4.86735 19.1128 1218.28 -672.342 -29.5279 0 0 0 0.5 -126186 -106.167 -420.679 1453.92 5055.11 -107.226 
404 1 2.4497 4.19098 4.31611 -46 0 0 -45.981 -32.7412 -14.64 -48.3531 585.463 1302.27 0 0 0 0.5 -1186.39 -299.184 -444.2 -729.53 -260.055 -54.5602 
226 1 0.582618 2.092 4.14757 -127 0 0 -307.309 -13.1744 -31.4119 -1555.2 -197.483 -696.388 0 0 0 0.5 -50225 -759.027 -1436.07 -1729.5 -4686.57 -142.133 
104 1 4.05181 1.3768 5.12879 -22 0 1 -373.395 16.7648 12.0183 1263.65 3185.95 -197.007 0 0 0 0.5 -72669.7 278.611 -598.407 4020.33 2092.5 288.703 
352 1 3.38971 4.72163 5.95358 -163 -1 -1 28.1387 16.7155 -18.0328 2081.94 756.71 183.956 0 0 0 0.5 -1151.87 -325.465 -579.578 -207.222 -126.397 367.176 
361 1 4.15957 0.0824674 4.02835 -207 0 0 -517.634 2.52644 -19.5577 -598.111 322.493 -27.4899 0 0 0 0.5 -140502 -63.245 -200.713 795.847 -5310.24 30.9779 
122 1 1.91499 1.53961 4.98564 261 1 -1 -329.099 -7.34322 18.8128 622.413 29.4041 -169.419 0 0 0 0.5 -56432.5 -28.9646 -166.001 -1248.41 3155.05 70.5447 
510 2 1.00856 1.58085 4.71284 -176 0 0 -334.536 -0.314441 4.49862 2318.56 85.141 411.03 0 0 0 0.5 -59635.5 -1801.26 -481.261 1006.78 953.918 -205.817 
330 1 0.279934 2.47926 5.75231 184 1 -1 -249.096 -0.340597 2.59593 1124.66 3377 582.802 0 0 0 0.5 -32490.9 -147.977 -370.299 573.991 403.093 44.9577 
608 2 3.91126 2.23773 4.25488 -63 0 0 -271.084 -13.3492 -0.742143 -2726.8 -1516.53 -1830.45 0 0 0 0.5 -40437.7 -671.959 -200.291 -768.62 -68.611 -216.862 
592 2 4.34688 0.833279 5.62242 165 1 0 -408.704 -18.1482 3.9112 189.518 -1970.89 688.427 0 0 0 0.5 -88562.3 -820.759 -1052.18 -3781.81 757.804 -58.5947 
727 2 1.08035 2.57485 5.15061 -72 0 0 -247.878 12.469 -4.66661 -999.555 -411.442 -59.132 0 0 0 0.5 -31750.2 3.54988 157.905 1805.62 -465.336 107.443 
443 1 2.73667 4.72436 5.64022 36 0 0 17.3366 -15.4774 -8.57766 -673.787 -1601.35 15.3743 0 0 0 0.5 -1270.1 -680.553 -379.913 566.776 -579.527 277.017 
142 1 0.39817 0.809745 4.02641 18 1 0 -421.206 -7.66326 -14.1645 -1320.85 -55.5003 -1195.26 0 0 0 0.5 -93786.3 -98.0212 -385.743 -1498.24 -3633.34 -12.0155 
869 2 0.558543 1.64325 5.55798 -50 0 1 -347.39 -21.5714 -1.48997 733.963 -2141.19 1871.29 0 0 0 0.5 -63379.7 -1075.27 -271.884 -3580.26 -336.092 243.656 
29 1 0.555502 0.228359 5.62315 94 1 0 -469.546 1.29553 4.56727 -38.6146 974.817 -810.001 0 0 0 0.5 -117225 -705.95 -368.684 536.156 1150.4 10.786 
201 1 2.17127 1.94674 4.1776 -177 0 0 -307.546 19.0291 26.1987 -1162.68 -381.498 -490.169 0 0 0 0.5 -50465.7 -1235.19 -1001.46 3418.55 3557.9 133.144 
865 2 3.44351 4.10343 4.88529 -46 0 1 -88.459 21.573 7.97991 35.7123 461.037 -464.838 0 0 0 0.5 -4098.75 -381.39 -237.335 995.295 369.303 70.8068 
725 2 0.113743 0.914292 5.00737 -141 0 0 -439.154 15.1676 -6.30973 681.245 -1380.99 -4.37166 0 0 0 0.5 -101288 76.086 41.5443 3805.55 -1280.52 -411.395 
623 2 2.00613 2.8092 5.98226 -61 0 0 -237.967 7.2669 -6.77325 2141 -719.623 690.22 0 0 0 0.5 -30325.3 -655.161 143.284 1408.45 -536.226 222.51 
637 2 0.415563 2.90267 4.27014 -86 0 1 -203.934 22.7956 -42.336 -717.877 -1008.9 2085.53 0 0 0 0.5 -21747.8 61.0672 -336.761 2673.55 -4673.39 -147.918 
117 1 0.212826 3.24657 5.03157 -93 0 0 -155.572 16.2073 7.3349 41.1465 -69.7963 -154.535 0 0 0 0.5 -12668.3 -125.535 30.6632 1313.13 581.817 -35.6726 
708 2 0.775684 3.29042 5.85964 -241 0 0 -168.872 -0.0237003 -23.4995 -2343.73 340.337 -1323.46 0 0 0 0.5 -14978.7 -267.678 -423.449 685.577 -2223.36 305.578 
805 2 3.4904 2.73618 4.55389 -136 0 1 -210.366 9.98055 23.5944 2258 722.656 -279.147 0 0 0 0.5 -24938.9 -834.327 -995.855 2090.02 3417.42 -741.428 
921 2 4.10991 3.08035 5.35993 16 0 1 -171.675 -9.00461 6.12751 -852.129 -507.317 -1664.06 0 0 0 0.5 -16688.5 -236.041 -1291.16 -425.629 924.751 -59.1865 
208 1 1.10267 4.37771 5.12112 -14 0 0 -81.6666 37.4453 -9.08428 1137.24 2434.52 -871.303 0 0 0 0.5 -4713.67 -1239.13 39.0299 2047.49 -228.133 65.638 
655 2 3.73615 1.33502 4.39746 -145 0 1 -332.19 -32.534 -27.2589 -223.277 618.373 -892.668 0 0 0 0.5 -57817.4 -256.542 -670.575 -5609.34 -4876.81 -527.562 
857 2 2.54523 3.80992 5.69378 -119 0 0 -159.3 12.1391 -1.52782 634.176 537.169 -920.334 0 0 0 0.5 -14334.9 -213.185 -358.289 1027.76 233.212 105.666 
802 2 1.51132 4.87975 4.42491 6 0 0 11.9183 7.85943 -1.83975 -676.983 -1023.48 -1070.69 0 0 0 0.5 31.4056 200.268 757.478 106.208 124.644 228.691 
952 2 3.04858 0.225428 4.86132 181 1 0 -493.206 2.99814 -3.13984 614.102 -177.145 1754.72 0 0 0 0.5 -127334 -39.8489 -412.756 870.947 -782.05 370.506 
257 1 0.32703 4.34551 5.30226 -27 0 0 -66.691 0.140153 8.60863 -301.698 1640.57 1549.27 0 0 0 0.5 -3992.83 734.204 -16.3466 92.8151 432.754 278.699 
232 1 2.83087 1.59757 4.70203 -174 0 1 -322.369 5.09378 -24.2945 1163.87 -785.918 1155.12 0 0 0 0.5 -54790 -247.061 -912.624 1250.48 -4769.25 441.288 
553 2 2.90373 0.556827 4.07069 -130 0 0 -484.593 21.4015 7.12052 841.067 -932.999 1178.53 0 0 0 0.5 -123244 -671.305 -1502.19 5556.76 1553.57 707.558 
82 1 2.84509 3.00357 4.90488 208 1 -1 -163.177 -1.38918 17.2631 -964.581 -149.926 2365.32 0 0 0 0.5 -16175.7 -376.04 -446.334 904.908 2094.21 -337.593 
790 2 2.66944 4.92839 4.6945 -25 0 1 52.3536 -9.11144 -19.3285 259.963 -686.232 -677.64 0 0 0 0.5 -1419.91 316.481 -107.779 455.17 617.279 -85.9821 
966 2 3.41936 3.54368 5.51243 236 1 0 -164.363 5.41583 12.8528 -55.9763 92.4165 -374.39 0 0 0 0.5 -14961.8 -372.763 -727.285 839.545 1350.14 62.4687 
450 1 3.0672 1.21536 5.47565 -87 0 -1 -395.851 27.1746 17.1413 -1829.1 2389.12 172.19 0 0 0 0.5 -82470.1 -1156.78 -395.55 6202.62 3402.08 -23.348 
898 2 2.72306 2.31224 5.5407 -95 0 -1 -240.621 -10.5044 17.4751 353.916 50.1845 -431.512 0 0 0 0.5 -30422.9 -19.7174 -124.719 -1230.98 2254.76 -34.6402 
391 1 4.32681 4.97887 5.54856 41 0 0 38.1958 -23.609 -11.0628 -808.45 -348.589 -515.23 0 0 0 0.5 -1076.58 -348.035 -328.892 432.674 413.544 -295.715 
815 2 4.59433 1.98039 4.3374 -24 0 0 -306.786 19.9265 1.92978 3135.72 378.844 -395.575 0 0 0 0.5 -51116.7 -1174.22 -843.267 4099.03 359.965 -91.7688 
94 1 4.6496 2.16954 5.23151 -49 0 -1 -250.992 -15.7719 -2.34116 -3857.31 -969.348 -540.463 0 0 0 0.5 -33441.2 682.86 -800.949 -1330.63 -774.465 2.20813 
661 2 4.62577 4.72231 4.3917 -71 0 0 -19.5935 2.43769 -9.82605 -2106.23 1836.05 803.491 0 0 0 0.5 -793.71 -441.729 -611.521 479.797 248.461 -77.0231 
486 1 4.77612 1.26799 4.5654 220 1 0 -363.879 -5.40805 -0.977484 440.288 -1760.51 237.568 0 0 0 0.5 -69287.7 -458.775 197.67 -839.246 -356.241 64.841 
192 1 4.81312 3.48648 4.10254 21 0 -1 -120.152 9.21795 -17.8075 -1233.46 2982.1 201.074 0 0 0 0.5 -7818.86 -637.969 67.3398 1303.43 -1208.43 -62.87 
835 2 4.79328 3.00435 4.84394 -110 0 0 -171.293 0.308596 17.3096 906.086 243.924 -794.206 0 0 0 0.5 -15953.9 155.764 -451.686 163.22 2072.19 -324.848 
112 1 4.86297 2.94661 5.87734 -40 0 0 -172.848 0.381831 -2.12783 645.594 8.94777 46.3974 0 0 0 0.5 -16047.4 -31.4612 -403.245 129.914 -546.034 112.375 
492 1 4.9344 4.11725 4.94274 -163 0 0 -72.1657 -9.50632 13.1085 -546.763 -460.547 487.552 0 0 0 0.5 -3175.64 -298.36 -285.13 -135.186 320.447 285.516 
503 2 0.490009 1.90767 6.4908 -111 0 0 -320.329 -3.65061 14.6134 194.876 -585.719 -150.407 0 0 0 0.5 -53740.4 -95.7 8.23788 -576.991 2374.31 262.494 
315 1 4.13055 2.37008 7.04351 -49 0 -1 -246.237 18.5012 -16.9964 917.698 1111.72 247.423 0 0 0 0.5 -32457.9 -710.616 -172.384 2678.05 -2308.86 186.669 
22 1 4.21204 0.172565 6.97095 111 1 -1 -497.627 -0.307947 -19.0453 1861.33 -1801.62 1942.83 0 0 0 0.5 -131092 -121.95 -282.038 972.056 -4424.5 -542.969 
931 2 1.15815 3.17226 6.89233 42 0 0 -149.615 19.9216 13.419 249.703 -2778.02 -1652.09 0 0 0 0.5 -12444.3 174.066 -610.573 1831.73 913.919 -794.736 
77 1 3.9083 1.43292 6.14961 238 1 0 -391.495 15.7 -16.3914 -808.36 652.189 358.764 0 0 0 0.5 -80513.1 -301.611 -268.678 3388.16 -3299.86 11.335 
166 1 4.42142 4.34202 6.51908 46 0 -1 -26.6103 -10.1261 -18.6671 193.3 -111.142 -78.045 0 0 0 0.5 -469.31 -101.392 -201.435 -155.832 -265.992 -128.969 
399 1 0.861969 2.43554 7.30939 -79 0 -1 -270.1 12.4137 31.3136 -42.9299 3224.21 -1512.07 0 0 0 0.5 -38247.2 -57.1671 -676.666 2168.86 4353.66 -293.641 
462 1 4.73949 1.16928 6.33131 250 1 0 -377.392 12.4056 -26.3626 21.8091 421.141 -560.749 0 0 0 0.5 -75615.8 -736.029 -1363.56 3048.41 -5007.41 -471.597 
502 2 1.13113 2.71076 6.11753 -135 0 0 -229.135 -21.6506 8.66831 -185.814 -2234.4 1207.59 0 0 0 0.5 -28147.6 -827.249 133.031 -2224.02 1016.34 524.104 
483 1 1.68157 3.7027 6.00952 -16 0 -1 -141.578 9.87347 -1.06557 1504.77 56.9916 -269.63 0 0 0 0.5 -12937.8 -1241.37 -202.621 1685.61 160.535 -15.7387 
903 2 0.962599 0.0381441 6.44803 108 1 0 -492.661 1.54832 9.13344 -3304.98 2122.51 248.285 0 0 0 0.5 -128637 -590.336 -410.658 1353.9 1969.2 208.047 
721 2 1.96326 2.47022 7.85138 200 1 0 -204.941 -16.3824 -2.29118 -568.051 1305.51 -3124.12 0 0 0 0.5 -22555.1 -1102.76 -1061.98 -1177.94 -221.506 400.099 
224 1 2.04518 0.060748 7.27004 47 1 0 -509.783 16.8947 1.7176 143.972 -229.28 -157.184 0 0 0 0.5 -135950 -98.6638 86.3436 4504.11 522.23 34.5826 
368 1 4.40762 0.817135 7.54625 -60 0 0 -408.828 -9.80793 23.9725 -246.55 196.663 -467.049 0 0 0 0.5 -87611.1 563.111 -58.5879 -1985.09 5262.95 336.027 
350 1 2.31896 4.56756 7.52069 7 0 0 -15.8833 5.50732 9.15512 -2565.38 1942.51 763.303 0 0 0 0.5 -1171.09 -427.933 -679.711 336.891 47.1348 -135.896 
460 1 1.93374 3.31863 7.40679 51 0 0 -151.595 10.6803 7.57464 -400.735 1189.12 627.376 0 0 0 0.5 -12878.6 -461.433 -519.543 1206.62 802.677 -313.515 
665 2 2.50162 2.77331 7.10948 3 0 1 -201.599 -13.2628 8.38963 -1666.12 -426.774 -1664.28 0 0 0 0.5 -23181.3 -951.962 -1055.36 -438.985 1147.85 85.9671 
91 1 3.93444 3.11537 6.23713 19 0 0 -151.475 -14.5585 -5.68786 927.427 -634.29 1605.32 0 0 0 0.5 -12490.2 -244.392 -861.87 -906.536 -202.218 -119.85 
557 2 2.11415 1.07529 7.79892 -44 0 -1 -374.388 7.50259 -27.4047 -1180.01 1950.48 -1328.82 0 0 0 0.5 -73614.3 -639.702 -676.462 1839.9 -5623.62 523.39 
872 2 1.28656 1.8493 7.15388 -26 0 0 -284.832 -24.9347 -2.46505 616.126 -904.849 -166.548 0 0 0 0.5 -42610 -588.911 9.73936 -3526.61 -332.344 -104.583 
699 2 2.14633 4.04904 6.91224 58 0 0 -86.6592 7.03166 13.5577 -1242.35 1245.43 654.28 0 0 0 0.5 -4098.29 -1260.63 -770.955 495.971 743.926 -457.71 
427 1 2.39365 3.50222 6.57438 12 0 -1 -142.352 -9.26182 -7.35663 -1586.47 -3143.61 -710.749 0 0 0 0.5 -11802 -596.621 -426.516 -129.44 -208.037 51.5897 
401 1 3.43489 0.225779 6.02512 87 1 -1 -487.032 4.82045 -3.77198 -472.039 -1286.8 593.696 0 0 0 0.5 -124256 -621.055 -846.037 1485.01 -494.959 584.416 
517 2 3.24773 2.49653 6.88228 -84 0 0 -237.421 -8.57257 -29.1959 1102.58 -773.825 -352.959 0 0 0 0.5 -31131.5 -188.692 -217.517 -606.157 -3508.14 -220.727 
997 2 3.1104 4.38852 7.25628 -13 0 1 -38.4965 -5.45796 -4.04297 -320.182 880.344 940.585 0 0 0 0.5 -2339.38 78.1437 -849.337 375.41 438.123 -248.414 
804 2 3.06162 2.51468 7.82918 -405 -1 -1 -229.856 -19.0658 -6.25871 1461.31 331.848 940.865 0 0 0 0.5 -27948.5 131.492 -177.601 -2065 -1206.58 226.846 
622 2 0.314313 3.11424 6.77913 -73 0 -1 -152.548 -10.2043 -7.33554 -581.084 -356.911 -1137.9 0 0 0 0.5 -12722 -90.1518 -447.708 -789.887 -450.245 -160.759 
743 2 0.972571 4.01584 6.07775 -333 -1 0 -92.5182 10.1008 -13.9536 -4226.24 1768.09 333.749 0 0 0 0.5 -6005.11 -733.813 -160.736 1057.92 -562.99 -121.185 
304 1 2.75462 0.292869 6.43122 28 1 0 -511.636 4.29471 -2.80986 -1314.95 1385.8 1044.58 0 0 0 0.5 -137498 130.307 -200.832 1252.14 -730.013 148.313 
689 2 4.43768 1.58263 7.05185 -101 0 0 -309.94 -8.83299 -16.5195 -4914.16 1494.46 2173.4 0 0 0 0.5 -52246 -1555.99 -876.269 -364.492 -2381.96 -583.259 
484 1 2.70721 1.03901 6.95545 -69 0 0 -401.339 19.2306 44.0347 -1633.31 -194.943 -1001.25 0 0 0 0.5 -85036.5 7.43082 -940.79 4245.99 9037.17 -187.82 
195 1 4.62843 4.12444 7.78303 -120 0 0 -36.2012 7.8532 3.50373 835.004 -762.045 -131.21 0 0 0 0.5 -1334.08 246.677 -48.7357 176.148 -176.064 160.933 
58 1 0.884826 3.63085 7.7252 42 0 -1 -116.917 -4.80651 -5.93833 1224.36 -641.628 2380.9 0 0 0 0.5 -8487.31 -925.89 -1406.76 722.884 -403.028 151.883 
210 1 3.54081 0.774506 7.19858 31 0 -1 -412.94 4.57868 3.55476 -1179.3 400.753 1201.1 0 0 0 0.5 -90837.5 -196.609 132.287 2068.72 857.977 11.5781 
601 2 0.32514 4.76724 6.47676 81 0 0 7.99961 -2.33025 -1.32538 -1641.51 1082.4 -679.648 0 0 0 0.5 -545.139 -415.86 -566.158 151.952 0.171788 455.92 
230 1 2.16519 4.79115 6.48718 171 0 0 31.3207 4.49623 -10.9164 1979.48 -1944.33 -285.629 0 0 0 0.5 -1007 -1138.61 -145.72 577.946 157.44 202.576 
270 1 3.24666 3.48683 6.38821 -94 0 0 -159.506 -14.2137 14.2209 1037.39 1100.07 795.245 0 0 0 0.5 -14752.7 -36.9669 -587.866 -876.976 1592.21 105.089 
712 2 3.48369 4.2539 6.49631 72 0 0 -35.0732 -3.84447 15.6822 782.928 -1662.87 -1220.21 0 0 0 0.5 -916.476 -13.5332 -1137.91 84.6663 631.589 130.478 
648 2 3.87868 4.12749 7.41215 77 0 0 -35.8427 -11.9574 -11.5876 295.782 -494.127 -282.153 0 0 0 0.5 -1676.34 -139.984 -201.093 -30.9725 -549.365 -32.7823 
588 2 1.11937 4.69376 6.32996 -41 0 1 22.814 24.4635 -10.0481 1521.36 815.943 64.3034 0 0 0 0.5 -683.487 -399.871 -93.4537 -207.225 203.846 65.4934 
943 2 0.530057 4.1505 7.12938 -38 0 0 -51.4364 -4.50366 -10.6176 668.106 2044.56 -287.519 0 0 0 0.5 -2044.5 -76.1079 -956.27 352.311 -629.32 1004.17 
417 1 1.37886 4.7937 7.98123 11 0 0 27.8571 -17.7506 -18.7961 776.861 1206.48 229.341 0 0 0 0.5 -384.115 385.992 -186.887 482.489 44.9457 -260.407 
614 2 4.60946 1.65176 7.89846 -16 0 0 -326.532 4.91335 8.4046 -495.674 -1200.12 -1291.69 0 0 0 0.5 -56530.3 -191.89 -230.235 1366.67 1467.57 -70.1458 
433 1 4.6372 3.35417 7.27967 282 1 -2 -120.407 -20.584 -12.8252 -2786.45 4833.64 -1485.66 0 0 0 0.5 -8302.03 -1471.46 -322.339 -255.314 -1316.15 793.432 
982 2 2.4927 0.449564 8.22521 -81 0 0 -447.564 15.4244 8.18325 957.357 -1212 846.153 0 0 0 0.5 -105234 -1007.18 -419.733 3939.62 1680.86 514.859 
322 1 1.80284 2.01343 9.3058 -37 0 0 -292.13 -0.489329 6.79412 674.009 -448.89 746.197 0 0 0 0.5 -44836 -239.851 -1135.51 107.096 657.795 516.491 
914 2 3.1771 1.43764 8.54281 34 0 0 -318.335 -12.5878 -18.0831 -959.803 3784.69 1997.69 0 0 0 0.5 -53769.8 -1880.08 -649.478 -1343.11 -2876.22 -935.397 
886 2 1.49471 2.34186 8.63902 328 1 0 -237.076 -20.5884 -20.6176 -2679.53 525.303 -1824.74 0 0 0 0.5 -31233.4 -1246.07 -1438.02 -1361.06 -2086.53 -360.699 