ITEM: TIMESTEP
122500
ITEM: NUMBER OF ATOMS
1000
ITEM: BOX BOUNDS xy xz yz pp pp pp
0.0000000000000000e+00 1.0000000000000000e+01 0.0000000000000000e+00
0.0000000000000000e+00 1.0000000000000000e+01 0.0000000000000000e+00
0.0000000000000000e+00 1.0000000000000000e+01 0.0000000000000000e+00
ITEM: ATOMS id type x y z ix iy iz vx vy vz fx fy fz omegax omegay omegaz radius c_2[1] c_2[2] c_2[3] c_2[4] c_2[5] c_2[6] 
120 1 3.15892 1.54045 0.0717727 0 1 0 -0.000664529 0.00181428 0.000838782 0.000628958 -0.00172217 -0.00074472 0.000862771 -0.000295279 -0.000637957 0.5 -0.000635437 -0.0034228 -0.000239264 -0.000402963 -5.45823e-05 -0.000659943 
525 2 2.11661 1.2358 1.70151 0 0 0 -0.000511892 -0.00239331 -0.00274089 0.000399623 0.00199319 0.00240231 -0.00036814 -0.000146916 0.000607937 0.5 -3.21172e-05 -0.000237682 9.02943e-05 0.000266684 0.000237296 -0.000187239 
371 1 4.95893 3.68421 1.58235 0 0 1 0.000584131 -0.00155277 0.00237139 -0.000450332 0.00129744 -0.00213631 0.000299389 -8.59294e-07 0.000103532 0.5 3.28401e-05 -0.00140013 0.00159781 -0.000204907 -0.000182383 3.96243e-05 
18 1 1.98136 2.69181 0.531307 0 0 0 -0.000303631 0.000332168 0.00199328 0.000257627 -0.000399635 -0.00171524 0.00127687 -0.000614145 0.000491856 0.5 -4.41485e-05 -0.002348 -0.00129942 0.00174709 0.00168608 -0.00158081 
94 1 2.46195 3.50188 2.00354 0 0 1 -0.000156949 -0.00194929 0.0022079 0.000216062 0.00162602 -0.00190968 0.000518363 -0.000248868 9.39811e-05 0.5 0.000741102 0.000599763 0.000497933 0.000566223 0.000774498 0.00101151 
25 1 1.41562 0.708948 1.08505 0 0 0 -0.000176961 -0.000313998 -0.00321792 8.75177e-05 0.000201893 0.00295034 0.00105351 -0.000163251 0.000447316 0.5 -0.00139538 -0.00685682 -0.00323294 0.00254632 0.00196863 -0.00282906 
378 1 4.61919 2.40671 0.0714521 0 0 1 -4.15744e-05 0.000886739 0.00195007 0.000101632 -0.000864112 -0.00176245 0.0013792 0.000369959 -0.000235689 0.5 -0.000705765 -0.00164871 -0.000811855 -0.000967715 -0.00050043 -0.00180628 
8 1 3.44134 2.06878 1.74198 0 0 0 0.000148899 -0.00131383 0.000976003 -0.000123224 0.00106115 -0.000914964 0.00106488 -0.000438616 0.00012935 0.5 -0.000519388 -0.000495153 0.000310969 0.000599079 0.000967687 -0.000155758 
629 2 4.0768 2.61605 1.19691 0 0 1 0.000536739 -0.000671275 0.00207513 -0.000441707 0.000479023 -0.00186959 0.00133238 -0.000233418 -2.37362e-05 0.5 -0.00154965 -0.00096186 -0.0016307 0.000174802 -0.000562141 -0.000420738 
5 1 2.34684 3.90197 1.05208 0 0 0 -0.000619079 -0.00238188 0.00224844 0.000581168 0.00191911 -0.00193587 1.23763e-05 7.0977e-05 0.000664011 0.5 -0.000281105 -0.000453171 -0.000558664 0.000424784 0.000299178 -0.000292141 
650 2 0.460086 3.43785 1.13013 0 0 0 -0.00167342 -0.00196308 -0.00100754 0.00154946 0.0017204 0.00115992 0.00106196 0.000423788 0.000164962 0.5 -0.00211129 -0.00251679 -0.00204252 0.0015243 0.00170918 -0.00133469 
14 1 3.29511 3.13455 1.54348 0 0 0 1.75392e-05 -0.0014726 0.002104 4.41316e-05 0.00119334 -0.00184478 0.00075983 0.000102428 4.47995e-05 0.5 6.51544e-05 -0.000635969 -0.000793718 0.000493046 0.000208225 -0.000963231 
264 1 3.99607 3.86889 1.37812 0 0 0 0.000562584 -0.00160188 0.00242407 -0.000436551 0.00128567 -0.00219701 0.000957328 0.000197784 3.30222e-05 0.5 -0.000164475 2.16604e-05 -0.00111615 0.000476789 0.000471144 -6.61267e-05 
223 1 0.748428 2.47916 1.14581 0 0 1 -0.00134423 -0.00181104 -0.000362919 0.00120379 0.00156631 0.000416948 0.00140737 -0.000468606 0.000452256 0.5 -0.00156671 -0.00320184 -0.00884712 0.000983079 0.00346312 -0.00231044 
364 1 4.42291 4.23649 0.538058 0 0 1 -0.000379054 0.000814336 0.00304024 0.000365382 -0.000800347 -0.00273231 0.000818965 6.34075e-05 0.0005364 0.5 0.000226128 -0.000123119 5.3892e-06 -3.06231e-05 0.000471015 -0.000302906 
107 1 1.66128 1.61816 0.748651 0 0 1 -0.000855222 0.00024876 -0.00215652 0.000743877 -0.000301718 0.00204459 0.00151722 2.91149e-06 0.00015648 0.5 0.0013908 -0.00125604 -0.00104804 -0.000261268 0.000160031 -0.00100644 
529 2 2.6724 2.1999 1.0617 0 0 0 0.000431252 -0.000396934 0.000377298 -0.000400974 0.000216314 -0.000309838 0.00136359 -0.000252458 0.000313842 0.5 0.000122234 -0.000288651 -0.000580502 8.98691e-05 0.000568211 -0.000211189 
515 2 4.38638 0.436869 1.64421 0 0 0 8.64806e-05 -0.00156805 -0.000582447 -6.54919e-05 0.00131788 0.000512086 0.000845535 0.000101047 -0.000116583 0.5 -0.002155 -0.00152769 -0.0024765 -0.00245741 0.00115932 0.000901361 
244 1 4.11366 0.570329 0.682906 0 1 1 0.000103531 0.000260118 -0.000279864 -6.86825e-05 -0.000296354 0.000229993 0.00119398 0.000287797 -0.000291569 0.5 -0.00122421 -0.00110545 -0.00185003 -0.000639382 0.000862698 0.000551962 
20 1 2.90166 0.571541 1.78445 0 0 0 0.000243729 -0.00114176 -0.00103551 -0.000234702 0.000924098 0.000895218 0.000592236 -0.000408405 0.000117234 0.5 -0.00173073 -0.00294059 -0.00406751 8.54523e-05 0.00217499 -0.0022685 
280 1 4.09057 1.58227 1.14596 0 0 0 0.00034074 -0.000365407 0.00054728 -0.000275951 0.000206083 -0.00051901 0.00117962 -0.000161569 -0.000135117 0.5 -0.00192705 -0.00140013 -0.00375153 -0.000129553 0.00232004 0.000354179 
620 2 1.39531 4.37171 0.857067 0 0 1 -0.00141037 -0.00145628 0.00078321 0.00145445 0.00123616 -0.000468747 0.00115065 0.000493695 -5.8677e-05 0.5 -0.000425135 -0.00260749 -0.00467902 -0.000213492 0.000150163 0.000892979 
1000 2 3.60297 2.39782 0.338772 0 1 1 0.000502148 0.000842145 0.00181149 -0.000352209 -0.000872947 -0.0016603 0.00106013 -8.60552e-05 -0.000182389 0.5 -0.00103336 -0.00277395 -0.00108298 -0.000691877 -0.000737397 -0.000409207 
103 1 3.28436 3.68348 0.697292 0 0 1 -0.000120812 -0.000381364 0.0028054 0.000139351 0.000180118 -0.00249253 0.00104768 -3.75377e-05 0.000499474 0.5 5.54777e-05 0.00030166 -0.000292019 0.000203068 0.000515334 -0.000363203 
622 2 0.93143 4.80371 0.0836436 0 0 1 -0.00155686 0.00031821 0.00186155 0.00165649 -0.00038719 -0.00149313 0.00170872 -0.000503535 0.000480358 0.5 7.48931e-05 0.000359421 -0.00225108 -0.000211067 -0.000757899 0.000441177 
506 2 0.744355 1.45244 1.18403 0 0 0 -0.00128523 -0.00186046 -0.00292485 0.00108114 0.00162154 0.00269322 0.00126435 -0.000120235 0.000845943 0.5 1.87646e-05 -0.00403597 -0.00042668 0.00460012 0.00127661 -0.00248777 
626 2 1.28905 3.417 0.566547 0 0 1 -0.00156273 -0.000881717 -0.000767169 0.00144867 0.000730566 0.000944034 0.000344681 -0.000851112 0.00059527 0.5 -0.00173042 -0.00263459 -0.000556304 0.00119779 0.00154285 -0.000956032 
553 2 0.743955 0.0782767 1.56547 0 0 0 0.000248643 -0.00144708 -0.00419913 -0.000336205 0.00128693 0.00385037 0.000120229 -0.000622813 0.000952225 0.5 0.000351843 0.00034251 0.000283779 -0.00013236 0.000286957 -0.000479697 
135 1 1.54727 3.20602 1.67736 0 0 0 0.000688629 -0.00217299 -0.000568954 -0.000577615 0.00191744 0.000621735 0.000736304 -0.00144306 -1.99151e-05 0.5 0.000238447 -0.00612138 -0.000883132 0.0014767 0.000733425 -0.000314756 
624 2 4.32442 4.92163 1.46999 0 0 1 0.000243042 -0.00113727 0.0027299 -0.000155898 0.00103181 -0.00250599 0.000683626 0.000361164 0.000124272 0.5 0.000305086 0.000262598 -0.00194453 9.52244e-05 -0.000558493 -0.00110208 
256 1 4.58701 1.36764 0.304843 0 0 0 0.000284749 0.000411899 0.000314741 -0.000213515 -0.000445027 -0.000314451 0.00129417 0.000299241 -0.00060107 0.5 -0.00101101 -0.00159697 -0.00371068 -0.00108824 0.00160354 -0.00104146 
260 1 3.31849 0.070403 1.02609 0 0 0 4.91582e-05 -0.000526839 -0.00155047 -1.50351e-05 0.000400391 0.00136408 0.000679524 0.000560021 -0.000477942 0.5 -0.00135458 -0.00307215 -0.00290323 -0.000404182 0.000916177 -0.00163138 
616 2 3.1907 4.48181 1.50518 0 0 1 0.000565208 -0.00195178 0.00252938 -0.000421976 0.00158738 -0.00232367 4.70784e-05 6.459e-05 0.000137078 0.5 -0.000703953 -0.000306457 -0.000399945 0.000512575 0.000271131 -0.000255768 
106 1 1.74496 2.23694 1.52975 0 0 1 0.000463903 -0.00225918 -0.000310475 -0.000437358 0.00198876 0.00034829 0.00117859 -0.000542144 -0.000220651 0.5 2.6759e-06 -0.0033571 -0.000900862 0.000794743 0.00141882 -0.000895165 
157 1 1.38947 4.18025 1.83855 0 0 0 0.000303601 -0.0024283 0.000604705 -0.000145985 0.00213868 -0.000305105 0.000936456 0.000356081 0.000154663 0.5 -0.00155468 -0.00460112 -0.005101 0.000832386 0.00186756 -0.00102826 
516 2 2.34688 0.889867 0.688644 0 0 0 9.71247e-05 0.00106034 -0.00122626 -0.000134778 -0.00104517 0.00116483 6.31189e-05 -0.000892587 -0.00029907 0.5 0.00023656 -0.000669829 -0.000256661 0.000122208 0.00122902 -0.00107656 
183 1 0.416003 4.58369 1.00238 0 0 0 -0.00151882 -0.00256393 0.00210303 0.00160469 0.0023792 -0.0015499 0.00207141 0.000487016 0.000488904 0.5 0.000321709 -0.000237485 -9.26809e-08 0.000121279 -0.000185459 2.16433e-05 
625 2 0.400729 3.91215 0.209766 0 0 1 -0.00143243 -2.1232e-05 0.000111162 0.00140422 5.69416e-05 0.000238349 0.00225683 -0.000255597 -0.0003191 0.5 -0.000175933 -2.99699e-05 -0.000600861 -0.000120782 -0.000226818 0.000293722 
91 1 2.22034 4.71819 1.69531 0 0 1 0.000440149 -0.00234762 0.00182852 -0.000248063 0.0020011 -0.00152696 0.000294076 -0.000513223 -0.000118949 0.5 -0.00112467 -0.00131909 -0.000489265 -0.000544067 0.000630232 -0.000284633 
257 1 4.9401 2.69221 1.70712 0 0 0 0.000549943 -0.00160393 0.00196099 -0.000474383 0.00134565 -0.00175841 0.000712009 0.000112289 -0.000127381 0.5 -0.00159007 -0.00149211 -0.0045587 -4.79412e-05 -0.00102452 -0.000934557 
4 1 3.72161 1.12873 1.95723 0 0 0 0.000221494 -0.00154795 -0.000166994 -0.000198545 0.00127718 0.000112696 0.000911615 -9.89485e-05 -5.85271e-05 0.5 -0.00059412 -0.000786751 -0.00278754 -0.00116805 0.00106254 0.00151921 
522 2 2.58385 2.50923 2.00853 0 0 0 -0.000213906 -0.00196445 0.000829324 0.000217153 0.00163505 -0.000717391 0.000893038 -0.000561457 0.000286225 0.5 -0.00113825 -0.000152001 -0.000557509 0.00113115 0.00175007 1.25057e-05 
117 1 3.12723 1.31409 1.15379 0 1 0 0.000369435 -0.000491445 -0.000225029 -0.000300772 0.000316609 0.000157217 0.00110794 -0.000333212 -0.000111752 0.5 0.000187964 -0.000582992 0.000457231 -0.000120497 0.000819653 0.000307256 
511 2 1.08109 2.24964 0.231125 0 0 0 -0.000503881 0.00162099 -0.000921016 0.000455996 -0.00152086 0.000929371 0.00204797 -0.00021994 -0.000411808 0.5 -0.000900895 -0.00318326 -0.00834159 0.000865068 0.0036761 -0.00170178 
911 2 0.492101 0.563995 0.699826 1 0 0 -7.5209e-05 -0.000588919 -0.00383104 -2.49141e-06 0.000498522 0.0034861 0.000268493 -0.000306491 -0.000190281 0.5 0.000770663 -0.00256127 8.09923e-05 -0.000229939 0.000338412 -0.00108225 
668 2 0.0021161 3.82209 1.93252 0 0 0 0.000124906 -0.00391912 0.000893938 -0.00015615 0.00349829 -0.000618445 0.000337822 0.000646923 -0.000177543 0.5 -0.00271771 -0.00778425 -0.0028411 0.00228604 -0.000281629 -0.000470825 
90 1 2.9403 4.58044 0.418316 0 0 1 -0.000797603 -0.000403102 0.00353105 0.000800002 0.000230716 -0.0031123 0.000748292 -0.000376874 0.00057083 0.5 4.32765e-05 0.00269379 0.00084093 0.00150874 0.00128275 0.00124364 
734 2 4.13709 3.24469 0.373085 0 1 1 0.000527594 0.000742671 0.00317155 -0.000409018 -0.000763808 -0.00282892 0.00120499 0.000136878 -2.40338e-06 0.5 -0.000559683 -0.000837986 -0.000451789 -0.000414273 0.000554905 -0.000199169 
672 2 0.0685321 1.98747 1.69099 0 0 0 -0.00161332 -0.00316891 -0.00197807 0.00136537 0.00282266 0.00179736 0.00127463 -0.000115225 0.000477821 0.5 -0.00549346 -0.008401 -0.00361493 0.00334496 0.00318318 0.000175946 
759 2 4.95829 2.0391 0.950076 0 0 0 0.000642985 -0.000675532 0.00116164 -0.000566083 0.000527074 -0.00105275 0.00118948 1.9749e-05 -0.000289197 0.5 -0.000476374 -0.00254031 -0.00067485 -0.000873418 8.51343e-05 -0.000838345 
609 2 1.9965 4.7604 0.135317 0 0 1 -0.000530826 -0.000506151 0.00265134 0.000552073 0.000356206 -0.00228055 0.000691988 -0.00084899 0.000320689 0.5 -0.00479323 -0.0157884 -0.0026579 0.00407308 0.00204095 -0.00311871 
868 2 2.87001 3.00626 0.0277162 0 0 1 2.60875e-06 0.000274896 0.00198696 2.84472e-05 -0.00039276 -0.00171576 0.00108145 -0.000280132 0.000461105 0.5 -0.000998242 -0.00232657 -8.53517e-05 0.00167126 0.000357048 -0.000158231 
21 1 1.84596 0.35824 2.43266 0 0 0 -0.000473963 -0.00248964 -0.00259443 0.000368974 0.00219517 0.00235423 0.000558257 -0.000912995 0.000753369 0.5 0.00014607 0.000392673 -3.15262e-05 -3.29472e-05 0.000294128 -0.000579384 
682 2 2.73027 4.08466 2.77139 0 0 0 0.000508785 -0.00178822 0.0018782 -0.000406893 0.00157419 -0.00167646 0.000160265 -0.000130529 -0.000117512 0.5 -0.00288649 -0.00273259 -0.00119736 0.000641579 0.00256402 0.00222475 
907 2 0.98174 4.62685 2.63498 1 0 0 0.000597904 -0.00299273 0.0010738 -0.000508258 0.00258973 -0.000745664 0.000101593 -0.000417805 0.000144661 0.5 -0.00348465 -0.00489876 -0.00430397 0.000951658 0.00250363 -0.00167501 
144 1 1.68455 3.60229 2.81081 0 0 0 0.000891681 -0.00273277 6.22689e-05 -0.000810492 0.00234936 -2.74507e-05 3.54406e-05 -0.000120607 -0.000254654 0.5 -2.42803e-06 -0.00066833 -0.000538034 0.000441844 0.000666926 -0.000260456 
675 2 2.83047 4.7395 3.54421 0 0 0 0.00114433 -0.00175644 0.00204173 -0.00113333 0.00162563 -0.00183313 -0.000292088 -2.71218e-05 -0.000309365 0.5 8.05275e-06 0.000279055 0.00054526 0.000269865 0.000116649 0.000730569 
502 2 4.38926 1.31238 3.26926 0 0 0 0.000523511 -0.00201514 -4.37576e-05 -0.000502031 0.00186809 1.32984e-05 0.00040711 0.000164089 -0.000270555 0.5 -0.00220043 -0.00152967 -0.0013019 -0.00134412 0.00154908 0.00218955 
27 1 2.60873 0.301893 3.21144 0 0 0 0.000680574 -0.00193245 -0.0012961 -0.000679152 0.00171156 0.00112908 -7.59729e-05 -0.000289003 0.000140073 0.5 -0.00229329 -0.00238237 -0.0048328 0.00078548 0.00202539 0.000314501 
965 2 1.35509 3.65989 3.79918 1 0 0 0.00119848 -0.00284248 -0.000436911 -0.0011343 0.00236976 0.000447049 -0.000349816 0.000358318 -0.000605644 0.5 -0.00083048 -0.00218136 -0.0027103 0.00120965 -0.000602935 0.00142495 
61 1 1.66165 0.450104 3.51544 0 0 0 0.000114612 -0.0024197 -0.0031968 -0.000207974 0.00206778 0.0027748 -0.000322235 -0.000322067 0.000359583 0.5 -0.00186247 -4.61992e-05 -0.000309818 0.000232745 0.00129658 -0.000145937 
680 2 1.19033 2.78308 3.3472 0 0 0 -0.000358966 -0.00250581 -0.000511592 0.000282507 0.00207675 0.000491812 0.000103929 0.000300357 -0.000144817 0.5 -0.000196243 -0.000781625 -0.00118204 6.6488e-05 0.000658524 0.000369382 
251 1 4.71329 3.03516 3.89437 0 0 0 0.00159568 -0.00236405 0.00206476 -0.00145023 0.0022096 -0.00190257 0.000586856 0.0004333 -0.000704613 0.5 -0.00212773 -0.000696497 5.10029e-05 -0.00179394 0.00081625 0.00134426 
517 2 4.0087 2.8949 2.21725 0 0 0 0.000263658 -0.00224064 0.00161988 -0.000119755 0.00202452 -0.00143415 0.000244133 0.000440476 -0.000457489 0.5 5.68977e-05 -9.03196e-05 -0.000259931 -0.000116836 2.64789e-05 0.000241858 
6 1 3.42163 1.78075 2.732 0 0 0 0.000322774 -0.00146376 0.00107563 -0.00033087 0.00128712 -0.000987868 0.00080173 -0.000337875 0.000267957 0.5 -0.00332226 -0.000350737 0.000148301 0.000451077 0.00158375 0.000335519 
519 2 4.43315 3.61516 3.02937 0 0 0 0.000510523 -0.00192826 0.0026712 -0.000456592 0.00179664 -0.00238584 0.000361147 0.000275827 -0.000127043 0.5 -9.33802e-05 0.000997727 0.000499379 -0.00074351 0.000115458 0.000304995 
509 2 1.93551 1.51724 3.625 0 0 0 0.00122141 -0.00173217 -0.00282324 -0.00114022 0.00128759 0.00246518 -0.000413206 0.000893629 0.000229197 0.5 0.000317937 -0.000325798 -0.00252477 -0.000239 0.000520174 0.000703275 
142 1 1.03577 1.94362 2.17094 0 0 0 -0.000615485 -0.00241847 -0.00158816 0.000489987 0.00214292 0.00144971 0.00101331 -1.80746e-05 0.000265074 0.5 -2.21247e-06 -0.000506538 -0.000780495 0.000126959 8.21781e-05 0.000899074 
941 2 0.192959 2.26064 2.77427 1 0 0 -0.00123253 -0.0037475 -0.00145403 0.0010493 0.00332094 0.00133778 0.000487258 7.90009e-05 0.000113537 0.5 -0.000555359 -0.00146308 -0.00249681 -0.000101564 0.000433001 0.000426165 
919 2 0.650199 4.31752 3.53335 1 0 0 0.000380827 -0.00326274 0.000688734 -0.000412026 0.00277945 -0.000448911 0.000396276 6.50561e-05 -0.000472922 0.5 -0.00170078 -0.00326727 -0.00184756 0.00170396 0.000151753 0.00100469 
95 1 3.53859 3.77933 2.26802 0 0 1 0.000723244 -0.00204414 0.00237608 -0.00062525 0.00180349 -0.00216401 0.000275333 -1.49099e-05 -0.000118619 0.5 -0.0026025 -0.00104352 -0.00269989 -5.5146e-05 0.00129846 -0.000591448 
458 1 1.55649 4.75499 3.86333 1 0 0 0.000704134 -0.0023264 0.00222908 -0.000618255 0.00209051 -0.00193643 -0.000686276 7.17635e-05 0.000110052 0.5 -0.000366082 -0.000140381 -0.000266039 0.000303989 2.20537e-06 -0.000150207 
41 1 1.14066 0.961781 2.01267 0 0 0 -0.000285425 -0.00219115 -0.00273764 0.000176631 0.00193399 0.00250188 0.000945379 -2.91441e-05 0.000424409 0.5 -0.000660415 -0.000428284 -0.0012605 0.000255602 0.00144936 -0.00104803 
814 2 0.270927 1.22913 3.40486 1 0 0 0.000387777 -0.00257432 -0.00237416 -0.000412138 0.00218007 0.002149 0.000342364 -0.000249391 0.00107951 0.5 -0.0024472 -0.00241137 -0.00235815 0.00108634 0.00106627 0.00257692 
130 1 1.70558 2.64902 2.50071 0 0 0 -0.000684931 -0.00248698 -0.000713499 0.000628213 0.00211931 0.000696012 0.000728478 -0.000334417 -0.000357479 0.5 -0.00140952 -0.00288103 -0.00233836 0.00100523 0.00119382 0.00139894 
12 1 2.70221 1.09666 2.61177 0 0 0 0.000646413 -0.00148992 -0.000716269 -0.00058769 0.001285 0.000579699 0.000485403 -0.000749276 0.000318297 0.5 -0.00214151 -0.00362676 -0.00268687 0.000679228 0.00163557 -0.000237089 
512 2 3.18569 2.03191 3.78715 0 0 0 0.00118575 -0.000420241 0.000470309 -0.00110075 0.000399075 -0.00036667 0.000618913 -0.0002986 0.000299642 0.5 -0.000484157 -0.00137699 -0.000819068 -3.36667e-05 0.00020793 0.00130731 
151 1 2.47903 3.30181 3.34061 0 0 0 0.000337305 -0.00223446 0.00119104 -0.000275902 0.00198384 -0.00105809 2.35223e-05 -0.000297597 0.0001171 0.5 9.86677e-05 -0.00447825 -0.00325166 -0.000258445 0.00174742 0.00164297 
667 2 0.284542 1.32265 2.40849 0 0 0 -0.000309068 -0.00309093 -0.00239973 0.000208954 0.00277589 0.00218786 0.00059976 0.000198194 0.000635731 0.5 -0.00105966 -0.00470086 -0.0034191 0.000102365 9.11622e-05 0.000837472 
38 1 3.78988 0.738595 3.87312 0 0 0 0.000982006 -0.000830837 -0.000476076 -0.00091352 0.000808007 0.000437228 -0.000661225 -0.000117456 -0.000217262 0.5 -0.00250165 -0.00101791 -0.00557043 -0.00275224 0.00189465 0.00395521 
936 2 0.320522 3.37117 3.50695 1 0 0 -0.00095875 -0.0027431 -0.000304202 0.000761272 0.0023233 0.000371464 0.000434604 -0.00056428 -0.000335916 0.5 0.000130319 -0.00340429 -0.00123714 -7.99582e-05 0.00149768 0.00229357 
531 2 4.80025 0.809782 2.48034 0 0 0 -0.000150127 -0.00270688 -9.01588e-05 9.5162e-05 0.00242525 6.93117e-05 0.000255493 0.000149442 -0.000424097 0.5 -0.000699536 -0.000174216 -0.00160587 -0.000840245 -0.00120287 -0.000882212 
527 2 4.02951 4.31615 3.61733 0 0 0 0.00133746 -0.00173818 0.00302244 -0.0012853 0.00162429 -0.00275506 -0.000205739 5.73013e-05 7.43665e-05 0.5 -0.00330811 -0.000912045 -6.0074e-05 -0.0018014 0.00113708 0.0013797 
383 1 4.36278 4.34533 2.28744 0 0 1 0.000255133 -0.0013686 0.00257667 -0.000245508 0.00125565 -0.00235279 0.000232658 4.74367e-05 0.00012963 0.5 -0.002174 -0.000472964 0.000688474 0.000438032 -0.000230229 -0.00063251 
992 2 0.695311 0.440927 3.85435 1 1 0 0.000746266 -0.00252509 -0.00282471 -0.000751136 0.00211609 0.00253553 -0.000249572 0.000546445 0.000359121 0.5 -0.00188925 -0.00444747 -0.000730373 0.00135048 -0.000570456 0.00211548 
521 2 4.93555 4.52872 3.2488 0 0 0 0.00109785 -0.00134547 0.00272456 -0.00107159 0.00126495 -0.00250072 -0.000155463 0.000395232 0.000257314 0.5 -0.00102015 -0.000769697 -0.00116226 -0.000609621 7.56794e-05 0.00175673 
136 1 1.88512 1.67305 2.62414 0 0 0 -0.000181939 -0.00262407 -0.00252307 9.95991e-05 0.00221797 0.00222447 7.0571e-05 0.000413592 0.000345711 0.5 -0.00240177 -0.00304441 -0.00214478 0.00166784 0.000314183 0.000784149 
540 2 4.51103 0.179844 3.4152 0 0 0 0.000487321 -0.00221891 -0.000305037 -0.000465131 0.00206379 0.000250757 -0.000797693 0.000245992 -0.000465788 0.5 0.000704861 0.000563771 0.000139107 -0.000667825 -0.000347552 0.00053192 
510 2 3.8548 2.56951 3.16981 0 0 0 0.000500652 -0.00186734 0.00166372 -0.000517949 0.0016698 -0.00152287 0.000193553 0.000104116 -4.91953e-05 0.5 0.00126132 0.00118298 -0.000581288 -0.000288881 0.000184115 0.000885273 
19 1 4.36538 1.84781 2.4082 0 0 0 0.000279949 -0.000552043 0.00113689 -0.000308733 0.000480112 -0.00108636 0.000727853 9.33502e-05 -0.000285204 0.5 -0.00432416 -0.000113882 -0.00200655 0.000166498 0.00200012 0.000318227 
543 2 1.07303 1.78864 3.19611 0 0 0 0.000438239 -0.00239041 -0.00168909 -0.000436673 0.00197635 0.0015104 0.00051946 0.000571097 0.000326761 0.5 -0.000666075 -0.000622128 -0.000376355 -0.000777105 0.000744272 0.000480467 
773 2 4.78748 2.2289 3.30678 0 0 0 0.000497702 -0.00206604 0.00148194 -0.000492474 0.00191806 -0.00134955 0.000341018 0.000402208 -0.000273829 0.5 -0.000744984 -0.00322156 -0.00603724 -0.00117898 0.00225466 0.00526853 
555 2 2.23858 2.50689 3.89764 0 0 0 0.000878851 -0.0022208 0.00144531 -0.000824078 0.00200677 -0.00126315 -7.89717e-05 -1.40761e-05 2.41347e-05 0.5 -0.000342364 0.000131061 0.000334623 -0.000370682 0.000655355 0.00136616 
429 1 0.30737 2.40293 3.75747 1 0 0 -0.000688168 -0.00303625 -0.00161986 0.000552189 0.00257456 0.00150276 0.00024696 0.000169371 0.000670647 0.5 -0.000993944 -0.00542994 -0.00334747 0.00129778 -0.000810466 0.00317686 
316 1 0.889867 0.514619 2.8717 1 0 0 -0.000102175 -0.00287985 -0.00304853 -8.34955e-05 0.00250467 0.00272606 0.000117025 2.27232e-05 0.00045194 0.5 0.000399506 -0.000449595 0.000172673 0.00025584 0.00021878 0.000398865 
503 2 3.61666 0.769909 2.88644 0 0 0 0.000405709 -0.00189271 -0.000331009 -0.000376933 0.00169825 0.000301167 3.57947e-05 8.67488e-05 3.43053e-05 0.5 0.00024211 0.000587871 -0.00341922 -3.35529e-05 2.38743e-05 0.000767039 
896 2 0.701785 3.66685 2.62992 1 0 0 0.000809564 -0.00305131 0.000401001 -0.00075455 0.00265962 -0.000206744 0.000248081 5.48271e-05 -0.000243097 0.5 -0.000776469 -0.00228401 -0.00318865 0.000179815 -0.00030687 0.0004346 
690 2 1.93655 4.67225 2.92871 0 0 0 0.000250982 -0.00218877 0.00207849 -0.000162869 0.00192743 -0.00177045 -7.23503e-05 -0.000172827 0.000293129 0.5 -0.00249866 -0.00155003 -0.000270201 0.0015015 0.000277497 -0.000411764 
641 2 3.45923 3.50147 3.22583 0 0 0 0.000435393 -0.00169938 0.00244044 -0.00038926 0.00155407 -0.00220742 -0.00014731 2.51088e-05 0.000136678 0.5 0.00100432 0.000814195 -0.00088594 -0.000237093 -0.000217819 0.00160174 
528 2 3.34217 4.8033 2.44103 0 0 0 0.000974269 -0.00192256 0.00244693 -0.000862938 0.00168398 -0.00228028 0.000296916 0.000162784 -6.06648e-05 0.5 -0.000428982 -0.000902408 -0.000975298 -0.000754284 0.000146484 0.000238878 
225 1 2.66679 2.38113 2.99743 0 0 1 -0.000319058 -0.00219454 0.000813668 0.000253526 0.00192507 -0.000689322 -6.66191e-05 0.000414775 0.000448698 0.5 -0.000838855 -0.00244648 0.000111579 0.00151433 -0.000154809 -0.000444247 
119 1 0.615214 2.84493 2.06693 0 0 0 -0.00121223 -0.00252341 -5.96239e-05 0.0010454 0.0022491 0.000121202 0.000960056 0.000122297 -3.30185e-05 0.5 0.000558037 -0.00193597 -0.00417527 0.000237773 0.00144423 -0.000679561 
200 1 2.46441 0.209165 4.19662 0 1 0 0.00191053 -0.00113145 -0.00103961 -0.00176651 0.00102073 0.000902826 -0.000950282 -0.000556966 0.000776173 0.5 -0.00217872 -0.0013426 -0.00367321 -5.00913e-05 0.0015041 0.000836217 
114 1 4.70659 1.00453 4.17132 0 0 0 0.000922588 -0.00127582 0.000104642 -0.000871388 0.00125893 -9.66584e-05 -0.000212754 -0.000121038 -0.000449462 0.5 -0.00103984 0.000238153 0.000466191 -0.000167173 -0.000568478 -0.000334861 
820 2 1.30981 2.29437 4.21143 1 0 0 0.00025504 -0.00175982 -0.000174406 -0.000228977 0.00142883 0.000195328 -0.000483876 -0.000423592 0.000404532 0.5 -0.000829817 0.000144744 -0.000894372 0.000883643 0.00119574 0.00133375 
47 1 4.65467 1.58253 5.43518 0 0 0 0.00191353 -0.0010517 0.000611601 -0.00179993 0.00111472 -0.000557739 0.000184749 0.000488936 3.45308e-05 0.5 -0.00179557 -0.00238531 -0.00106 -0.000731268 -0.00109647 0.00161356 
824 2 1.64886 3.83142 5.79115 1 0 0 0.000435694 0.00065313 0.00203042 -0.00051119 -0.000510006 -0.00180284 -0.00122806 -1.84388e-05 -0.000523585 0.5 -0.000682641 -0.000473006 -0.00195907 -0.00038572 0.000184386 0.000686002 
172 1 3.44201 0.338373 4.72095 0 1 0 0.001237 0.000669857 0.000339214 -0.00118166 -0.000504516 -0.0002963 -0.000853289 -0.000222004 5.69844e-05 0.5 -0.0023072 -0.00231743 -0.00722729 -0.00204546 0.0019082 0.00313083 
718 2 0.202165 2.03675 5.51286 0 1 0 0.000241114 0.00014357 -0.000187679 -0.000255088 -0.00031969 0.000243419 -0.000671796 -0.000308927 0.000214982 0.5 -0.0025831 -0.000381649 -0.00172915 0.00139799 -0.00153715 0.00387376 
505 2 0.484597 3.50045 5.833 0 0 -1 -0.000245743 0.0024552 0.00141039 0.000172386 -0.00237351 -0.00125778 0.000110827 -0.000623771 0.00078306 0.5 -0.000361685 -0.00620756 -0.00295791 -4.29163e-05 -1.13416e-05 0.00481803 
524 2 3.99319 2.73434 5.70453 0 0 0 0.00372167 0.00125782 0.00382285 -0.00329867 -0.000895953 -0.00337347 -0.000865167 0.00236765 0.00137941 0.5 8.99277e-06 0.000709647 0.00057777 -0.00040952 -0.000482998 0.000399452 
839 2 0.578878 1.61641 4.31214 1 0 0 0.000884354 -0.00272777 -0.00194928 -0.000800676 0.00229927 0.00176946 -0.000333117 -7.44777e-05 0.000934173 0.5 -0.000559321 -0.00418661 -0.00252492 0.00194999 -2.82015e-05 0.0041165 
937 2 2.44312 3.38765 4.33651 1 0 0 0.000889372 -0.0019368 0.00115523 -0.000854076 0.00178026 -0.00103539 -0.000503876 -0.000503732 0.000138785 0.5 -0.0014033 1.40455e-05 -0.00320298 7.85842e-05 0.00139064 0.00188891 
811 2 2.6061 3.94618 5.52419 1 0 0 0.00029238 0.000124133 0.00131187 -0.000407789 2.93569e-05 -0.00122567 -0.000786081 -0.000773931 -8.83283e-05 0.5 -0.000639158 -0.00227642 -0.000736847 -0.000950752 -0.000181279 0.00192147 
827 2 1.52057 3.18248 4.66333 1 0 0 0.00052923 -0.0018192 0.000213974 -0.000467184 0.00148676 -0.000130663 -0.000950885 -0.00062597 -0.000593455 0.5 -0.00145547 -0.000752095 -0.00313234 -0.000478868 0.000885967 0.00208383 
149 1 4.05509 3.93301 4.6173 0 0 0 0.001009 -0.000590603 0.00259458 -0.000998392 0.000662876 -0.00233483 -2.3733e-05 9.32662e-05 0.000369488 0.5 0.000168386 -0.000525046 0.00112005 0.00185645 -0.000720516 0.000841869 
925 2 0.622567 3.59954 4.52311 1 0 0 0.00117951 -0.000623945 -0.000396501 -0.00108629 0.000343031 0.000441723 -0.000827401 0.00013844 -0.000393179 0.5 -0.000754283 -0.00123467 -0.000495593 2.33248e-05 -0.000463921 0.000759698 
168 1 3.33475 4.60364 5.32998 0 0 0 0.000916538 -0.000186312 0.00276592 -0.000963086 0.000306286 -0.00252618 -0.000385084 -0.000487152 0.00041494 0.5 -0.00231358 -0.00196666 -0.00229798 -0.00022501 -0.000492888 0.00157269 
928 2 1.57441 4.40873 4.97771 1 0 0 0.000521327 3.17202e-05 0.00161276 -0.000510389 8.98472e-05 -0.00140531 -0.000634357 -0.000132529 -0.000829414 0.5 -0.00168365 -0.0017584 -0.00160134 -0.00114021 0.000819016 0.00114577 
148 1 3.9395 3.74152 5.7436 0 0 0 0.000708449 0.0011902 0.00360361 -0.00079639 -0.00085382 -0.00326668 -0.000731244 -0.000430814 0.00146834 0.5 0.000594318 0.00191101 0.00131531 0.000919697 0.000973455 0.000932879 
914 2 4.69246 4.38512 5.24228 0 0 0 8.20912e-05 -0.000326376 0.00337193 -0.000208421 0.000469978 -0.00302345 -0.00103608 -0.000827825 -0.000848678 0.5 5.39585e-05 0.000389546 0.000853078 -6.60066e-05 0.000349122 0.000550772 
23 1 2.87728 1.11895 4.05797 0 0 0 0.000832254 -0.000835706 -0.00141947 -0.000792575 0.000766692 0.00129195 6.39376e-05 -0.00043746 9.69932e-05 0.5 -0.00190847 -0.00192462 -0.00132503 -0.00108086 0.00101921 0.000979469 
594 2 2.05529 1.97042 4.80221 0 0 0 0.000972587 0.000832171 0.000221376 -0.000887557 -0.000767931 -8.33558e-05 0.000337965 -0.000337264 0.000841847 0.5 -3.07818e-05 -0.00195806 -0.000323453 0.000880744 -0.000433871 0.00107494 
539 2 3.78385 1.03987 5.46841 0 0 0 0.00124269 0.00135568 0.00121111 -0.00118512 -0.00108757 -0.00108575 -0.000450132 0.000664996 -0.000311753 0.5 -0.000568613 -0.00634653 -0.00265383 -0.00258567 -0.00160149 0.00508603 
730 2 0.461389 1.11581 5.16981 0 1 0 0.000690305 -6.86619e-05 -0.00042256 -0.000671082 -0.000100724 0.000379399 -0.000426269 -3.35401e-05 0.000994242 0.5 0.00150107 -0.000321292 -0.0015022 -8.65675e-06 -0.000406744 0.00294508 
689 2 3.51899 0.102848 5.69609 0 1 0 0.000611029 0.00128089 0.000177171 -0.000568168 -0.00102969 -0.000141305 -0.000333217 -0.00064803 -0.000370586 0.5 -0.00279054 -0.00823291 -0.00712866 -0.00118598 0.000312849 0.00600599 
450 1 0.618032 4.79937 4.46859 1 0 0 0.00206255 -0.00109667 0.000375114 -0.00176291 0.000978272 -0.000151469 -0.00179524 -0.00037576 0.000139424 0.5 -0.00102221 -0.00273554 -0.00552831 5.05459e-05 -0.000874111 0.00319718 
549 2 4.49952 0.500929 5.01403 0 0 0 -8.03382e-05 -0.000202799 0.000563623 2.12687e-05 0.00032496 -0.000493192 -0.00030761 0.00035794 -0.000872599 0.5 0.00180036 0.00257744 0.00185095 -0.00118968 -0.00104937 0.000966105 
591 2 1.4456 1.12592 4.40476 0 0 0 0.00166134 -0.00140203 -0.00241287 -0.00151388 0.00107975 0.00215336 -0.000563666 0.000354562 0.000395003 0.5 -0.00104508 -0.00187174 -0.00155113 0.000536029 0.000215179 0.00150116 
243 1 1.20278 1.83686 5.34424 0 1 0 0.000194318 0.0010766 -0.000809384 -0.000204811 -0.00110265 0.000810224 -0.000289143 -0.000311817 0.000569521 0.5 -0.000832555 -0.00106718 -0.00057321 0.000478298 1.73148e-05 0.00138811 
646 2 3.74045 3.12399 4.10811 0 0 0 0.00180647 -0.000816237 0.0023819 -0.00162415 0.000826934 -0.0021269 -4.75809e-05 0.000209913 -0.000155973 0.5 -0.00138408 -0.00428745 -0.00301879 0.000730626 0.000305121 0.00286103 
374 1 0.580737 2.63569 4.80705 1 0 0 0.000648922 -0.000482986 -0.000453425 -0.000568396 0.000221105 0.000494765 -0.000623087 -0.000451684 -0.00027703 0.5 -0.000832188 -0.00187489 -0.000969466 -0.000545235 0.00114839 0.00142352 
418 1 0.657416 4.37262 5.37534 1 0 0 0.000580799 0.00256817 0.00193456 -0.000511484 -0.00241824 -0.0015968 -0.00123744 -0.0004791 -0.000889704 0.5 -0.00109702 -0.00415799 -0.00572837 -0.00106848 0.000622866 0.00314557 