ITEM: TIMESTEP
2000
ITEM: NUMBER OF ATOMS
1000
ITEM: BOX BOUNDS xy xz yz pp pp pp
0.0000000000000000e+00 1.0000000000000000e+01 0.0000000000000000e+00
0.0000000000000000e+00 1.0000000000000000e+01 0.0000000000000000e+00
-0.0000000000000000e+00 1.0000000000000000e+01 0.0000000000000000e+00
ITEM: ATOMS id type x y z ix iy iz vx vy vz fx fy fz omegax omegay omegaz radius c_2[1] c_2[2] c_2[3] c_2[4] c_2[5] c_2[6] 
768 2 2.64107 1.40799 0.15718 0 0 0 -83.1184 -3.68062 3.95038 -3520.32 4098.11 546.582 0 0 0 0.5 -4578.76 -1309.98 -31.3475 959.005 321.194 -166.158 
359 1 4.71092 2.81081 0.281404 0 0 0 -23.2932 2.00938 1.56603 150.985 -570.089 622.181 0 0 0 0.5 -357.581 16.7127 -282.852 137.275 -14.2929 -4.32329 
771 2 3.2814 2.29243 0.765662 0 0 0 -36.3906 -10.934 -6.65407 -532.055 1002.28 -28.5468 0 0 0 0.5 -820.144 -499.695 -8.89465 31.0077 -133.025 -11.5913 
257 1 2.64837 2.87727 1.92296 0 0 0 -14.5576 -1.68552 -0.62509 -27.9495 -277.718 130.754 0 0 0 0.5 -329.496 19.6916 -209.209 -25.4167 -243.226 -12.8015 
732 2 0.303127 0.312543 1.75286 -8 0 1 -457.766 -6.55615 15.2701 9267.86 7695.14 -1646.94 0 0 0 0.5 -114560 -2465.67 -694.799 2329.97 4264.08 -1475.66 
492 1 0.052221 0.216923 0.803747 -2 0 1 -394.926 -8.063 -6.14007 -3289.46 1282.65 -231.168 0 0 0 0.5 -86187.6 -2677.86 -709.228 680.523 -1311.54 351.044 
25 1 4.38241 0.910469 1.60488 -4 0 0 -263.203 -4.59732 15.7706 1178.77 -372.087 -2348.18 0 0 0 0.5 -35936.7 1285.61 628.742 -145.174 1687.28 -487.436 
525 2 3.7592 1.42508 0.823747 -1 0 0 -78.5632 -11.7235 -17.9049 555.84 -1009.01 67.5718 0 0 0 0.5 -3364.53 -509.543 -169.821 -241.2 -752.673 -80.6036 
616 2 2.73475 4.25344 1.6426 0 0 0 -4.34681 3.41557 0.603043 20.0822 -147.372 98.2246 0 0 0 0.5 -69.482 -177.103 -264.821 11.6065 6.19158 192.868 
431 1 4.64361 2.51983 1.95429 0 0 0 -34.0683 3.67601 -9.75993 -654.957 -673.837 646.09 0 0 0 0.5 -1088.67 -502.795 -471.473 439.678 419.778 -148.587 
747 2 0.698955 1.05738 1.56184 -5 0 1 -241.522 -6.37814 -25.1059 142.312 -8355.05 -1044.74 0 0 0 0.5 -30408.2 321.961 -305.814 489.822 -3136.81 -827.837 
654 2 0.456296 1.5497 1.75798 -2 0 1 -125.154 23.1617 -14.462 722.688 2456.29 802.277 0 0 0 0.5 -9284.22 -1767.02 -332.719 2626.52 -414.181 -463.58 
272 1 0.572965 0.6213 0.704384 -9 0 0 -458.599 59.3783 -38.5028 505.021 2507 -492.197 0 0 0 0.5 -111452 -1964.35 -700.919 14423.8 -9338.39 1317.52 
279 1 3.47644 0.460976 0.43632 14 1 0 -254.038 -17.6066 8.00539 -3404.7 2322.32 3332.25 0 0 0 0.5 -35447.4 -1582.1 -1503.66 -1201.94 1314.74 759.026 
376 1 3.00582 3.21609 1.04211 0 0 0 -18.9711 -5.08304 2.134 2.28969 10.4394 94.4991 0 0 0 0.5 -30.0085 -1.77842 21.7301 -45.3285 40.9905 -3.30739 
99 1 2.55718 4.86892 0.928549 0 0 0 2.83026 0.553764 -1.55256 350.237 -141.826 -283.392 0 0 0 0.5 -608.013 -461.926 -249.717 225.768 105.578 -56.3795 
103 1 2.77446 4.01253 0.514761 0 0 0 -8.88598 -0.841929 -3.15832 -122.156 -200.64 251.147 0 0 0 0.5 -280.435 -125.107 -125.996 40.1208 -21.7679 -67.7035 
387 1 3.18726 0.772144 0.0723749 -1 0 0 -211.766 -11.4224 -42.9671 2732.2 -966.498 -3600.94 0 0 0 0.5 -24387 -1345.38 -1288.08 477.997 -5163.93 -274.791 
755 2 1.64202 2.08251 1.06855 0 0 0 -35.196 -14.0058 -1.20653 127.893 -52.9633 106.203 0 0 0 0.5 -694.57 -110.592 -32.452 -239.076 -60.3967 6.95568 
378 1 2.20135 2.92539 0.324252 0 0 1 -20.0643 -5.58361 -3.64123 202.573 -2.99438 -87.9365 0 0 0 0.5 -455.415 -173.006 -205.068 128.242 108.23 -147.135 
629 2 2.0344 3.11449 1.2542 0 0 0 -22.0611 -12.4999 -0.0440873 20.5712 -46.6297 21.1326 0 0 0 0.5 -352.892 -182.015 -315.161 -49.119 -176.537 53.6633 
91 1 1.88811 4.84068 1.78549 0 0 0 -2.95597 1.54196 -0.924956 2.04505 -301.133 -170.699 0 0 0 0.5 -64.0618 -352.2 -376.754 -73.3841 34.278 245.328 
770 2 0.923352 2.38013 0.471768 0 0 0 -35.7926 -9.70368 0.951846 -98.0556 -107.526 14.4443 0 0 0 0.5 -718.854 -118.265 -66.6822 -151.469 -28.8603 66.5571 
636 2 4.60226 1.8466 0.243302 -1 0 1 -69.2483 -3.718 -27.2477 -1405.39 438.099 621.292 0 0 0 0.5 -3115.45 127.125 -636.274 -112.618 -668.296 -0.535254 
117 1 4.79514 1.35478 0.959935 -1 0 0 -105.084 -10.3042 -0.703788 -4113.2 -1030.54 4675 0 0 0 0.5 -6327.58 215.215 137.491 6.24826 150.002 -669.088 
5 1 1.87526 4.06656 1.18505 0 0 0 -5.19543 -5.97915 2.63808 77.7565 -163.453 137.956 0 0 0 0.5 -31.5134 -206.195 -35.296 36.2014 -15.2114 73.0528 
620 2 1.59729 4.8709 0.780245 0 0 0 6.71624 4.78508 6.01437 -5.79347 -933.582 359.697 0 0 0 0.5 -626.93 -647.89 -502.414 182.655 127.561 136.087 
626 2 0.63063 4.13318 0.713377 0 0 0 -3.08073 -6.62355 -4.51404 -146.425 -191.425 63.6567 0 0 0 0.5 -117.997 -172.619 -356.3 -14.8345 -47.5076 -85.9722 
41 1 2.89373 1.66173 1.92638 -1 0 0 -68.5884 -10.3742 -19.9537 -51.2154 -4.43912 -20.4319 0 0 0 0.5 -2478.61 -55.2967 -213.641 -380.4 -732.02 -109.035 
100 1 3.4493 4.85001 0.572758 0 0 0 -0.1622 4.04813 -1.94498 195.651 -13.0426 -204.4 0 0 0 0.5 -436.251 -88.5213 -100.072 -22.8356 -1.68049 10.8123 
21 1 2.65245 0.1676 1.83621 -6 0 0 -544.491 23.2625 2.58733 441.3 887.174 -1770.23 0 0 0 0.5 -154961 -424.312 -546.478 6693.51 606.646 245.241 
903 2 0.116769 4.92436 1.01423 1 0 0 4.75611 -3.7943 -1.64993 175.483 -143.022 29.4081 0 0 0 0.5 -78.66 -275.667 -70.3888 68.5465 -35.6527 -29.4302 
514 2 0.889924 2.52587 1.58908 0 0 0 -31.9313 -6.10508 3.86925 7.04619 121.795 -23.6805 0 0 0 0.5 -533.668 40.0324 -5.58779 -98.6271 64.021 0.790662 
371 1 4.5767 4.28626 1.53903 0 0 0 -7.68423 5.23665 1.99662 -117.629 303.854 194.103 0 0 0 0.5 -78.7325 -486.058 -118.137 170.583 -25.2737 93.4325 
916 2 3.78901 2.14891 1.59851 0 0 0 -41.3544 -9.73041 0.839098 389.769 291.437 -524.05 0 0 0 0.5 -762.472 -40.1387 -242.518 -165.066 129.4 93.5773 
364 1 4.3946 4.8437 0.759774 0 0 0 -0.136561 1.73354 0.39578 70.7144 -115.52 -92.1391 0 0 0 0.5 -531.691 -616.039 -253.304 411.695 -7.7862 -47.4919 
622 2 0.840722 4.92886 0.153665 0 0 0 0.0540251 1.75954 10.068 175.045 -313.816 -23.0128 0 0 0 0.5 -116.546 -302.35 -350.562 112.26 -105.944 -23.6321 
734 2 3.69465 3.82166 0.281257 0 0 0 -12.7316 -4.23152 -9.30358 158.413 -228.813 -135.375 0 0 0 0.5 -388.62 -102.209 -199.116 -4.77441 -53.3095 7.05177 
264 1 3.60174 4.11356 1.20105 0 0 0 -6.78537 -2.79832 -5.80673 39.5198 -72.2573 -121.363 0 0 0 0.5 -78.5137 -225.349 -200.812 59.4177 -16.7188 -8.35274 
488 1 3.59666 0.291359 1.55886 -7 0 1 -537.829 29.3292 -17.6731 -4446.13 1794.74 140.397 0 0 0 0.5 -152417 -749.217 67.4002 8916.02 -5155.82 311.089 
157 1 0.976531 4.58613 1.48419 0 0 0 2.29432 -7.7723 -4.97426 -20.6192 24.5732 69.1074 0 0 0 0.5 -162.189 -210.998 -329.981 -11.4146 21.2972 -26.1316 
759 2 -0.00998914 2.24947 0.935122 0 0 0 -37.3101 -9.14419 10.7186 -9.52942 44.2117 -63.687 0 0 0 0.5 -728.294 -31.3095 -34.2753 -181.325 213.265 33.3535 
854 2 3.91306 3.21675 1.44629 0 0 0 -11.1464 -3.61683 -3.3928 -99.2245 -176.249 -57.7089 0 0 0 0.5 3.64155 -87.1499 13.7598 10.6282 -0.966799 6.81302 
135 1 0.153353 3.93663 1.61674 0 0 0 -10.5064 -3.76588 -1.4353 15.3294 -200.601 63.42 0 0 0 0.5 -450.678 -215.285 -20.781 260.923 76.6668 -59.574 
94 1 0.946494 3.50371 1.39896 0 0 0 -8.78497 -5.29499 0.445724 -120.756 -352.374 -71.5253 0 0 0 0.5 -451.67 -51.5887 -381.289 145.864 -6.34388 -4.43328 
1000 2 1.41557 3.4026 0.577733 0 0 0 -14.0664 1.7439 -3.31466 -33.3585 163.441 40.3131 0 0 0 0.5 -491.763 -183.519 -455.866 148.367 -59.3226 24.4659 
373 1 4.49812 3.61191 0.752561 0 0 0 -10.1469 12.0919 2.61611 -127.664 -424.5 475.131 0 0 0 0.5 -197.82 -305.371 -235.653 37.7629 -44.3737 100.878 
389 1 4.87692 3.38441 1.62533 0 0 0 -14.2694 9.35764 5.29587 -631.863 482.996 467.45 0 0 0 0.5 -436.077 -1015.59 -556.116 386.173 171.892 -379.496 
543 2 3.64148 1.92859 2.51327 -1 0 0 -80.1982 -2.11031 -6.76566 -583.559 -302.937 336.866 0 0 0 0.5 -3639.57 -75.1783 -395.913 -102.467 -305.982 -4.49579 
392 1 4.0775 2.94784 2.3917 0 0 0 -26.1019 7.52323 3.18443 19.0507 84.4668 -285.523 0 0 0 0.5 -1219.44 -285.052 -504.068 426.438 272.849 -336.536 
517 2 1.75551 2.59014 2.53078 0 0 0 -41.6809 2.19366 -7.19261 -183.341 -374.387 39.2154 0 0 0 0.5 -1191.17 -553.208 -293.055 199.468 -164.347 305.861 
383 1 3.81114 3.94261 2.12196 0 0 0 -10.1941 -5.5063 -0.609514 -13.8169 -159.412 -29.2517 0 0 0 0.5 -127.64 -71.7802 -129.775 -5.43714 -29.6438 -19.128 
147 1 1.14532 1.10755 3.11166 -1 0 0 -243.985 18.7399 19.2595 2256.21 -2448.75 3666.03 0 0 0 0.5 -32033.4 -153.132 -1169.45 4223.7 2142.31 120.462 
528 2 3.22545 4.65593 2.45932 0 0 0 -2.59505 0.187317 3.01253 157.59 -72.2147 60.3265 0 0 0 0.5 -91.3215 -163.987 -167.048 72.7884 18.5549 96.9277 
251 1 3.5972 3.39628 3.72026 0 0 0 -14.7004 -1.20507 -2.89336 -65.8102 212.572 126.981 0 0 0 0.5 -362.345 -208.29 -237.767 42.4259 61.169 -55.6175 
515 2 3.12384 1.09086 2.97101 -3 0 0 -216.191 -2.94968 -6.87683 0 0 0 0 0 0 0.5 -24472.1 -4.55562 -24.7614 -333.895 -778.437 -10.6209 
814 2 2.39793 1.80645 3.45299 -1 0 0 -93.4106 3.50189 19.0727 -167.788 336.977 -703.296 0 0 0 0.5 -4609.55 -2.27371 -191.493 222.781 825.32 -38.9222 
509 2 3.64932 1.48605 3.75462 -1 0 0 -95.0942 3.5873 -1.59385 86.4057 3.0718 -48.4961 0 0 0 0.5 -4769.39 -6.78171 -12.2112 177.388 -59.973 3.68296 
95 1 2.61287 3.72689 2.44359 0 0 0 -22.6665 2.90887 -3.46471 -348.198 12.0427 -107.628 0 0 0 0.5 -918.831 -383.672 -156.741 494.052 -77.2054 142.507 
369 1 2.46293 2.86308 3.32542 0 0 0 -28.9998 3.35819 5.07972 187.234 -505.937 -43.0386 0 0 0 0.5 -551.37 -332.761 -85.3604 224.211 33.3222 6.69359 
313 1 0.528784 1.75488 2.73392 0 0 0 -88.0825 11.6818 -12.2255 -2988.66 -272.009 -1966.27 0 0 0 0.5 -5188.69 -1098.29 -119.114 2242.55 -1167.39 929.307 
773 2 1.37149 2.75119 3.4123 0 0 0 -25.5385 -5.95948 2.45027 441.354 1932.12 883.945 0 0 0 0.5 -630.145 -981.336 -528.082 84.3935 198.725 -248.701 
32 1 1.48841 0.790675 2.45761 8 1 0 -354.464 -5.01346 -20.4599 967.512 -893.591 -1844.4 0 0 0 0.5 -65953.5 -154.741 -822.349 -777.19 -3480.9 -345.935 
783 2 3.06066 2.419 3.93875 0 0 0 -28.8903 -11.1556 -1.68062 187.397 -416.05 531.191 0 0 0 0.5 -861.35 -117.735 -371.618 -108.048 255.19 34.7504 
402 1 0.256135 0.901715 2.5559 -1 0 0 -233.003 -1.94335 -5.39343 -1808.08 4725.23 -924.646 0 0 0 0.5 -28965.7 76.3034 -1030.9 603.99 -1203.42 422.858 
510 2 2.05677 3.68379 3.29887 0 0 0 -23.5489 7.68193 2.85441 -170.678 -26.6646 97.8374 0 0 0 0.5 -448.135 -615.667 -97.8948 220.914 30.5171 35.0269 
813 2 0.795868 0.41904 3.09997 11 1 0 -338.947 -22.747 -11.554 3248.99 -547.903 2581.57 0 0 0 0.5 -60624.6 -119.985 -647.703 -3185.24 -2665.22 380.365 
366 1 3.2833 3.18332 2.58913 0 0 0 -28.8306 1.31929 4.8184 -203.669 243.31 405.8 0 0 0 0.5 -1475.6 -470.233 -350.96 495.632 -80.5195 127.232 
411 1 2.55623 2.21824 2.62838 0 0 0 -36.6323 -5.72821 3.32002 548.161 -452.427 235.6 0 0 0 0.5 -930.56 -31.4307 130.543 16.5465 6.8474 -90.4162 
434 1 1.50023 1.86158 3.05235 0 0 0 -89.8858 22.0731 5.98853 -665.553 -4178.94 -433.425 0 0 0 0.5 -4109.36 -601.654 -225.04 1446.76 342.436 -400.328 
519 2 3.89609 4.07938 3.08545 0 0 0 -6.22675 -0.251665 1.07988 11.5703 53.1798 -52.1887 0 0 0 0.5 -401.487 -222.578 -140.728 -17.4469 48.4035 82.8498 
14 1 1.58791 3.37621 2.08804 0 0 0 -12.3187 7.44526 2.28379 497.523 205.568 -105.486 0 0 0 0.5 -335.646 -634.298 -274.83 326.832 -181.801 132.792 
675 2 2.15793 4.62855 3.37829 0 0 0 -1.66895 4.0242 -3.43987 121.191 -65.3699 -141.507 0 0 0 0.5 -466.231 -716.522 -615.605 225.14 24.8251 45.5062 
682 2 1.85469 4.23053 2.52529 0 0 0 -17.2886 8.14879 0.563887 -399.459 80.2362 266.231 0 0 0 0.5 -673.013 -545.822 -315.847 214.532 -51.7099 80.4025 
187 1 0.395278 1.75134 3.65943 -1 0 0 -78.2461 -7.98617 11.4663 124.763 12.5679 -509.536 0 0 0 0.5 -3225.34 -34.3884 161.132 -332 441.315 48.0453 
136 1 4.56913 1.92445 2.72433 -1 0 0 -82.1269 -3.93512 -3.35141 156.416 550.036 281.739 0 0 0 0.5 -3878.51 106.255 50.3489 -142.54 -207.013 -65.3671 
965 2 0.267519 4.09418 3.28696 0 0 0 -10.6606 5.89581 -4.46288 -256.966 432.221 -15.3837 0 0 0 0.5 -184.44 -242.069 -92.5348 81.1331 -79.6077 99.7091 
290 1 3.65735 0.170806 2.34502 6 1 0 -590.288 17.0791 31.4953 1160.44 -355.49 -1942.2 0 0 0 0.5 -182101 -107.324 206.666 5157.77 9307.15 -152.044 
900 2 4.45333 2.34567 3.53069 0 0 0 -38.1756 6.80787 23.4815 -1282.31 1531.4 -716.914 0 0 0 0.5 -1713.95 -945.72 -562.717 709.669 412.446 364.786 
806 2 4.17811 0.440389 3.89284 -9 0 0 -429.521 40.6622 2.5754 -594.234 3618.77 730.096 0 0 0 0.5 -96623.7 -1839.74 69.5504 9391.04 650.133 -124.813 
512 2 0.161721 3.13039 3.45262 0 0 0 -18.2108 12.3063 4.54439 11.1509 246.107 -242.098 0 0 0 0.5 -387.451 -427.378 -288.485 153.754 -44.2805 96.7849 
130 1 -0.016378 3.49629 2.52146 0 0 0 -11.4096 2.81643 -5.22516 312.748 387.554 -455.034 0 0 0 0.5 -672.085 -722.843 -111.513 418.47 -75.1475 54.4879 
144 1 0.953016 4.07751 2.31504 0 0 0 -16.1255 -5.52928 -5.84616 -531.517 213.355 208.092 0 0 0 0.5 -662.299 -386.816 -188.056 174.047 -15.877 12.5185 
896 2 0.138234 4.56273 2.4187 0 0 0 -8.24305 6.29053 -2.00447 304.666 -209.428 -21.7352 0 0 0 0.5 -523.997 -216.948 -129.76 312.827 -29.3783 -15.6296 
405 1 3.61952 2.55809 3.21314 0 0 0 -34.6687 0.868192 0.266581 256.54 -420.367 -422.797 0 0 0 0.5 -1071.63 -391.171 -578.347 133.77 27.477 88.8539 
263 1 4.41475 3.27081 3.21319 0 0 0 -14.2457 -6.2184 -2.51012 235.953 478.582 166.539 0 0 0 0.5 -410.441 -407.071 -538.358 18.4444 -220.208 29.7644 
458 1 1.13015 4.61673 3.39181 0 0 0 -6.66164 3.93502 5.94162 67.7437 -35.2007 311.707 0 0 0 0.5 -32.9055 -138.798 -170.659 25.4124 -12.5328 82.1466 
151 1 1.11063 3.68445 3.58337 0 0 0 -21.7896 -1.84639 4.85588 -75.4801 -202.388 -317.052 0 0 0 0.5 -546.791 -120.908 -188.741 72.9987 -13.0407 121.629 
641 2 2.96873 4.1666 3.25121 0 0 0 -8.94865 -7.68532 -1.92146 89.7818 -352.075 -1.59598 0 0 0 0.5 -487.426 -189.877 -221.822 76.2896 102.6 16.9021 
8 1 0.0849169 2.58044 2.70288 0 0 0 -38.0691 8.85736 -0.374335 -740.167 143.782 -465.507 0 0 0 0.5 -1029.43 -1133.75 -84.3922 647.527 6.7876 279.153 
6 1 0.86878 3.20493 2.74757 0 0 0 -19.3521 -2.18623 1.4316 461.398 -34.9989 -248.267 0 0 0 0.5 -466.843 -156.222 -91.3498 139.988 -193.765 148.68 
11 1 4.29461 4.73193 2.4864 0 0 0 -5.29105 -6.14263 -5.74061 -178.292 43.1005 -114.721 0 0 0 0.5 -430.024 -590.269 -216.358 222.442 40.8939 45.6289 
36 1 4.57687 0.122889 2.97142 -6 0 0 -429.043 -16.7706 -15.0106 1149.47 2256.4 1912.3 0 0 0 0.5 -96014.4 825.825 475.939 -3175.69 -3425.57 -101.906 
865 2 4.71123 3.85577 2.47014 0 0 0 -7.74044 -1.37073 5.4206 -70.5204 -129.332 446.653 0 0 0 0.5 -306.663 -324.629 -256.981 153.617 104.105 -79.0124 
521 2 4.74108 4.48372 3.30851 0 0 0 -5.63482 3.01626 1.03091 201.673 -140.006 -314.275 0 0 0 0.5 -602.988 -418.248 -286.437 267.127 9.11588 -110.387 
114 1 4.97435 0.803466 3.12808 -2 0 0 -310.863 23.6423 8.63068 -7698.49 -530.147 -4061.74 0 0 0 0.5 -52779 558.115 -368.63 5153.38 256.435 278.735 
657 2 4.58844 4.76179 5.87941 0 0 0 -2.72654 -2.26133 2.40453 -171.397 -58.1348 -95.1113 0 0 0 0.5 -354.468 -752.072 -207.729 379.295 237.974 -182.144 
549 2 3.51851 0.77554 5.82522 -3 0 0 -180.648 -0.920889 -15.1185 -4352.41 -3023.92 -7491.28 0 0 0 0.5 -16974 -582.506 588.436 514.874 -5.60213 1614.25 
335 1 3.85864 1.8608 4.96296 0 0 0 -48.091 7.78561 -11.7238 -1859.21 4253.95 -2043.83 0 0 0 0.5 -1486.32 -1473.32 -404.737 826.096 -597.92 740.407 
540 2 2.62301 0.510144 4.1741 -5 0 0 -213.218 -21.0861 7.34243 417.306 1743.45 53.8379 0 0 0 0.5 -23756.5 593.137 -27.4403 -2156.38 825.819 106.571 
123 1 2.8498 1.45762 4.20336 -2 0 0 -98.892 -8.9765 19.3805 -281.865 -1917.78 363.051 0 0 0 0.5 -5157.94 753.838 -344.975 -229.641 945.778 181.538 
908 2 3.11473 2.53625 5.0317 0 0 0 -25.5642 1.08953 1.22672 0 0 0 0 0 0 0.5 -342.188 -0.621552 -0.787937 14.5838 16.4202 -0.699817 
23 1 4.55834 1.62405 4.16582 -1 0 0 -98.3912 13.557 5.6565 206.191 -821.945 847.621 0 0 0 0.5 -5079.18 -641.908 -376.569 746.507 244.342 395.2 
39 1 1.52843 0.58858 4.37958 -3 0 0 -251.462 19.3987 -0.398077 -453.861 -1702.2 522.685 0 0 0 0.5 -33063.8 437.8 59.7746 2723.41 -104.389 -190.892 
548 2 2.47204 2.66677 5.86108 0 0 0 -21.66 -6.29507 12.2469 -694.409 -296.379 -677.301 0 0 0 0.5 -530.089 -228.913 -375.125 -109.266 -110.965 10.3492 
283 1 2.69703 1.085 5.17837 -2 0 0 -255.22 24.9024 31.9147 -3024.47 5234.6 470.406 0 0 0 0.5 -34723.2 -2174.31 -548.246 4396.45 4360.88 -582.346 
28 1 2.2594 3.26216 5.14811 0 0 0 0.9783 -7.40108 -2.24051 238.203 -105.757 -114.558 0 0 0 0.5 -106.001 -133.597 -58.0425 99.5878 -27.782 46.7647 
554 2 1.27518 2.66573 5.98395 0 0 0 -39.552 -2.3228 0.69723 499.596 -109.436 -885.77 0 0 0 0.5 -1332.57 -245.6 -1187.71 279.045 -125.432 92.2277 
937 2 1.77324 3.37162 4.21873 0 0 0 -14.9644 0.5226 -3.18184 10.2508 -139.552 32.2626 0 0 0 0.5 -393.669 -503.733 -124.444 196.466 -103.518 70.775 
137 1 2.15377 0.18117 5.06569 -6 0 0 -467.257 5.19698 -26.923 628.821 745.515 -511.301 0 0 0 0.5 -114007 -199.114 -536.539 1342.67 -6577.17 253.471 
920 2 2.28974 2.64645 4.35845 0 0 0 -32.2726 -16.4587 4.63585 -176.98 -411.356 437.007 0 0 0 0.5 -882.645 -374.603 -87.1286 -58.8827 173.995 44.1117 
716 2 0.956032 1.83718 4.48939 -1 0 0 -68.0087 -15.3077 8.41318 415.482 -382.788 -740.605 0 0 0 0.5 -2482.53 -254.593 -502.531 -492.526 413.795 115.927 
154 1 2.48538 4.18642 4.83871 0 0 0 -10.2304 -2.88859 -0.53215 157.286 -18.6391 -8.79534 0 0 0 0.5 -398.334 -140.883 -422.17 123.549 14.2149 -97.1364 
646 2 2.72773 3.67226 4.05433 0 0 0 -13.9075 -5.6878 -0.391579 -282.716 -151.651 40.3433 0 0 0 0.5 -249.678 -93.6249 -174.325 8.13605 95.8007 -39.1271 
995 2 0.654926 1.88395 5.41909 -1 0 0 -100.674 -14.2399 -17.1831 742.439 -2318.5 1143.1 0 0 0 0.5 -5517.12 -974.195 -929.573 -366.844 -808.678 -1.78568 
428 1 4.66291 3.35016 5.26519 0 0 0 -23.8964 -6.22239 7.44782 45.1357 -42.5698 86.9985 0 0 0 0.5 -382.671 -275.354 -207.479 1.17286 79.1342 -24.2514 
811 2 2.10512 4.37337 5.67308 0 0 0 -8.87859 -1.34155 0.622744 207.674 8.05591 281.579 0 0 0 0.5 -341.635 -102.533 -362.346 -16.4694 48.6156 -102.023 
518 2 1.26325 2.87939 5.07621 0 0 0 -19.1495 12.0864 13.3024 327.554 -531.496 -382.74 0 0 0 0.5 -208.599 -312.572 -822.047 299.78 -20.4499 255.046 
546 2 1.61527 3.5907 5.98984 0 0 0 -10.4253 -2.96412 6.39782 -337.457 -335.337 -108.784 0 0 0 0.5 15.5488 120.55 -269.879 67.0557 -36.4969 84.4837 
928 2 0.979657 4.39139 4.62086 0 0 0 -6.60274 -0.805406 -7.26561 -106.752 -168.784 -76.2675 0 0 0 0.5 -743.728 -689.415 -218.852 272.336 0.780817 -52.9137 
647 2 0.684994 2.61476 4.07318 0 0 0 -24.4491 0.961736 -5.31914 538.565 -274.162 188.57 0 0 0 0.5 -973.353 -305.847 -520.194 73.3013 63.5304 148.956 
524 2 0.346924 2.5008 5.87827 0 0 0 -42.23 5.75421 14.5628 442.507 264.034 -168.95 0 0 0 0.5 -1795.24 -457.203 -386.327 491.042 520.635 -272.215 
340 1 4.73859 2.40559 5.55104 0 0 0 -28.932 -6.2726 5.90375 -326.269 312.298 117.178 0 0 0 0.5 -855.165 -241.469 -101.112 68.7348 217.118 38.6913 
678 2 2.91015 4.76669 4.01853 0 0 0 -6.54732 -0.669024 -4.60394 133.61 -56.4341 93.2226 0 0 0 0.5 -116.261 -83.0457 -180.398 -39.3045 -110.275 -107.857 
731 2 3.10534 0.378306 5.11487 7 1 0 -449.195 13.5331 -52.2873 2968.66 -1038.14 5064.82 0 0 0 0.5 -106367 -1608.65 257.16 5314.16 -10802.6 1231.07 
200 1 3.92163 0.0541143 4.89471 -5 0 0 -470.348 10.1707 25.4746 -8293.7 4790.76 -949.68 0 0 0 0.5 -119529 -1242.56 -913.711 4022.22 6780.45 179.065 
148 1 3.04057 4.04848 5.79433 0 0 0 -9.16815 -6.73271 0.176801 237.757 -105.651 -460.447 0 0 0 0.5 -156.882 -254.947 -273.613 53.2889 178.474 -82.8903 
827 2 0.847205 3.44395 4.49983 0 0 0 -14.4108 -0.412467 6.17933 -98.0795 -195.447 -456.201 0 0 0 0.5 -667.403 -689.158 -400.476 318.116 -141.738 179.559 
250 1 3.99324 3.19545 4.5828 0 0 0 -14.54 -12.0282 -4.15344 45.1487 -152.689 54.1895 0 0 0 0.5 -193.358 -108.266 -146.94 -67.4304 -105.085 -25.327 
925 2 0.11563 4.00652 4.41691 0 0 0 -7.99384 -3.40672 -3.18563 -167.217 265.353 -174.937 0 0 0 0.5 -700.295 -505.799 -155.283 298.334 -100.981 61.7176 
180 1 1.80717 4.31609 4.19391 0 0 0 -7.4286 0.0185337 -5.0581 175.155 345.254 -252.033 0 0 0 0.5 -453.167 -321.939 -363.472 13.4542 84.525 88.3077 
914 2 4.38605 4.22288 5.00091 0 0 0 -5.08681 1.18979 -1.25617 1.74978 -131.951 116.76 0 0 0 0.5 -275.113 -254.663 -235.75 156.884 1.66333 -43.9975 
573 2 1.54807 3.84416 5.05704 0 0 0 -8.33083 -5.89369 3.23587 137.888 -69.4172 130.513 0 0 0 0.5 -315.065 -239.212 -245.158 128.174 -135.037 65.2606 
149 1 3.7963 4.89241 5.26062 0 0 0 4.16324 10.3398 7.98984 291.475 188.102 82.1462 0 0 0 0.5 -354.785 -221.525 -141.956 158.52 72.281 -67.6118 
717 2 4.15486 1.18304 5.2886 -2 0 0 -213.624 9.76137 -4.33051 2504.04 -2752.31 2542.35 0 0 0 0.5 -24723.9 -1758.32 -1269.42 1545.2 -149.472 716.606 
418 1 0.238153 4.35774 5.34779 0 0 0 -3.35636 5.68573 -4.87137 -48.5534 -230.864 144.173 0 0 0 0.5 -186.872 -279.437 -179.352 63.5319 35.9169 156.558 
766 2 3.60655 3.27097 5.61127 0 0 0 -11.9169 -9.3891 0.935607 153.709 -317.97 -8.24301 0 0 0 0.5 -97.3737 -10.0219 15.9408 -43.4009 27.2591 -45.2175 
127 1 0.585092 3.51055 5.58779 0 0 0 -12.1532 -1.33663 1.11672 117.13 -272.952 108 0 0 0 0.5 -95.1676 -112.545 5.76366 36.6215 -1.96488 29.0806 
824 2 1.13902 4.41539 5.75461 0 0 0 -5.71599 2.2129 0.0455856 -410.62 -648.99 317.739 0 0 0 0.5 -296.504 -286.068 -135.836 2.15688 35.3632 63.941 
795 2 3.86364 2.35561 5.89032 0 0 0 -33.9679 -21.5727 1.39514 -18.7297 -60.6383 -285.843 0 0 0 0.5 -889.197 -198.873 -126.35 -343.392 214.232 -75.2571 
513 2 0.330106 2.68406 4.95805 0 0 0 -23.9175 -12.5249 -2.99501 443.606 546.546 -349.626 0 0 0 0.5 -605.036 -973.479 -325.778 400 -115.531 324.184 
867 2 4.48194 0.900688 4.54193 -2 0 0 -249.954 -5.50842 -2.90291 556.821 -1168.06 -1753.16 0 0 0 0.5 -32812.8 -183.212 -564.499 -601.753 -60.2849 -112.549 
155 1 3.35872 3.86963 4.8659 0 0 0 -2.5417 2.07035 2.84666 325.822 -154.05 11.0509 0 0 0 0.5 -210.113 -55.5978 -68.1589 77.7378 44.0208 -17.5907 
527 2 3.86819 4.40209 4.20579 0 0 0 -8.89137 3.05193 -2.05645 -141.981 -43.4959 -25.2336 0 0 0 0.5 -103.023 -68.3554 -145.756 14.044 -22.8253 83.9414 
396 1 4.76694 3.99274 4.14077 0 0 0 -12.6657 -7.22314 -2.10833 -452.751 -102.898 -178.294 0 0 0 0.5 -425.742 -76.0218 -207.157 28.3316 10.1885 7.91125 
228 1 0.488649 0.333557 7.85053 -6 0 0 -428.963 35.1913 4.01591 257.249 -6168.64 6788.57 0 0 0 0.5 -96682.8 1368.78 -927.068 8969.03 -798.966 -127.044 
633 2 0.984899 1.65606 7.42169 0 0 0 -96.0367 -18.4984 -1.03781 345.01 1170.89 806.728 0 0 0 0.5 -5014.75 227.12 -1020.09 -703.205 -605.43 399.239 
348 1 3.22135 2.72166 6.47861 0 0 0 -26.7705 -6.4205 -1.51429 758.418 -90.7058 553.433 0 0 0 0.5 -903.875 -230.162 -515.028 101.241 -120.492 -41.7821 
66 1 2.59389 3.43587 6.41733 0 0 0 -14.7538 1.58816 3.33691 -275.911 602.238 196.45 0 0 0 0.5 -336.712 -307.318 -127.507 93.1498 75.1277 -12.9482 
377 1 0.936067 0.510462 6.4508 -3 0 0 -308.065 -18.1643 -27.2691 2129.13 -3255.33 1147.22 0 0 0 0.5 -50071.8 -1061.86 -499.772 -2348.44 -4603.5 53.9778 
61 1 3.05835 0.156843 6.56227 -3 0 0 -381.181 12.5017 41.5457 -14083.9 4462.5 3438.86 0 0 0 0.5 -78737.4 -261.183 -1840.62 4636.48 8851.47 -1192.41 
38 1 3.25338 1.52641 6.17065 -1 0 0 -106.477 9.72593 6.284 -2177.3 2680.15 -1347.22 0 0 0 0.5 -6437.44 -826.897 -738.698 1059.79 -79.1794 119.895 
596 2 1.92135 1.76739 7.2359 -3 0 0 -82.3551 -10.8661 11.4827 138.912 -929.11 879.248 0 0 0 0.5 -3488.65 -324.083 -290.486 -349.442 375.641 306.774 
544 2 2.45029 3.7573 7.37739 0 0 0 -3.11982 -2.51131 4.68169 -167.039 -104.797 151.409 0 0 0 0.5 -355.409 -106.499 -57.9052 78.2677 73.7125 -45.4747 
80 1 2.5662 4.50126 6.50917 0 0 0 2.49364 -2.57938 -3.80485 -276.063 169.039 605.094 0 0 0 0.5 -164.45 -132.411 -329.952 52.7111 60.4643 -171.644 
845 2 3.13752 2.57297 7.4289 0 0 0 -34.4923 -6.08898 -4.56779 -1188.05 1242.02 -343.145 0 0 0 0.5 -935.692 -375.603 -722.314 186.456 -123.299 251.028 
643 2 4.83392 2.22907 6.7984 0 0 0 -41.4832 6.86999 -17.682 -180.398 -740.388 330.906 0 0 0 0.5 -938.298 -488.118 -284.011 365.621 -453.573 275.452 
35 1 4.82922 2.90279 7.55284 0 0 0 -11.6254 -6.25517 9.77374 0 0 0 0 0 0 0.5 -70.7639 -20.4869 -50.0173 -38.0754 59.493 32.0109 
584 2 1.74518 3.29725 6.89137 0 0 0 -11.7137 1.96542 7.99793 -490.966 -41.7446 -378.203 0 0 0 0.5 -207.742 -129.08 -518.672 80.5908 46.8284 121.606 
69 1 2.26934 1.76201 6.06878 0 0 0 -48.7127 -15.525 -24.5061 -33.2577 -148.447 34.0777 0 0 0 0.5 -1245.83 -193.356 -317.987 -411.024 -621.598 -183.791 
572 2 2.16945 2.77548 7.61717 0 0 0 -31.501 -5.92 0.708451 264.694 -325.529 452.823 0 0 0 0.5 -575.722 -103.276 -164.593 -28.589 -84.3726 120.331 
252 1 0.5788 1.0567 6.2583 11 1 0 -210.244 17.2055 -52.7771 284.975 3299.39 -2142.95 0 0 0 0.5 -24409.2 -1271.72 -1696.26 2281.93 -5722.02 777.797 
694 2 2.42253 0.369699 7.74058 -6 0 0 -351.164 -8.76387 4.87806 -116.807 1501.19 -1088.58 0 0 0 0.5 -65467.5 -2750.1 -414.532 -76.1927 1442.96 -830.681 
42 1 1.68516 2.35203 6.6952 0 0 0 -44.0528 0.0267764 -5.70812 402.773 340.988 499.013 0 0 0 0.5 -1216.09 -344.027 -714.575 228.013 -502.368 454.785 
73 1 1.68128 4.91493 6.71179 0 0 0 2.33405 -4.01286 -0.176041 -220.449 -228.133 -122.999 0 0 0 0.5 -208.103 -141.914 -289.932 -131.908 83.4327 21.0885 
86 1 1.02612 2.63365 7.54919 0 0 0 -47.0107 3.02874 -1.22869 -115.941 -665.597 -50.989 0 0 0 0.5 -1072.14 723.03 17.0842 131.968 -44.8649 94.6226 
332 1 0.615577 1.86772 6.5717 0 0 0 -56.0691 0.292094 14.4743 -262.634 102.57 -1483.43 0 0 0 0.5 -1868.07 -520.349 -918.961 235.836 144.26 71.9571 
703 2 0.158499 2.64805 6.83628 0 0 0 -34.8009 8.90739 15.251 -533.661 412.688 -108.513 0 0 0 0.5 -639.703 -128.973 -248.153 330.33 398.998 -326.566 
611 2 0.971062 4.3156 7.04537 0 0 0 -2.9342 2.18284 -9.47124 -186.487 -196.949 -46.3584 0 0 0 0.5 -125.211 -75.133 -76.4052 -24.3983 42.7487 55.4228 
152 1 3.82989 4.02192 6.37521 0 0 0 -5.99066 -3.58183 2.44 136.005 -89.0338 -318.067 0 0 0 0.5 -182.389 -183.13 -139.08 23.4332 126.84 40.8733 
2 1 0.0759309 4.5888 7.3208 0 0 0 -4.05561 -3.83355 -0.686904 120.298 58.3759 220.486 0 0 0 0.5 -200.034 -266.739 -205.052 41.1636 79.0379 -43.7847 
662 2 4.04058 4.49914 7.30257 0 0 0 1.57586 -2.13569 1.86314 63.5441 -71.5193 32.7665 0 0 0 0.5 -136.917 -3.00062 -45.4409 -41.0399 45.9187 29.686 
242 1 4.47497 0.784135 7.04194 -2 0 0 -199.082 5.01838 14.6597 -1711.01 7218.38 1355.39 0 0 0 0.5 -22134.6 -2305.51 -3.45589 2485.6 1489.57 87.1385 
198 1 0.166886 3.99905 6.55328 0 0 0 -10.6681 -1.01969 -0.139354 158.677 -77.6637 -445.495 0 0 0 0.5 -198.549 -506.732 -480.01 58.8247 -98.5226 70.592 
741 2 4.86991 0.0835725 6.98283 -9 0 0 -480.673 -15.0156 24.4322 4692.13 -7826.88 381.172 0 0 0 0.5 -121915 -2778.81 -694.226 -2221.55 6052.51 181.987 
542 2 3.60042 0.351185 6.36028 -4 0 0 -351.507 22.9018 20.645 802.163 -1746.35 2690.01 0 0 0 0.5 -65775.8 -369.344 -958.915 4125.22 3975.66 544.254 
551 2 3.073 4.53472 7.35512 0 0 0 -0.906601 -3.73384 0.626721 230.579 -243.747 21.8038 0 0 0 0.5 -214.666 -214.537 -80.5159 135.041 -4.73587 38.5114 
236 1 0.084669 2.72715 7.82762 0 0 0 -50.0327 19.2361 3.88808 -492.922 448.716 198.556 0 0 0 0.5 -1192.67 -995.673 -884.589 408.109 -46.6216 -185.209 
838 2 0.177767 4.90704 6.35899 0 0 0 7.2193 0.886831 -3.42678 149.969 -234.062 56.3954 0 0 0 0.5 -336.484 -455.969 -214.082 45.4517 67.9373 87.5619 
606 2 1.2338 3.58657 7.65215 0 0 0 -14.6823 7.42449 4.71444 -114.25 -336.484 60.5865 0 0 0 0.5 -226.036 125.256 -202.969 114.523 152.119 -18.962 
116 1 3.46471 4.90949 6.51713 0 0 0 2.14587 -1.06229 2.29277 35.2256 -87.6053 -22.9236 0 0 0 0.5 -152.836 -305.749 -29.8255 86.2647 -30.6048 -35.4404 
618 2 1.78794 4.42225 7.58663 0 0 0 -7.49428 -5.13505 2.65991 -106.83 101.567 -331.877 0 0 0 0.5 -127.858 -346.458 -199.735 92.3904 34.0177 97.0094 
862 2 0.0248779 1.95464 7.52888 0 0 0 -75.426 8.1316 22.5901 34.591 -261.286 -572.997 0 0 0 0.5 -2980.15 -687.55 -264.086 278.058 844.968 -505.376 
822 2 4.5128 2.9887 6.48627 0 0 0 -40.8824 13.7243 -3.36309 -550.776 471.246 -153.422 0 0 0 0.5 -956.183 -697.287 -122.166 399.314 -111.186 287.039 
234 1 0.260715 3.49788 7.34421 0 0 0 -8.65983 13.2243 5.61909 268.985 -33.779 -246.457 0 0 0 0.5 -102.35 -419.176 -546.078 74.4971 44.383 198.195 
217 1 0.827172 3.29418 6.52882 0 0 0 -16.1514 -7.84329 2.29502 -155.553 659.865 700.8 0 0 0 0.5 -166.422 -342.062 -143.408 233.938 174.689 -254.562 
125 1 4.19922 1.55021 7.97345 0 0 0 -86.1336 -15.3536 8.79037 43.6992 -157.664 77.5431 0 0 0 0.5 -4035.01 -158.724 -130.259 -637.961 484.43 54.3829 
357 1 3.87152 2.07866 6.9816 0 0 0 -42.9497 -3.47972 8.9412 1021.85 581.151 -229.191 0 0 0 0.5 -1034.89 -544.508 -137.603 47.1149 295.432 -172.039 
27 1 3.77087 1.13147 6.78138 -3 0 0 -184.883 20.6699 29.2629 -465.106 -1966.51 718.143 0 0 0 0.5 -18995 -815.732 -1089.26 2675.22 2092.08 248.823 
583 2 3.35814 3.63357 7.10968 0 0 0 -6.72755 -7.62806 0.12965 156.251 -335.747 -22.8546 0 0 0 0.5 -371.022 -124.675 -207.444 -9.79975 91.5637 51.8838 
498 1 3.55493 0.319012 7.3875 8 1 0 -403.09 4.09004 23.7709 865.367 282.603 1438.1 0 0 0 0.5 -85289.8 -31.6737 -889.246 793.064 4659.96 -167.513 
56 1 4.04947 3.51557 7.80111 0 0 0 -11.5752 -8.61847 2.1252 504.447 -214.958 -577.24 0 0 0 0.5 -389.323 -93.1309 -364.21 -76.4298 17.7807 -22.7209 
172 1 4.43209 0.495249 6.25156 -5 0 0 -353.961 9.99246 -19.5591 857.817 948.417 -796.961 0 0 0 0.5 -66326.5 -165.066 -422.056 1874.32 -3756.52 376.037 
43 1 4.72012 3.82804 6.07707 0 0 0 0.954055 4.4159 6.07781 84.2234 39.89 -230.118 0 0 0 0.5 -262.65 -557.453 -265.232 19.2935 -47.7662 105.244 
40 1 4.71718 3.82227 7.05699 0 0 0 -0.604571 -10.6025 8.69036 -308.143 -66.3222 92.7488 0 0 0 0.5 -116.439 -81.3406 -99.8767 -36.745 16.2649 29.4942 
722 2 4.85223 1.55287 7.35791 -1 0 0 -75.6703 -2.43837 -0.577244 -1935.39 148.165 1863.65 0 0 0 0.5 -3388.96 -4.91699 -860.332 464.081 701.597 -276.919 
828 2 2.34253 3.06093 8.91581 0 0 0 -19.3496 0.560456 0.558878 92.6282 121.531 -142.407 0 0 0 0.5 -480.467 -25.8267 -17.6296 62.5298 43.9629 5.44677 
877 2 1.99565 0.56756 8.80274 9 1 0 -359.48 -6.75393 42.9251 -4.9931 520.711 -886 0 0 0 0.5 -67662.4 79.4952 -665.465 -1272.24 8081.19 -24.1039 