ITEM: TIMESTEP
192500
ITEM: NUMBER OF ATOMS
1000
ITEM: BOX BOUNDS xy xz yz pp pp pp
0.0000000000000000e+00 1.0000000000000000e+01 0.0000000000000000e+00
0.0000000000000000e+00 1.0000000000000000e+01 0.0000000000000000e+00
0.0000000000000000e+00 1.0000000000000000e+01 0.0000000000000000e+00
ITEM: ATOMS id type x y z ix iy iz vx vy vz fx fy fz omegax omegay omegaz radius c_2[1] c_2[2] c_2[3] c_2[4] c_2[5] c_2[6] 
120 1 3.15852 1.54146 0.0722925 0 1 0 -4.39217e-09 1.24015e-08 8.15047e-09 3.98575e-09 -1.05827e-08 -7.14678e-09 7.41673e-09 1.10641e-09 -4.4419e-09 0.5 -6.20192e-09 -3.26935e-08 -3.0166e-09 -3.59107e-09 -1.60198e-09 -7.84084e-09 
525 2 2.11627 1.23431 1.69988 0 0 0 -1.0899e-08 -2.88529e-08 -2.00584e-08 9.046e-09 2.45992e-08 1.7657e-08 -2.93814e-09 1.85993e-09 8.90915e-09 0.5 4.88915e-10 -1.9939e-09 1.16797e-09 2.50489e-09 1.20014e-09 -7.48407e-10 
371 1 4.95931 3.68326 1.58374 0 0 1 6.4137e-09 -1.15639e-08 1.78272e-08 -5.49411e-09 1.03034e-08 -1.56531e-08 1.42375e-09 -9.66923e-10 8.79661e-10 0.5 -3.9179e-09 -1.67815e-08 1.10286e-08 -1.98092e-09 -2.02605e-09 2.19906e-09 
18 1 1.98117 2.69195 0.532518 0 0 0 -5.45263e-09 -4.38369e-10 1.96192e-08 4.49903e-09 3.44129e-10 -1.68773e-08 1.22887e-08 -4.14641e-09 3.89976e-09 0.5 -1.00246e-08 -2.40793e-08 -1.42786e-08 1.94015e-08 8.79304e-09 -1.10019e-08 
868 2 2.87004 3.00634 0.0289121 0 0 1 3.37459e-09 -2.48508e-09 1.70559e-08 -2.65353e-09 2.13437e-09 -1.4862e-08 1.04575e-08 -1.93997e-09 4.36947e-09 0.5 -1.59247e-08 -2.51212e-08 -5.71247e-09 1.86732e-08 -5.41612e-10 1.18192e-09 
25 1 1.41548 0.708705 1.0832 0 0 0 -4.39829e-09 -9.8761e-09 -2.05078e-08 3.72757e-09 8.18486e-09 1.81773e-08 8.70521e-09 -2.27569e-09 5.25825e-09 0.5 -7.44239e-09 -5.2153e-08 -2.88405e-08 1.86464e-08 1.44537e-08 -2.29721e-08 
378 1 4.61919 2.40719 0.0725815 0 0 1 1.1074e-09 7.98087e-09 1.33236e-08 -8.50564e-10 -6.59992e-09 -1.17487e-08 1.17093e-08 2.97986e-09 -2.28252e-09 0.5 -6.6865e-09 -1.7627e-08 -1.0029e-08 -1.83243e-09 -2.20404e-09 -1.36535e-08 
8 1 3.44143 2.06796 1.74253 0 0 0 -5.05556e-10 -1.33368e-08 5.47712e-09 3.13207e-10 1.15962e-08 -4.91883e-09 9.92186e-09 -2.61705e-09 2.00693e-09 0.5 3.78316e-09 1.22487e-09 4.54829e-09 3.95167e-09 -3.23314e-10 3.40576e-09 
629 2 4.07713 2.6156 1.19812 0 0 1 3.38854e-09 -6.61145e-09 1.66785e-08 -3.01994e-09 5.88878e-09 -1.44682e-08 1.13035e-08 -2.94015e-09 2.87415e-10 0.5 -1.81469e-08 -4.72064e-09 -1.60882e-08 2.5864e-09 -1.18198e-08 -6.42059e-09 
5 1 2.34651 3.9005 1.05345 0 0 0 -2.12448e-09 -2.2373e-08 2.25818e-08 1.9666e-09 1.93556e-08 -1.94675e-08 7.61549e-10 1.57056e-09 4.62322e-09 0.5 -1.5614e-09 -2.57927e-09 -3.72211e-09 3.14282e-09 9.25661e-10 -8.21554e-10 
650 2 0.459129 3.43666 1.12967 0 0 0 -1.33843e-08 -2.2919e-08 3.66224e-09 1.14646e-08 1.93848e-08 -2.69484e-09 1.31745e-08 1.37156e-09 1.65198e-10 0.5 -1.82915e-08 -2.08102e-08 -2.22104e-08 1.48296e-08 1.5375e-08 -9.93383e-09 
14 1 3.29515 3.13364 1.54473 0 0 0 9.6217e-10 -1.15133e-08 1.85395e-08 -8.50307e-10 1.02249e-08 -1.60961e-08 3.31879e-09 2.31868e-09 1.49785e-09 0.5 -1.49237e-09 -4.9407e-09 -9.28028e-09 7.23622e-09 -1.09e-09 -4.56327e-09 
264 1 3.99643 3.86789 1.37953 0 0 0 6.14053e-09 -1.32193e-08 1.79915e-08 -5.26801e-09 1.17171e-08 -1.57466e-08 5.18586e-09 1.18157e-09 8.13215e-10 0.5 -4.81455e-09 -3.36727e-11 -9.37048e-09 6.244e-09 5.5556e-10 -1.68397e-09 
223 1 0.747634 2.47805 1.14565 0 0 1 -1.36332e-08 -2.26536e-08 3.5836e-09 1.15544e-08 1.91116e-08 -2.75265e-09 1.32637e-08 -5.23744e-09 1.95746e-09 0.5 -9.15773e-09 -2.28799e-08 -5.33272e-08 7.7144e-09 2.13734e-08 -1.33746e-08 
364 1 4.4227 4.23693 0.53984 0 0 1 2.09415e-09 5.67653e-09 2.41286e-08 -1.40741e-09 -4.73333e-09 -2.09799e-08 6.80165e-09 -7.59832e-10 3.14989e-09 0.5 3.49923e-10 2.22254e-09 3.36082e-10 8.74093e-10 3.72397e-09 -3.28781e-09 
107 1 1.66076 1.61825 0.747451 0 0 1 -1.02749e-08 -4.34528e-09 -9.49522e-09 8.64814e-09 3.46035e-09 8.65952e-09 1.34371e-08 -9.93516e-10 1.56736e-09 0.5 9.46813e-09 -1.20315e-08 -1.19309e-08 -5.5526e-10 8.83968e-11 -7.7345e-09 
529 2 2.67265 2.1996 1.06195 0 0 0 -1.11638e-11 -7.81525e-09 5.49363e-09 -2.63036e-10 6.65576e-09 -4.67161e-09 1.22165e-08 2.6008e-10 3.2692e-09 0.5 -3.78198e-09 -8.82907e-09 -1.03541e-08 6.45612e-09 -3.72205e-09 2.17011e-09 
515 2 4.38643 0.435908 1.64385 0 0 0 1.55291e-09 -1.40272e-08 -8.95229e-09 -1.26421e-09 1.22384e-08 7.40678e-09 7.41243e-09 -6.31423e-10 1.71913e-09 0.5 -1.87026e-09 -7.59901e-09 -1.58919e-08 -1.4001e-08 9.42604e-10 3.08514e-09 
244 1 4.11373 0.570462 0.682724 0 1 1 1.84871e-09 3.74685e-09 -6.03077e-09 -1.52237e-09 -2.9578e-09 4.91929e-09 1.07334e-08 3.29791e-09 2.26961e-10 0.5 -5.39854e-09 -4.78123e-09 -1.5201e-08 -1.11298e-09 3.36628e-09 2.15235e-09 
20 1 2.90179 0.570818 1.78382 0 0 0 8.02546e-10 -1.28675e-08 -1.11873e-08 -7.42592e-10 1.10887e-08 9.52808e-09 4.89012e-09 -3.14082e-09 2.65982e-09 0.5 -8.64596e-09 -2.00012e-08 -2.97756e-08 7.25535e-09 1.3266e-08 -1.77447e-08 
280 1 4.09077 1.582 1.14626 0 0 0 1.57543e-09 -4.13944e-09 4.91862e-10 -1.45338e-09 3.75303e-09 -7.24231e-10 1.13869e-08 -1.14662e-09 2.71405e-10 0.5 -4.68113e-09 -6.91526e-09 -2.0038e-08 1.73335e-09 1.16559e-08 4.24471e-09 
620 2 1.3946 4.37082 0.857654 0 0 1 2.48705e-10 -1.48745e-08 1.74003e-08 2.79596e-10 1.27943e-08 -1.46751e-08 9.18478e-09 5.88114e-09 -4.60303e-09 0.5 -4.82453e-09 -2.26246e-08 -3.3225e-08 3.65639e-10 -2.64463e-09 3.55866e-09 
1000 2 3.60332 2.39824 0.339819 0 1 1 9.51627e-09 3.31633e-09 1.21865e-08 -7.86326e-09 -2.80192e-09 -1.07765e-08 8.32531e-09 -5.52472e-10 -2.92615e-10 0.5 -1.38616e-08 -2.47501e-08 -1.49628e-08 -1.46861e-09 -1.19174e-08 -3.83312e-09 
103 1 3.28431 3.68319 0.698947 0 0 1 4.80934e-10 -6.59045e-09 2.22646e-08 -3.21601e-10 5.74676e-09 -1.94218e-08 6.72321e-09 4.30288e-10 3.50524e-09 0.5 -5.03207e-09 -4.45642e-09 -7.08715e-09 4.93161e-09 8.18022e-10 -1.05315e-09 
622 2 0.930663 4.80385 0.0848388 0 0 1 -6.45512e-11 -8.01037e-10 2.54688e-08 5.27608e-10 5.86308e-10 -2.163e-08 1.22383e-08 -1.08003e-09 -1.48408e-09 0.5 -2.6475e-10 2.38296e-09 -1.54238e-08 -1.45658e-09 -6.61341e-09 3.48687e-09 
506 2 0.74356 1.4513 1.18235 0 0 0 -1.47984e-08 -2.30705e-08 -1.77163e-08 1.2606e-08 1.94983e-08 1.5777e-08 1.04812e-08 -1.94208e-09 6.90301e-09 0.5 4.28546e-09 -3.07439e-08 -4.91783e-09 3.55394e-08 7.52755e-09 -1.89368e-08 
626 2 1.28815 3.41645 0.566227 0 0 1 -1.31558e-08 -8.67635e-09 4.50219e-09 1.12256e-08 7.49712e-09 -3.49808e-09 6.56651e-09 -4.10142e-09 1.64125e-09 0.5 -1.75475e-08 -2.55153e-08 -4.82181e-09 1.39277e-08 1.1687e-08 -7.52039e-09 
553 2 0.744043 0.0774004 1.56305 0 0 0 -2.6816e-09 -1.73366e-08 -2.65778e-08 2.1714e-09 1.47048e-08 2.35991e-08 9.90526e-10 -5.49726e-09 8.48768e-09 0.5 3.21637e-09 1.60734e-09 2.56916e-09 3.06475e-10 1.35167e-09 -4.11579e-09 
135 1 1.54769 3.20472 1.67709 0 0 0 5.02476e-09 -2.21434e-08 2.07074e-09 -4.49113e-09 1.89266e-08 -1.46085e-09 7.37898e-09 -1.03231e-08 -2.45221e-09 0.5 1.1875e-09 -4.65356e-08 -9.17615e-09 1.16005e-08 4.78222e-09 -2.84561e-10 
624 2 4.32461 4.92098 1.47156 0 0 1 9.27089e-09 -3.98629e-09 1.84884e-08 -7.54442e-09 3.92853e-09 -1.62573e-08 4.76483e-09 7.73182e-11 2.83446e-09 0.5 4.3144e-09 3.38583e-09 -1.19178e-08 4.21964e-09 -8.03225e-09 -9.54145e-09 
256 1 4.58719 1.36786 0.305 0 0 0 2.37644e-09 5.5497e-09 -1.50756e-09 -2.10968e-09 -4.47638e-09 1.00738e-09 1.1328e-08 2.21523e-09 -3.46444e-09 0.5 -2.85805e-09 -1.03709e-08 -1.40771e-08 -6.58622e-09 1.67385e-09 -1.48124e-08 
260 1 3.31854 0.0700552 1.02517 0 0 0 4.2851e-09 -5.6273e-09 -1.40643e-08 -3.47598e-09 4.99209e-09 1.20568e-08 4.86143e-09 5.52188e-09 -1.06251e-11 0.5 -6.26466e-09 -1.9208e-08 -2.15039e-08 -4.55998e-10 3.50621e-09 -1.29714e-08 
616 2 3.19106 4.4806 1.50664 0 0 1 4.8209e-09 -1.83449e-08 1.75994e-08 -4.28539e-09 1.59631e-08 -1.54676e-08 -1.03977e-09 1.94208e-09 3.02396e-09 0.5 -8.52525e-09 -3.39841e-09 -3.81091e-09 5.16463e-09 9.25761e-10 -2.22377e-09 
106 1 1.74522 2.23558 1.52961 0 0 1 1.45438e-10 -2.3517e-08 4.51666e-09 -4.02345e-10 2.00777e-08 -3.48089e-09 9.60225e-09 -3.61842e-09 -2.26351e-09 0.5 5.80279e-09 -2.46288e-08 -7.76532e-09 7.31177e-09 7.47476e-09 -9.2938e-09 
157 1 1.3897 4.17879 1.83903 0 0 0 6.59953e-09 -2.41326e-08 1.56268e-08 -5.61806e-09 2.06883e-08 -1.31575e-08 9.17057e-09 1.58484e-09 1.14886e-09 0.5 -1.0277e-08 -3.50362e-08 -3.70053e-08 7.92387e-09 1.21229e-08 -6.97687e-09 
516 2 2.34691 0.89043 0.68796 0 0 0 -2.30008e-09 2.92839e-09 -6.05899e-09 1.82946e-09 -2.68239e-09 5.44736e-09 1.11614e-09 -3.5127e-09 2.04967e-10 0.5 2.14929e-09 -9.83911e-09 -2.86123e-09 2.28047e-09 6.49553e-09 -9.18471e-09 
183 1 0.415258 4.58221 1.00381 0 0 0 1.70799e-09 -2.10654e-08 3.66952e-08 -9.20519e-10 1.81018e-08 -3.10148e-08 1.80563e-08 9.223e-09 1.05451e-09 0.5 3.75804e-10 -1.17469e-09 2.0178e-09 1.58687e-09 -2.61925e-09 1.94148e-09 
625 2 0.399951 3.91216 0.210014 0 0 1 -4.94636e-09 8.84053e-10 1.77326e-08 4.65046e-09 -8.36148e-10 -1.47012e-08 1.73976e-08 -1.47114e-09 -7.43579e-09 0.5 -7.47041e-10 1.3164e-10 -3.37424e-09 -8.07683e-10 -1.37284e-09 3.19256e-09 
91 1 2.22066 4.71676 1.69645 0 0 1 5.86854e-09 -2.18674e-08 2.07339e-08 -5.14286e-09 1.89085e-08 -1.78272e-08 5.58624e-10 4.21918e-10 6.54853e-10 0.5 -9.55291e-09 -6.17936e-09 -2.66555e-09 -2.18948e-09 1.89171e-09 -2.14939e-09 
257 1 4.94043 2.69123 1.70827 0 0 0 3.69657e-09 -1.19826e-08 1.41023e-08 -3.23646e-09 1.06639e-08 -1.23744e-08 4.71106e-09 1.23201e-10 -1.66326e-09 0.5 -2.06756e-08 -1.43938e-08 -3.59319e-08 1.55011e-09 -1.19157e-08 -6.87648e-09 
4 1 3.72174 1.12777 1.95711 0 0 0 1.2051e-09 -1.5365e-08 -5.95926e-09 -1.05766e-09 1.33327e-08 4.84238e-09 7.44158e-09 -6.32349e-10 6.19395e-10 0.5 -3.03335e-09 -5.3072e-09 -2.59699e-08 -4.83016e-09 4.50109e-09 1.27836e-08 
609 2 1.99624 4.76004 0.136921 0 0 1 1.15144e-09 -8.15889e-09 2.50831e-08 -6.92032e-10 7.00663e-09 -2.16097e-08 3.80832e-09 -2.73659e-09 3.96874e-09 0.5 -4.13294e-08 -1.26974e-07 -1.78197e-08 3.56518e-08 8.99153e-09 -2.70438e-08 
117 1 3.12746 1.31374 1.15363 0 1 0 2.47087e-09 -7.56175e-09 -4.33655e-09 -2.18521e-09 6.51518e-09 3.60949e-09 9.69854e-09 -4.22918e-10 5.83638e-10 0.5 1.52658e-09 -6.92521e-09 -1.10399e-09 3.84335e-09 5.62575e-10 5.22851e-09 
511 2 1.08079 2.25054 0.230642 0 0 0 -5.07702e-09 7.70811e-09 -8.64965e-10 4.28611e-09 -6.92612e-09 1.09631e-09 1.68887e-08 -3.66448e-09 -3.38503e-09 0.5 -6.93095e-09 -2.08979e-08 -4.81342e-08 4.40462e-09 2.03203e-08 -1.35545e-08 
911 2 0.492018 0.563612 0.697612 1 0 0 -3.47399e-09 -1.26953e-08 -2.50842e-08 2.93442e-09 1.0468e-08 2.22008e-08 1.98215e-09 -3.41599e-09 8.1858e-10 0.5 5.39386e-09 -2.31137e-08 -3.73095e-11 -2.32453e-09 1.90258e-09 -9.20174e-09 
668 2 0.00216515 3.81975 1.93315 0 0 0 -2.89528e-09 -4.10755e-08 1.77023e-08 2.23376e-09 3.49432e-08 -1.48592e-08 4.32476e-09 3.40624e-09 -3.61275e-09 0.5 -3.24338e-08 -7.90063e-08 -3.32336e-08 2.38917e-08 -9.0055e-09 -8.99783e-10 
90 1 2.93989 4.58015 0.420403 0 0 1 8.0962e-10 -5.00436e-09 2.70374e-08 -2.59429e-10 4.45997e-09 -2.36659e-08 4.01851e-09 -1.08024e-09 4.66935e-09 0.5 -9.27253e-09 9.34389e-09 -1.9291e-09 1.73834e-08 9.34483e-09 3.48843e-09 
734 2 4.13742 3.24508 0.37494 0 1 1 5.62524e-09 5.20252e-09 2.36011e-08 -4.74038e-09 -4.27971e-09 -2.06051e-08 1.06758e-08 1.35549e-09 1.51877e-09 0.5 -8.58558e-09 -5.95078e-09 -5.97824e-10 5.4515e-09 3.29504e-09 -4.63173e-09 
672 2 0.0675425 1.98557 1.68985 0 0 0 -1.75511e-08 -3.2953e-08 -1.09557e-08 1.49991e-08 2.80536e-08 9.94184e-09 1.10877e-08 -2.11345e-09 3.89343e-09 0.5 -3.79826e-08 -7.79425e-08 -2.92273e-08 3.03706e-08 2.09534e-08 4.28013e-11 
759 2 4.95866 2.03867 0.950748 0 0 0 3.28052e-09 -4.36688e-09 7.52767e-09 -2.98314e-09 4.06735e-09 -6.67974e-09 9.85266e-09 -1.55014e-09 -2.66182e-09 0.5 -2.14529e-09 -2.60502e-08 -1.22406e-08 -4.1721e-09 -2.11257e-09 -3.07302e-09 
21 1 1.84566 0.35675 2.43115 0 0 0 -5.06714e-09 -2.35241e-08 -1.93299e-08 4.4202e-09 2.02298e-08 1.68687e-08 4.6395e-09 -4.48119e-09 7.08783e-09 0.5 2.58823e-10 -7.47722e-10 -3.3825e-10 1.20213e-09 7.76875e-10 -2.27875e-09 
682 2 2.73058 4.0836 2.7725 0 0 0 4.39361e-09 -1.52053e-08 1.61455e-08 -3.8622e-09 1.31941e-08 -1.40135e-08 -2.32913e-10 7.42493e-10 1.9868e-09 0.5 -2.30542e-08 -1.44527e-08 -2.98374e-09 1.45246e-08 1.01233e-08 1.74787e-08 
907 2 0.982097 4.62503 2.63573 1 0 0 2.98547e-09 -3.39376e-08 1.92831e-08 -2.75823e-09 2.88273e-08 -1.62794e-08 1.5488e-09 -3.36003e-09 1.89579e-09 0.5 -2.51576e-08 -3.04062e-08 -3.4538e-08 1.19448e-08 1.48582e-08 -1.07991e-08 
144 1 1.68507 3.60062 2.81087 0 0 0 5.31874e-09 -2.92455e-08 3.47699e-09 -4.79351e-09 2.49892e-08 -2.89805e-09 -7.35146e-10 2.10378e-09 5.09699e-10 0.5 -1.61019e-08 -4.34225e-09 -6.61196e-09 9.59831e-09 -3.64778e-09 7.92966e-11 
675 2 2.83107 4.7385 3.54541 0 0 0 7.28423e-11 -1.01246e-08 1.63066e-08 -5.96515e-10 9.03075e-09 -1.42144e-08 -3.76212e-09 2.65656e-09 -4.88391e-10 0.5 1.14184e-09 5.25581e-09 1.0487e-08 5.05478e-09 -2.12067e-09 9.19106e-09 
502 2 4.38953 1.31124 3.26921 0 0 0 -1.8242e-09 -1.08394e-08 -4.77513e-09 1.16635e-09 9.72349e-09 3.82485e-09 1.78739e-09 3.04819e-10 -1.00524e-09 0.5 -1.77204e-08 -8.88324e-09 -1.14007e-08 -9.06533e-09 8.52189e-09 1.86194e-08 
27 1 2.60908 0.300739 3.21066 0 0 0 -9.31331e-10 -1.8829e-08 -1.32698e-08 4.63694e-10 1.61324e-08 1.13361e-08 -3.79684e-11 -2.79135e-09 3.45924e-09 0.5 -1.61842e-08 -2.04913e-08 -3.84762e-08 8.15629e-09 1.29389e-08 3.29481e-09 
965 2 1.35576 3.65812 3.79896 1 0 0 7.68026e-09 -3.50527e-08 8.52465e-10 -6.76055e-09 2.97534e-08 -5.29014e-10 -2.08915e-09 5.7654e-09 -4.70233e-09 0.5 -6.69426e-09 -2.03196e-08 -2.23118e-08 1.17984e-08 -7.61909e-09 1.3837e-08 
61 1 1.66165 0.448609 3.51352 0 0 0 -5.84277e-09 -2.99708e-08 -2.53937e-08 4.7692e-09 2.53777e-08 2.22333e-08 8.77579e-10 -1.06391e-09 5.60786e-09 0.5 -1.13917e-08 -5.00347e-10 -2.2945e-09 2.79564e-09 7.48869e-09 -8.48989e-10 
680 2 1.1901 2.78151 3.34693 0 0 0 -6.92391e-09 -3.17815e-08 -4.32599e-11 5.69933e-09 2.69528e-08 2.66574e-10 1.32964e-09 3.08069e-09 -7.7806e-10 0.5 4.78714e-10 -6.79531e-09 -1.0292e-08 1.58706e-09 4.3139e-09 3.04409e-09 
251 1 4.71421 3.03382 3.89556 0 0 0 8.61002e-09 -1.39136e-08 1.38889e-08 -7.78264e-09 1.23396e-08 -1.22409e-08 5.86986e-09 4.34167e-09 -6.41552e-09 0.5 -2.0364e-08 -4.02155e-09 7.57307e-10 -1.41283e-08 6.44173e-09 1.2054e-08 
517 2 4.0089 2.89361 2.21821 0 0 0 5.05831e-09 -1.28456e-08 1.3218e-08 -4.33163e-09 1.15402e-08 -1.15435e-08 2.4172e-09 4.18182e-10 -9.58467e-10 0.5 -2.20684e-10 -1.88394e-10 -6.85639e-09 -1.87488e-10 -1.45367e-09 3.45659e-09 
6 1 3.42179 1.77987 2.73262 0 0 0 -2.63443e-09 -1.22912e-08 6.70427e-09 1.93966e-09 1.06926e-08 -5.98435e-09 7.00532e-09 -9.75921e-10 4.5729e-09 0.5 -2.15359e-08 4.65898e-09 3.18785e-09 8.9363e-09 1.01093e-08 6.53438e-09 
519 2 4.43345 3.61408 3.03093 0 0 0 3.09012e-09 -8.45363e-09 1.99719e-08 -2.77817e-09 7.7745e-09 -1.75119e-08 2.39396e-09 1.61949e-09 -7.884e-10 0.5 1.21778e-09 1.12559e-08 7.75643e-09 -7.8592e-09 -3.07149e-09 5.93073e-09 
509 2 1.93621 1.51608 3.62332 0 0 0 6.0979e-09 -2.7603e-08 -2.14505e-08 -5.57873e-09 2.32968e-08 1.88666e-08 -1.78363e-09 9.27953e-09 -1.11782e-10 0.5 2.68794e-09 -3.06205e-09 -2.40562e-08 -3.02073e-09 5.19481e-09 6.8146e-09 
142 1 1.03537 1.94217 2.17003 0 0 0 -1.04264e-08 -2.63949e-08 -8.50924e-09 8.71373e-09 2.24201e-08 7.69555e-09 9.65127e-09 1.34475e-10 1.83835e-09 0.5 -5.57626e-10 -4.88758e-09 -6.03452e-09 7.64626e-09 -3.16399e-09 7.25398e-09 
941 2 0.192203 2.2584 2.77344 1 0 0 -1.45022e-08 -3.83692e-08 -7.03928e-09 1.2286e-08 3.27568e-08 6.46067e-09 5.83143e-09 7.56922e-10 1.55272e-09 0.5 -4.83623e-09 -1.56689e-08 -2.18302e-08 7.19591e-10 2.87185e-09 1.71786e-09 
919 2 0.650389 4.31552 3.53385 1 0 0 -2.16084e-12 -3.74699e-08 1.52741e-08 -1.78691e-10 3.18644e-08 -1.28103e-08 5.05804e-09 1.98224e-09 -5.97682e-09 0.5 -1.54107e-08 -2.70589e-08 -1.57235e-08 1.51935e-08 -2.32761e-10 9.7039e-09 
95 1 3.53903 3.77814 2.2694 0 0 1 6.31861e-09 -1.2397e-08 1.75259e-08 -5.46771e-09 1.11389e-08 -1.53372e-08 3.68864e-10 2.41325e-10 8.95879e-10 0.5 -1.08043e-08 -3.57937e-09 -1.96931e-08 2.19817e-09 6.41252e-09 -2.55768e-09 
458 1 1.5569 4.7536 3.86468 1 0 0 2.09158e-09 -2.57161e-08 2.23069e-08 -2.12499e-09 2.17789e-08 -1.91543e-08 -4.81687e-09 1.07168e-09 1.59989e-09 0.5 -1.03069e-08 -6.37196e-09 -6.10179e-09 8.50912e-09 -1.74083e-09 -3.04865e-10 
41 1 1.14045 0.960462 2.01108 0 0 0 -7.29712e-09 -2.45566e-08 -1.73764e-08 6.05693e-09 2.08261e-08 1.54265e-08 8.47568e-09 -1.24284e-09 4.32757e-09 0.5 -8.1416e-09 -7.01014e-09 -1.96233e-08 4.74392e-09 1.2458e-08 -6.80058e-09 
814 2 0.27112 1.22753 3.40348 1 0 0 -1.94031e-09 -3.14586e-08 -1.47682e-08 1.35428e-09 2.66985e-08 1.32443e-08 4.61187e-09 -2.86657e-09 8.6849e-09 0.5 -1.67185e-08 -1.73056e-08 -2.0259e-08 6.74931e-09 1.46534e-08 2.14456e-08 
130 1 1.70518 2.6475 2.50033 0 0 0 -7.88707e-09 -2.78931e-08 -1.24836e-09 6.63077e-09 2.37756e-08 1.3136e-09 7.7332e-09 -3.09906e-09 -3.46292e-09 0.5 -5.29363e-09 -2.15959e-08 -1.90759e-08 1.07497e-08 7.28756e-09 1.38377e-08 
12 1 2.70258 1.09575 2.61132 0 0 0 3.34735e-09 -1.58564e-08 -8.66987e-09 -3.05187e-09 1.3569e-08 7.3888e-09 4.63447e-09 -5.80897e-09 4.86144e-09 0.5 -2.54378e-08 -3.10584e-08 -2.16565e-08 1.67174e-08 1.0381e-08 8.14744e-10 
512 2 3.18635 2.03167 3.78747 0 0 0 2.99962e-09 -3.86029e-09 8.3379e-09 -3.06876e-09 3.24614e-09 -7.05705e-09 5.57547e-09 -1.40897e-09 3.79372e-09 0.5 -5.9154e-09 -1.16429e-08 -1.01563e-08 2.18157e-09 -2.15565e-09 1.22832e-08 
151 1 2.47925 3.30049 3.34132 0 0 0 3.70156e-09 -1.8022e-08 1.19732e-08 -3.20999e-09 1.5679e-08 -1.03219e-08 -1.85462e-09 -1.92737e-09 1.26477e-09 0.5 -7.37516e-09 -2.86746e-08 -2.64956e-08 6.34838e-09 6.44648e-09 7.79446e-09 
667 2 0.284319 1.3208 2.4071 0 0 0 -7.34535e-09 -3.25665e-08 -1.46175e-08 6.12194e-09 2.77108e-08 1.31206e-08 5.62546e-09 1.69071e-09 4.99023e-09 0.5 -9.68699e-09 -4.46068e-08 -3.4357e-08 2.45984e-09 -1.78511e-10 4.67162e-09 
38 1 3.79042 0.738149 3.87284 0 0 0 1.42324e-09 -2.50713e-09 -6.64885e-09 -1.73031e-09 2.36227e-09 5.48556e-09 -5.9477e-09 -1.59735e-09 3.54762e-10 0.5 -1.6904e-08 -5.48945e-09 -4.23102e-08 -1.90422e-08 9.96506e-09 3.07049e-08 
936 2 0.319906 3.36948 3.50683 1 0 0 -1.33816e-08 -3.23454e-08 5.60676e-09 1.12806e-08 2.74716e-08 -4.40443e-09 5.55984e-09 -4.763e-09 -3.30928e-09 0.5 1.40437e-09 -3.28517e-08 -1.34168e-08 4.86596e-10 1.56796e-08 2.12988e-08 
531 2 4.80013 0.808197 2.48028 0 0 0 -6.1187e-09 -1.8429e-08 -4.28685e-09 5.012e-09 1.62833e-08 3.43002e-09 5.65354e-10 -5.97735e-10 -2.96688e-09 0.5 -5.94998e-09 4.73507e-10 -1.23365e-08 -7.34251e-09 -1.15515e-08 -6.0889e-09 
527 2 4.03024 4.31517 3.61908 0 0 0 5.73021e-09 -9.04183e-09 2.27365e-08 -5.24874e-09 8.13616e-09 -1.98454e-08 -2.9174e-09 -3.69066e-11 1.02819e-09 0.5 -2.90028e-09 1.70874e-09 8.34994e-09 -6.69021e-09 -2.64099e-09 1.1748e-08 
383 1 4.36293 4.34454 2.28892 0 0 1 2.23488e-09 -6.44365e-09 1.71844e-08 -1.92167e-09 5.95269e-09 -1.51736e-08 9.37757e-10 -1.58017e-09 2.53318e-10 0.5 -1.07703e-08 -2.11524e-09 5.66663e-09 9.09017e-09 -2.50097e-09 -4.68414e-09 
992 2 0.695682 0.439322 3.85269 1 1 0 -8.00572e-10 -3.33164e-08 -2.05307e-08 3.78357e-10 2.82135e-08 1.80687e-08 1.09825e-09 5.13657e-09 3.28912e-09 0.5 -1.36968e-08 -3.36744e-08 -7.49138e-09 9.90791e-09 -4.73261e-09 1.7418e-08 
521 2 4.93615 4.52796 3.25037 0 0 0 3.55507e-09 -6.76874e-09 1.87575e-08 -3.37955e-09 6.11438e-09 -1.65028e-08 -2.13782e-09 1.40253e-09 1.13112e-09 0.5 2.04465e-09 -8.46107e-09 -9.34846e-09 -5.17932e-10 -1.40276e-09 1.15328e-08 
136 1 1.88498 1.67143 2.62265 0 0 0 -6.55365e-09 -2.97237e-08 -1.77617e-08 5.36403e-09 2.53377e-08 1.5711e-08 3.23059e-09 4.72525e-09 3.50644e-09 0.5 -2.9452e-08 -3.07319e-08 -2.0192e-08 2.10968e-08 -2.52797e-09 9.03666e-09 
540 2 4.51129 0.178592 3.415 0 0 0 -1.57069e-09 -1.1339e-08 -7.81695e-09 9.61912e-10 1.02134e-08 6.33872e-09 -5.19009e-09 2.64633e-09 -3.57492e-09 0.5 9.09637e-09 5.87151e-09 1.33888e-09 -5.64356e-09 -3.85024e-09 5.49095e-09 
510 2 3.85504 2.56842 3.17077 0 0 0 -3.43918e-09 -1.34045e-08 9.98665e-09 2.52538e-09 1.178e-08 -8.93472e-09 1.17893e-09 -5.84591e-10 1.9088e-10 0.5 8.52531e-09 1.22395e-08 -7.52625e-09 2.05808e-09 1.36481e-09 1.03306e-08 
19 1 4.3655 1.84749 2.40882 0 0 0 -4.53084e-09 -1.84582e-09 3.33965e-09 3.49008e-09 1.83887e-09 -3.24725e-09 2.96922e-09 8.05866e-10 4.88802e-10 0.5 -3.10113e-08 -1.25213e-09 -1.61341e-08 1.58546e-09 1.38404e-08 2.95558e-09 
543 2 1.07326 1.78713 3.19513 0 0 0 -9.56425e-10 -3.09319e-08 -9.57685e-09 5.05101e-10 2.61988e-08 8.64765e-09 6.7055e-09 6.05819e-09 2.27443e-09 0.5 -2.8591e-09 -4.06763e-09 -1.70559e-09 -5.94398e-09 4.98896e-09 3.01474e-09 
773 2 4.78774 2.22773 3.30763 0 0 0 -2.19677e-09 -1.12343e-08 8.54038e-09 1.49456e-09 1.00509e-08 -7.66396e-09 2.71938e-09 2.96657e-09 -2.22304e-09 0.5 1.14001e-09 -2.44425e-08 -4.7193e-08 -4.50682e-09 9.89467e-09 4.76699e-08 
555 2 2.23907 2.5056 3.89852 0 0 0 2.6459e-09 -1.58855e-08 1.45704e-08 -2.68979e-09 1.39478e-08 -1.25504e-08 -1.9066e-09 -5.0704e-10 1.75505e-09 0.5 6.04888e-09 7.79804e-09 8.06818e-09 3.29009e-09 7.44808e-10 9.62428e-09 
429 1 0.306925 2.40106 3.75655 1 0 0 -1.05741e-08 -3.53693e-08 -7.92847e-09 8.85053e-09 3.00722e-08 7.24194e-09 3.63762e-09 1.46077e-09 6.5689e-09 0.5 -6.50556e-09 -5.33343e-08 -3.071e-08 1.241e-08 -8.0111e-09 2.96312e-08 
316 1 0.889712 0.512877 2.86992 1 0 0 -9.04184e-09 -3.25875e-08 -2.21863e-08 7.51185e-09 2.76531e-08 1.95102e-08 3.73308e-09 5.54158e-10 5.09627e-09 0.5 2.78015e-09 -6.43561e-09 -4.79642e-09 2.24105e-09 1.6846e-09 6.3777e-09 
503 2 3.61689 0.768796 2.88623 0 0 0 1.80897e-09 -1.55403e-08 -6.43796e-09 -1.66709e-09 1.34874e-08 5.24118e-09 -8.32874e-10 -1.13455e-09 2.65706e-09 0.5 -5.67665e-09 8.25678e-10 -3.2406e-08 1.51671e-09 -2.69942e-09 9.10416e-09 
896 2 0.702247 3.66501 2.63024 1 0 0 3.54248e-09 -3.40642e-08 1.28068e-08 -3.32329e-09 2.89428e-08 -1.0623e-08 4.04473e-09 1.76159e-09 -1.85798e-09 0.5 -2.19556e-08 -1.16629e-08 -3.45703e-08 5.92606e-09 -1.181e-08 1.00261e-08 
690 2 1.93672 4.67095 2.92999 0 0 0 1.39401e-09 -2.09328e-08 2.24294e-08 -1.35795e-09 1.79523e-08 -1.91994e-08 -5.29987e-10 1.19873e-09 5.46901e-09 0.5 -2.40955e-08 -1.21993e-08 -4.94242e-09 1.59792e-08 -1.91698e-10 -2.72799e-09 
641 2 3.45948 3.5005 3.22725 0 0 0 2.80989e-09 -9.39222e-09 1.79819e-08 -2.52459e-09 8.43198e-09 -1.57741e-08 -1.8705e-09 -3.72437e-10 2.20156e-09 0.5 -2.2861e-09 3.35621e-09 -1.53606e-08 3.95267e-09 -7.79592e-09 1.92168e-08 
528 2 3.34275 4.80215 2.44243 0 0 0 5.66961e-09 -1.60768e-08 1.66105e-08 -5.11197e-09 1.39874e-08 -1.45924e-08 -2.15453e-10 5.67777e-10 9.5695e-10 0.5 -2.04126e-09 -3.80802e-09 -7.49184e-09 -3.62784e-09 -1.23103e-09 -1.73347e-09 
225 1 2.66658 2.37982 2.99794 0 0 1 -6.69408e-09 -1.90674e-08 9.86084e-09 5.49836e-09 1.64918e-08 -8.41432e-09 -1.54379e-09 3.88146e-09 2.0186e-09 0.5 -7.96232e-09 -2.0348e-08 -1.84198e-09 1.234e-08 -6.17837e-09 -2.71896e-10 
119 1 0.614476 2.84343 2.06694 0 0 0 -1.45716e-08 -2.68642e-08 5.12527e-09 1.23097e-08 2.28303e-08 -4.10807e-09 9.23703e-09 9.79772e-10 -3.134e-10 0.5 4.54497e-09 -1.35803e-08 -2.46599e-08 4.43797e-09 9.52144e-09 4.83192e-10 
94 1 2.46189 3.50067 2.00487 0 0 1 -9.55599e-10 -2.02489e-08 2.16486e-08 7.32624e-10 1.74134e-08 -1.86506e-08 3.61487e-09 -9.83877e-10 1.09663e-09 0.5 5.00704e-09 6.77756e-09 2.51798e-09 6.16527e-09 5.20309e-09 8.19982e-09 
522 2 2.58373 2.50801 2.00903 0 0 0 -3.04347e-09 -2.05951e-08 9.37327e-09 2.49504e-09 1.7705e-08 -8.01599e-09 7.15459e-09 -2.77853e-09 2.70625e-09 0.5 8.18926e-10 1.5615e-09 -7.76685e-09 6.7127e-09 7.01853e-09 2.23447e-09 
200 1 2.46549 0.208501 4.19599 0 1 0 7.36498e-09 -1.11793e-08 -1.13375e-08 -6.96862e-09 9.49767e-09 9.66546e-09 -7.01496e-09 -4.87715e-09 1.1198e-08 0.5 -1.6703e-08 -9.07611e-09 -3.00119e-08 4.78739e-09 1.09244e-08 7.93566e-09 
114 1 4.70709 1.00384 4.17137 0 0 0 3.91866e-10 -3.12066e-09 -2.92518e-09 -8.41514e-10 3.07613e-09 2.26357e-09 -2.47485e-09 -1.56426e-09 -2.73412e-09 0.5 -1.04633e-08 2.51474e-10 -2.27105e-09 -1.33765e-09 -6.71799e-09 -7.04353e-10 
820 2 1.30996 2.29325 4.21136 1 0 0 4.50994e-10 -2.39994e-08 3.33232e-09 -6.05684e-10 2.03423e-08 -2.60521e-09 -4.23476e-09 -2.97514e-09 6.73847e-09 0.5 2.18185e-09 6.63149e-09 -7.11859e-09 2.09204e-08 5.70074e-09 1.18418e-08 
47 1 4.65574 1.582 5.43553 0 0 0 7.45571e-09 1.41317e-09 2.46272e-09 -7.07685e-09 -7.47529e-10 -2.36923e-09 8.85121e-10 4.25321e-09 1.87165e-09 0.5 -1.14441e-08 -1.8915e-08 -7.73768e-09 -4.70054e-09 -9.27855e-09 1.55527e-08 
824 2 1.64908 3.83184 5.79238 1 0 0 2.38856e-09 7.03883e-09 2.2564e-08 -2.09706e-09 -6.02329e-09 -1.92233e-08 -5.9804e-09 5.81273e-10 -2.05356e-09 0.5 -3.69287e-09 -3.02452e-09 -1.31871e-08 -8.71246e-10 -1.10776e-11 4.69232e-09 
172 1 3.44268 0.338821 4.72114 0 1 0 -3.50125e-10 8.9117e-09 -1.9843e-09 -4.31824e-10 -7.64494e-09 1.29528e-09 -7.90521e-09 -2.09745e-09 3.56529e-09 0.5 -1.53308e-08 -1.60592e-08 -5.52766e-08 -1.35077e-08 1.35569e-08 2.31207e-08 
718 2 0.202285 2.03673 5.5128 0 1 0 -2.20504e-09 -9.53648e-09 5.73517e-09 1.5116e-09 7.80847e-09 -4.53828e-09 -5.9575e-09 -2.69931e-09 -6.99322e-10 0.5 -2.58067e-08 -5.97516e-09 -1.69487e-08 1.24542e-08 -1.3056e-08 3.55038e-08 
505 2 0.484433 3.5018 5.83385 0 0 -1 -2.70885e-09 9.81932e-09 1.72311e-08 2.31075e-09 -8.98186e-09 -1.45432e-08 1.2959e-09 -3.09099e-09 8.01429e-09 0.5 -1.6651e-10 -4.56911e-08 -2.34948e-08 2.62378e-09 -6.07024e-10 3.7819e-08 
524 2 3.99535 2.7352 5.70679 0 0 0 1.96231e-08 2.28513e-08 2.65007e-08 -1.7728e-08 -1.91568e-08 -2.34012e-08 -6.3082e-09 1.77157e-08 8.95246e-09 0.5 4.41663e-10 4.24982e-09 4.94731e-09 -3.5586e-09 -4.02343e-09 4.19607e-09 
839 2 0.579387 1.61472 4.31101 1 0 0 5.38221e-09 -3.21275e-08 -1.11454e-08 -4.85567e-09 2.73435e-08 1.0104e-08 -2.13666e-09 1.11603e-10 6.95906e-09 0.5 -2.49056e-09 -3.48537e-08 -2.08072e-08 2.37332e-08 -1.84978e-09 3.69521e-08 
937 2 2.44361 3.38654 4.3372 1 0 0 4.66795e-09 -1.3254e-08 1.13197e-08 -4.21218e-09 1.16501e-08 -9.76841e-09 -4.63378e-09 -2.96065e-09 5.46097e-09 0.5 8.90877e-09 1.03929e-08 -2.38675e-08 1.48007e-08 1.94035e-09 1.14367e-08 
811 2 2.60623 3.94632 5.52498 1 0 0 1.24179e-10 6.48063e-09 1.43254e-08 -2.13751e-10 -5.3258e-09 -1.22739e-08 -5.65887e-09 -3.31244e-09 3.26124e-11 0.5 -2.53392e-09 -1.06076e-08 -3.55983e-09 -4.46015e-09 -4.05495e-09 1.10424e-08 
827 2 1.52088 3.18133 4.66349 1 0 0 5.46726e-09 -2.42e-08 6.86502e-09 -4.69905e-09 2.05152e-08 -5.67827e-09 -7.95869e-09 -4.04949e-09 -4.88135e-11 0.5 5.05029e-09 -1.84175e-09 -1.97314e-08 1.5355e-09 2.07161e-09 1.57148e-08 
149 1 4.05563 3.93275 4.61881 0 0 0 1.47402e-09 3.39912e-09 1.94568e-08 -1.6668e-09 -2.54634e-09 -1.70334e-08 -2.80038e-09 1.13275e-09 4.76085e-09 0.5 -8.97492e-09 -8.74871e-09 6.81183e-09 2.77746e-08 -1.71134e-08 8.08585e-09 
925 2 0.623246 3.59905 4.52293 1 0 0 8.57616e-09 -1.87324e-08 2.67963e-09 -7.5042e-09 1.55566e-08 -2.03126e-09 -7.27323e-09 2.98174e-09 -1.34951e-09 0.5 6.26083e-09 -1.21057e-08 -3.42723e-09 -2.8243e-09 -2.29463e-09 6.27863e-09 
168 1 3.33522 4.60361 5.33159 0 0 0 2.20127e-09 5.64529e-09 2.0043e-08 -2.13054e-09 -4.56152e-09 -1.75492e-08 -4.74427e-09 -2.9944e-09 4.40794e-09 0.5 -1.52917e-08 -1.21654e-08 -1.28527e-08 4.28339e-09 -7.85613e-09 1.02699e-08 
928 2 1.57471 4.4088 4.9787 1 0 0 4.02488e-09 4.54742e-09 2.08659e-08 -3.49139e-09 -3.75274e-09 -1.76759e-08 -3.65649e-09 9.77835e-10 -3.57105e-09 0.5 -6.64675e-09 -8.314e-09 -8.43897e-09 -4.28606e-09 7.64313e-10 7.29717e-09 
148 1 3.93983 3.74234 5.7457 0 0 0 -1.34595e-09 2.20867e-08 2.77097e-08 8.09812e-10 -1.84943e-08 -2.41433e-08 -6.61901e-09 -2.43525e-09 1.21015e-08 0.5 6.664e-09 1.36278e-08 1.62501e-08 9.79814e-09 1.12588e-08 9.78111e-09 
914 2 4.69244 4.38506 5.24423 0 0 0 -6.75317e-09 1.26111e-08 2.1355e-08 5.47645e-09 -1.02008e-08 -1.893e-08 -9.96951e-09 -2.7501e-09 -1.06736e-09 0.5 -4.15166e-10 3.53363e-09 6.20916e-09 1.03822e-09 2.16458e-09 3.93272e-09 
23 1 2.87773 1.11847 4.05716 0 0 0 -1.10347e-09 -7.68189e-09 -9.99665e-09 3.83108e-10 6.53337e-09 8.63302e-09 2.67506e-09 -3.67829e-10 2.7604e-09 0.5 -1.31484e-08 -1.25348e-08 -1.0392e-08 -4.74827e-09 6.6669e-09 9.63491e-09 
594 2 2.05586 1.97089 4.80241 0 0 0 5.44484e-09 3.30049e-09 1.04489e-08 -5.00118e-09 -3.0567e-09 -8.57479e-09 2.76065e-09 -3.34009e-09 9.36528e-09 0.5 4.1957e-11 -1.62456e-08 -3.38659e-09 1.22815e-08 -5.89075e-09 9.73339e-09 
539 2 3.78455 1.04074 5.46912 0 0 0 3.05418e-09 1.79177e-08 6.38918e-09 -3.22672e-09 -1.52177e-08 -5.88517e-09 -3.2554e-09 5.89474e-09 -1.34064e-09 0.5 -5.60256e-09 -5.33162e-08 -2.30022e-08 -1.71379e-08 -1.43692e-08 4.46272e-08 
730 2 0.461765 1.11568 5.16957 0 1 0 8.44842e-11 -1.04267e-08 7.52619e-10 -5.46342e-10 8.5719e-09 -2.71392e-10 -2.6988e-09 -1.51251e-09 9.02128e-09 0.5 1.46153e-08 -2.77842e-09 -1.23194e-08 2.57975e-09 -3.32056e-09 2.55527e-08 
689 2 3.51933 0.103669 5.69619 0 1 0 -1.11204e-09 1.68685e-08 -2.74029e-09 4.22781e-10 -1.43392e-08 2.00742e-09 -1.9322e-09 -2.27885e-09 -4.93521e-10 0.5 -2.20213e-08 -6.53647e-08 -5.67206e-08 -7.39275e-09 1.71458e-09 4.89902e-08 
450 1 0.619288 4.79871 4.46892 1 0 0 1.99069e-08 -1.39417e-08 1.43024e-08 -1.71826e-08 1.16937e-08 -1.18902e-08 -1.42428e-08 -3.55593e-09 2.50677e-09 0.5 -7.02474e-09 -1.96182e-08 -4.20861e-08 1.63182e-09 -7.35723e-09 2.33709e-08 
549 2 4.49944 0.500888 5.01435 0 0 0 -7.76431e-09 5.49653e-09 5.46603e-10 6.15107e-09 -4.46483e-09 -8.22886e-10 -2.30003e-09 2.41311e-09 -5.987e-09 0.5 1.66294e-08 2.21066e-08 1.08667e-08 -9.9747e-09 -6.24059e-09 1.04393e-08 
591 2 1.44655 1.12499 4.40334 0 0 0 1.0457e-08 -2.37729e-08 -1.71148e-08 -9.31598e-09 1.99737e-08 1.51304e-08 -4.29725e-09 4.51973e-09 1.00231e-09 0.5 -1.32768e-08 -2.06602e-08 -1.605e-08 5.32754e-09 1.86304e-09 1.58301e-08 
243 1 1.20287 1.83742 5.34381 0 1 0 -3.30535e-09 4.94725e-11 -1.31388e-09 2.40844e-09 -4.28988e-10 1.4205e-09 -2.27415e-09 -1.82766e-09 5.02705e-09 0.5 -7.49311e-09 -8.16923e-09 -3.42609e-09 1.02334e-08 -3.41338e-09 1.20002e-08 