ITEM: TIMESTEP
123000
ITEM: NUMBER OF ATOMS
1000
ITEM: BOX BOUNDS xy xz yz pp pp pp
0.0000000000000000e+00 1.0000000000000000e+01 0.0000000000000000e+00
0.0000000000000000e+00 1.0000000000000000e+01 0.0000000000000000e+00
0.0000000000000000e+00 1.0000000000000000e+01 0.0000000000000000e+00
ITEM: ATOMS id type x y z ix iy iz vx vy vz fx fy fz omegax omegay omegaz radius c_2[1] c_2[2] c_2[3] c_2[4] c_2[5] c_2[6] 
120 1 3.15888 1.54053 0.0718129 0 1 0 -0.000607174 0.0016572 0.000770599 0.000573081 -0.00157014 -0.000684168 0.000792465 -0.00026799 -0.000586044 0.5 -0.000579078 -0.00314739 -0.000221102 -0.000371834 -5.15827e-05 -0.000609736 
525 2 2.11659 1.23569 1.70138 0 0 0 -0.000475132 -0.00221027 -0.00252063 0.000370655 0.00184235 0.00221316 -0.000338419 -0.000135154 0.000560609 0.5 -2.85048e-05 -0.000217446 8.55013e-05 0.000244791 0.000217416 -0.000170625 
371 1 4.95896 3.68414 1.58246 0 0 1 0.000542527 -0.0014335 0.00217616 -0.000421193 0.0012017 -0.00195553 0.000271259 -4.25416e-06 9.66968e-05 0.5 2.05059e-05 -0.00129629 0.00146052 -0.000187212 -0.00016743 4.07558e-05 
18 1 1.98134 2.69182 0.531403 0 0 0 -0.000279918 0.00029613 0.00183601 0.00023914 -0.000356008 -0.00158034 0.00117677 -0.000561113 0.000449744 0.5 -5.20296e-05 -0.00215907 -0.00119607 0.0016069 0.00153882 -0.00144545 
94 1 2.46194 3.50179 2.00364 0 0 1 -0.000137566 -0.00179984 0.00203288 0.000190435 0.00150549 -0.00175813 0.000473183 -0.000226133 8.45545e-05 0.5 0.000678464 0.000545689 0.000449061 0.000519404 0.000707459 0.000930558 
25 1 1.41561 0.708933 1.0849 0 0 0 -0.000168635 -0.000295255 -0.00294821 8.68369e-05 0.000190798 0.00270163 0.000966786 -0.000152224 0.000409463 0.5 -0.00127341 -0.0062904 -0.00297247 0.00232704 0.00180605 -0.00259125 
378 1 4.61919 2.40676 0.0715455 0 0 1 -3.27676e-05 0.000808088 0.00178883 8.33284e-05 -0.000784501 -0.00161648 0.00126775 0.000340783 -0.000216988 0.5 -0.000650314 -0.00151893 -0.000749656 -0.00088254 -0.000457296 -0.00165898 
8 1 3.44135 2.06872 1.74203 0 0 0 0.000137577 -0.00121613 0.00089254 -0.000114162 0.00098594 -0.000834299 0.000977346 -0.00040233 0.000118423 0.5 -0.000475166 -0.000460822 0.00028357 0.000549928 0.000881517 -0.00013419 
629 2 4.07683 2.61601 1.19701 0 0 1 0.000495978 -0.000626749 0.00190404 -0.000411874 0.000453764 -0.00171505 0.00122465 -0.000215346 -2.18052e-05 0.5 -0.00143459 -0.000883795 -0.00150524 0.000158244 -0.000523925 -0.000384979 
5 1 2.34682 3.90186 1.05219 0 0 0 -0.000565739 -0.00220449 0.00207112 0.00053632 0.00179672 -0.00178024 6.3563e-06 7.11359e-05 0.000611121 0.5 -0.0002555 -0.000409778 -0.000512639 0.000389594 0.000271751 -0.00025992 
650 2 0.460006 3.43775 1.13009 0 0 0 -0.00153185 -0.00180554 -0.000902712 0.00141759 0.00158101 0.00103772 0.000980294 0.000385294 0.000146928 0.5 -0.00193914 -0.00231272 -0.00188923 0.00140037 0.0015725 -0.00122069 
14 1 3.29511 3.13448 1.54358 0 0 0 2.12866e-05 -0.00136245 0.00193493 3.45882e-05 0.00111416 -0.00169803 0.000691761 9.732e-05 4.44382e-05 0.5 5.86254e-05 -0.00058136 -0.000727948 0.000454896 0.000186596 -0.000878945 
264 1 3.99609 3.86881 1.37823 0 0 0 0.000522324 -0.00148326 0.00222322 -0.000406919 0.00119953 -0.00201238 0.00087505 0.000181977 3.12382e-05 0.5 -0.000163988 1.65589e-05 -0.00102933 0.000441612 0.000428755 -6.15745e-05 
223 1 0.748364 2.47907 1.1458 0 0 1 -0.0012342 -0.00166756 -0.000325277 0.0011027 0.00144054 0.0003727 0.00129533 -0.000433414 0.000409686 0.5 -0.00143484 -0.00293833 -0.00810706 0.000900785 0.00317324 -0.00211101 
364 1 4.42289 4.23653 0.538203 0 0 1 -0.000345898 0.000741899 0.00279042 0.000330402 -0.000719945 -0.00250376 0.000752325 5.82784e-05 0.000494217 0.5 0.000206253 -0.000101631 2.05844e-06 -3.07322e-05 0.000432719 -0.000278159 
107 1 1.66124 1.61817 0.748548 0 0 1 -0.000787124 0.000221409 -0.00196998 0.000683176 -0.000271302 0.00186514 0.00139344 1.08555e-06 0.000141247 0.5 0.00127537 -0.00116722 -0.00097722 -0.00023664 0.000141224 -0.000922922 
529 2 2.67242 2.19988 1.06172 0 0 0 0.000394693 -0.000376342 0.00034894 -0.000365304 0.000214593 -0.000284637 0.00125242 -0.000228064 0.00028704 0.5 0.000106326 -0.00027363 -0.000539038 8.88672e-05 0.000510964 -0.000187631 
515 2 4.38638 0.436794 1.64418 0 0 0 8.03455e-05 -0.00144697 -0.000535635 -6.29553e-05 0.00121907 0.000468938 0.000774863 9.10002e-05 -0.000105624 0.5 -0.00196298 -0.0013967 -0.00225054 -0.00223685 0.00105833 0.000818942 
244 1 4.11367 0.570341 0.682893 0 1 1 9.70392e-05 0.000233369 -0.000258799 -6.72871e-05 -0.000264528 0.000211527 0.00109669 0.000264334 -0.000266989 0.5 -0.00111304 -0.00100624 -0.00168128 -0.000579267 0.000788763 0.00049917 
20 1 2.90167 0.571486 1.7844 0 0 0 0.000222279 -0.00105677 -0.000953474 -0.000214913 0.000856743 0.000824112 0.00054153 -0.000375721 0.00010729 0.5 -0.00158194 -0.00270076 -0.00372965 8.20022e-05 0.001993 -0.00207375 
280 1 4.09058 1.58226 1.14599 0 0 0 0.000315249 -0.000345885 0.000499905 -0.000258134 0.00020252 -0.00047397 0.00108367 -0.000149449 -0.000123368 0.5 -0.00175709 -0.00128006 -0.00343194 -0.000115275 0.0021221 0.000325421 
620 2 1.39524 4.37164 0.857105 0 0 1 -0.00127797 -0.00134276 0.0007391 0.00131993 0.00114237 -0.00045432 0.00105303 0.000455588 -6.20963e-05 0.5 -0.000392441 -0.00239433 -0.00428378 -0.000195619 0.0001364 0.0008137 
1000 2 3.603 2.39786 0.338858 0 1 1 0.000469297 0.000762908 0.00165981 -0.000333728 -0.000789394 -0.00151852 0.000976081 -7.65191e-05 -0.000165502 0.5 -0.000951228 -0.00254875 -0.00100087 -0.000632511 -0.00068289 -0.000375848 
103 1 3.28436 3.68346 0.697427 0 0 1 -0.000108195 -0.000363615 0.00257722 0.000125396 0.000189379 -0.00228932 0.000961441 -3.19126e-05 0.000459384 0.5 5.18612e-05 0.0002794 -0.000273739 0.000182695 0.000466795 -0.000335703 
622 2 0.931356 4.80373 0.0837332 0 0 1 -0.00140655 0.000283477 0.00172419 0.00149464 -0.000341623 -0.0013852 0.00156299 -0.00045846 0.000428514 0.5 6.51583e-05 0.000324585 -0.00204998 -0.000194022 -0.000692577 0.000402802 
506 2 0.744293 1.45235 1.18389 0 0 0 -0.00118636 -0.0017124 -0.00267881 0.000993588 0.0014841 0.00246311 0.00116161 -0.000114213 0.00077358 0.5 3.87091e-05 -0.00369739 -0.000393097 0.00421827 0.00116438 -0.00228102 
626 2 1.28897 3.41695 0.566511 0 0 1 -0.00143032 -0.000814508 -0.000682005 0.0013264 0.000677553 0.000841428 0.000320037 -0.000776401 0.000540312 0.5 -0.00159187 -0.00242037 -0.000511307 0.00110136 0.00141465 -0.000875471 
553 2 0.743966 0.0782073 1.56527 0 0 0 0.000218496 -0.0013295 -0.00384722 -0.000295797 0.00117706 0.00352469 0.000108234 -0.000574279 0.000874674 0.5 0.000324827 0.000316113 0.000262817 -0.000124505 0.00026426 -0.00044156 
135 1 1.5473 3.20592 1.67733 0 0 0 0.00063562 -0.00199746 -0.000512556 -0.000533157 0.00176099 0.000560555 0.000681082 -0.00132165 -2.37278e-05 0.5 0.000217449 -0.0056198 -0.000813845 0.00135413 0.000671086 -0.000283009 
624 2 4.32443 4.92158 1.47012 0 0 1 0.000228476 -0.00104299 0.00250083 -0.000149012 0.000944362 -0.0022949 0.000623952 0.000329061 0.000114512 0.5 0.000284459 0.000243207 -0.00178162 8.85413e-05 -0.0005165 -0.00101392 
256 1 4.58702 1.36766 0.304858 0 0 0 0.000264919 0.000371637 0.000286098 -0.000201875 -0.000399186 -0.000285911 0.00118922 0.000274825 -0.000551678 0.5 -0.000920531 -0.00145915 -0.00338283 -0.000994264 0.00145851 -0.000965924 
260 1 3.31849 0.0703776 1.02602 0 0 0 4.76509e-05 -0.00048991 -0.00142554 -1.66323e-05 0.000373513 0.00125418 0.0006241 0.000514741 -0.000437449 0.5 -0.00123083 -0.00280953 -0.00265903 -0.000365259 0.000835998 -0.00149533 
616 2 3.19072 4.48172 1.5053 0 0 1 0.000526088 -0.00180558 0.00231704 -0.000397483 0.00147585 -0.00212655 3.56903e-05 6.11581e-05 0.000126812 0.5 -0.000656342 -0.000283457 -0.000367957 0.000474079 0.000247077 -0.000235449 
106 1 1.74498 2.23683 1.52973 0 0 1 0.000424164 -0.00207705 -0.000279011 -0.000396698 0.00182749 0.000312015 0.00108271 -0.000497418 -0.000207194 0.5 -6.76085e-07 -0.00308402 -0.00083879 0.000723616 0.00129943 -0.000826694 
157 1 1.38948 4.18013 1.83858 0 0 0 0.00028963 -0.00223246 0.000575529 -0.000146298 0.00196519 -0.000304915 0.000860994 0.000327118 0.000138716 0.5 -0.00142238 -0.00422323 -0.00467548 0.000763603 0.0017091 -0.000941261 
516 2 2.34689 0.889918 0.688586 0 0 0 8.50249e-05 0.000965086 -0.00112 -0.000119203 -0.000951275 0.00106244 5.90447e-05 -0.000814905 -0.000274683 0.5 0.00022003 -0.000622534 -0.000236541 0.000113675 0.00112339 -0.00098936 
183 1 0.415931 4.58356 1.00248 0 0 0 -0.00137286 -0.00234675 0.00195979 0.00145439 0.00217263 -0.00145096 0.00189774 0.00045257 0.000439518 0.5 0.000292941 -0.000215539 3.44116e-06 0.00011086 -0.000171781 2.26945e-05 
625 2 0.400661 3.91215 0.209772 0 0 1 -0.00130458 -1.60993e-05 0.000131337 0.00127569 5.07089e-05 0.00018544 0.00206656 -0.000233424 -0.000302936 0.5 -0.000160856 -2.9435e-05 -0.000550477 -0.000112523 -0.000207125 0.00027211 
91 1 2.22036 4.71808 1.6954 0 0 1 0.000416656 -0.00216386 0.00168838 -0.000243829 0.00184952 -0.00140969 0.00026414 -0.000464414 -0.000110401 0.5 -0.00103441 -0.00119334 -0.000441071 -0.000496767 0.000573966 -0.000252595 
257 1 4.94013 2.69213 1.70722 0 0 0 0.000506257 -0.00148028 0.00180009 -0.000440428 0.00124527 -0.00161345 0.000650994 0.000101505 -0.000117497 0.5 -0.001481 -0.00137445 -0.00417596 -3.78623e-05 -0.000946567 -0.00085229 
4 1 3.72162 1.12866 1.95723 0 0 0 0.00020326 -0.00143055 -0.000156552 -0.000183555 0.00118274 0.000106057 0.000834145 -9.21092e-05 -5.41015e-05 0.5 -0.000547213 -0.000733857 -0.00256076 -0.00106185 0.000973379 0.00139455 
522 2 2.58384 2.50914 2.00857 0 0 0 -0.000194104 -0.00181414 0.000763699 0.000197496 0.00151427 -0.000658123 0.000819477 -0.000513822 0.000259674 0.5 -0.00104134 -0.000144064 -0.000518965 0.00103461 0.00159504 1.55162e-05 
117 1 3.12725 1.31407 1.15378 0 1 0 0.000341677 -0.000461834 -0.00021036 -0.000280793 0.000303448 0.000149884 0.00101718 -0.000304272 -0.000103128 0.5 0.000173078 -0.000543998 0.000413409 -0.000107758 0.000747862 0.000287805 
511 2 1.08106 2.24971 0.231081 0 0 0 -0.000462127 0.00148214 -0.000836534 0.00041831 -0.00138944 0.000841637 0.00188021 -0.000204596 -0.000380182 0.5 -0.000831411 -0.00292021 -0.00764446 0.00078645 0.00336222 -0.00155293 
911 2 0.492098 0.563967 0.699642 1 0 0 -7.51431e-05 -0.000543439 -0.00351223 3.71031e-06 0.000454107 0.00319511 0.000247074 -0.000283888 -0.000173982 0.5 0.000706029 -0.00235471 7.58821e-05 -0.000213193 0.000309994 -0.000994395 
668 2 0.00212199 3.8219 1.93256 0 0 0 0.000110867 -0.0035992 0.000836503 -0.000138285 0.00320595 -0.000584647 0.000314458 0.000589579 -0.000167806 0.5 -0.0025067 -0.00715903 -0.00262647 0.00210345 -0.000264706 -0.00042951 
90 1 2.94026 4.58042 0.418485 0 0 1 -0.000724944 -0.000380993 0.00324591 0.00072338 0.000230267 -0.00286321 0.00068271 -0.000340868 0.000525086 0.5 3.21059e-05 0.00246279 0.000761069 0.00137393 0.00117037 0.00112373 
734 2 4.13712 3.24473 0.373237 0 1 1 0.000489651 0.0006734 0.00291256 -0.000385597 -0.00068864 -0.00259864 0.00110924 0.000126615 6.66063e-07 0.5 -0.000509391 -0.000767532 -0.000413702 -0.000374093 0.000510629 -0.000183534 
672 2 0.0684547 1.98731 1.6909 0 0 0 -0.00148798 -0.00291063 -0.00181361 0.00126114 0.00258924 0.00164862 0.00117136 -0.000109011 0.000437237 0.5 -0.00502851 -0.00774124 -0.00332099 0.00307747 0.00291302 0.000160676 
759 2 4.95832 2.03907 0.950132 0 0 0 0.000591043 -0.000626845 0.00106536 -0.000522417 0.000492909 -0.000965015 0.0010922 1.59164e-05 -0.000266023 0.5 -0.000435299 -0.00232996 -0.000626567 -0.000795892 7.3731e-05 -0.000760858 
609 2 1.99648 4.76038 0.135445 0 0 1 -0.000480863 -0.000473362 0.00244221 0.00049551 0.000328358 -0.00210213 0.00062922 -0.000775193 0.000296616 0.5 -0.00438348 -0.0144278 -0.00243167 0.00372017 0.00186968 -0.00285486 
868 2 2.87001 3.00628 0.0278116 0 0 1 5.12513e-06 0.000239624 0.00182962 2.4811e-05 -0.000349144 -0.00158169 0.000996843 -0.000255568 0.000425013 0.5 -0.000921877 -0.00213826 -8.44126e-05 0.00153453 0.000322191 -0.000142552 
21 1 1.84594 0.35812 2.43254 0 0 0 -0.000439948 -0.0022887 -0.00237923 0.000343729 0.00201587 0.00215581 0.000510815 -0.000835556 0.000690724 0.5 0.000139503 0.000362816 -2.86155e-05 -3.4056e-05 0.000270259 -0.000531142 
682 2 2.73029 4.08458 2.77148 0 0 0 0.00047133 -0.001644 0.00172484 -0.000378033 0.00144798 -0.0015376 0.000143676 -0.000117588 -0.000105815 0.5 -0.00264545 -0.00249537 -0.00108942 0.000594347 0.00233478 0.00204448 
907 2 0.981768 4.62671 2.63503 1 0 0 0.000551325 -0.00275548 0.00100452 -0.000468464 0.00238231 -0.000705656 9.52649e-05 -0.000384376 0.000131686 0.5 -0.00318929 -0.00449014 -0.00395113 0.000876115 0.00228971 -0.0015363 
144 1 1.68459 3.60216 2.81082 0 0 0 0.000817501 -0.00251738 5.98103e-05 -0.000743501 0.00216439 -2.41758e-05 3.22225e-05 -0.000106866 -0.000231885 0.5 -2.37438e-05 -0.000610611 -0.000496175 0.000411845 0.000597485 -0.000236052 
675 2 2.83052 4.73942 3.54431 0 0 0 0.00104103 -0.00160791 0.00187405 -0.00103166 0.00148713 -0.00168116 -0.000270769 -2.29849e-05 -0.00028079 0.5 8.98603e-06 0.000265118 0.000511942 0.000252301 0.000102926 0.000675695 
502 2 4.38928 1.31229 3.26925 0 0 0 0.000477737 -0.00184436 -4.25178e-05 -0.000457525 0.00171092 1.27368e-05 0.000369912 0.000150685 -0.000247542 0.5 -0.00201966 -0.00139777 -0.00119247 -0.00123196 0.0014216 0.00201417 
27 1 2.60876 0.3018 3.21138 0 0 0 0.000618686 -0.0017759 -0.00119267 -0.000617954 0.00156964 0.00103822 -7.21024e-05 -0.000266588 0.000130713 0.5 -0.00209773 -0.00218694 -0.00443901 0.000721078 0.00185894 0.000287274 
965 2 1.35514 3.65976 3.79916 1 0 0 0.00109486 -0.00262483 -0.00039625 -0.00103711 0.00219074 0.000405151 -0.000318832 0.000332417 -0.000554394 0.5 -0.000759215 -0.00199994 -0.00248326 0.00110945 -0.000556472 0.00131017 
61 1 1.66165 0.449987 3.51528 0 0 0 9.60901e-05 -0.00223012 -0.00294231 -0.000180693 0.00190508 0.00255803 -0.000292303 -0.000293221 0.000332818 0.5 -0.00170147 -4.2294e-05 -0.000284305 0.000214454 0.00118818 -0.000133659 
680 2 1.19032 2.78296 3.34718 0 0 0 -0.000332948 -0.00231508 -0.000466659 0.000262603 0.00191981 0.000449792 9.69201e-05 0.0002749 -0.000131287 0.5 -0.000176163 -0.000714876 -0.00108438 6.23562e-05 0.000602502 0.00034037 
251 1 4.71337 3.03504 3.89447 0 0 0 0.00146301 -0.00216226 0.00189101 -0.00133017 0.0020195 -0.00173909 0.000537661 0.000399231 -0.0006472 0.5 -0.00195147 -0.000634139 4.809e-05 -0.00164527 0.000747144 0.00123485 
517 2 4.00871 2.89479 2.21733 0 0 0 0.000252013 -0.00205537 0.00148857 -0.000123812 0.00185825 -0.00131757 0.000222225 0.000399462 -0.000412431 0.5 5.26861e-05 -8.11043e-05 -0.000245288 -0.000106613 2.20124e-05 0.000224512 
6 1 3.42165 1.78067 2.73205 0 0 0 0.00029266 -0.00134587 0.000985439 -0.000300423 0.00118323 -0.000902572 0.000735478 -0.000309391 0.00024781 0.5 -0.00304089 -0.000315087 0.000138628 0.000421978 0.00145198 0.000315037 
519 2 4.43317 3.61507 3.0295 0 0 0 0.00046882 -0.00176382 0.0024525 -0.000417474 0.00164922 -0.00219664 0.000328875 0.00025274 -0.000114748 0.5 -8.32334e-05 0.00092579 0.000465999 -0.000689124 9.95987e-05 0.000287037 
509 2 1.93557 1.51716 3.62487 0 0 0 0.00111733 -0.00161308 -0.0025972 -0.00104128 0.0012073 0.00227135 -0.00037751 0.000825658 0.000201646 0.5 0.000291729 -0.000299827 -0.00232326 -0.000222125 0.000478056 0.000647034 
142 1 1.03574 1.9435 2.17087 0 0 0 -0.000570167 -0.00222227 -0.00145562 0.000458303 0.00196802 0.00132841 0.000933667 -1.5513e-05 0.000239409 0.5 -1.49198e-05 -0.000469001 -0.000723637 0.000109079 7.66594e-05 0.00082842 
941 2 0.1929 2.26046 2.77421 1 0 0 -0.00113615 -0.00344325 -0.00133157 0.000970115 0.00305339 0.00122838 0.000452078 7.14087e-05 0.000104547 0.5 -0.000513263 -0.00136909 -0.00230228 -8.7145e-05 0.000398512 0.000383546 
919 2 0.650217 4.31736 3.53339 1 0 0 0.000343429 -0.00300766 0.000646946 -0.000371772 0.00256523 -0.000426835 0.000368975 5.89494e-05 -0.000438571 0.5 -0.00155634 -0.00298124 -0.0016951 0.00155912 0.000136808 0.000924253 
95 1 3.53863 3.77924 2.26814 0 0 1 0.000665981 -0.00187878 0.00217827 -0.000574852 0.00166184 -0.00198163 0.000246463 -1.39644e-05 -0.000104614 0.5 -0.0023712 -0.000946936 -0.00247651 -4.97646e-05 0.00118606 -0.00053555 
458 1 1.55652 4.75488 3.86344 1 0 0 0.00064738 -0.00213538 0.0020516 -0.000570945 0.00191302 -0.00178272 -0.000630113 6.6343e-05 9.81461e-05 0.5 -0.00034701 -0.000136262 -0.000250265 0.000286373 -1.2687e-06 -0.000136195 
41 1 1.14065 0.961676 2.01253 0 0 0 -0.000268918 -0.00201407 -0.0025089 0.000169509 0.0017767 0.00229158 0.000868633 -2.89157e-05 0.000387554 0.5 -0.000606124 -0.000392062 -0.00117379 0.000233258 0.0013344 -0.000959299 
814 2 0.270945 1.22901 3.40475 1 0 0 0.000350181 -0.00237418 -0.00217754 -0.000375039 0.00201297 0.00197053 0.000318698 -0.000230527 0.000994651 0.5 -0.00223741 -0.00221099 -0.00217546 0.00100026 0.000987803 0.00236517 
130 1 1.70555 2.6489 2.50068 0 0 0 -0.000627484 -0.00229255 -0.000649973 0.000575702 0.00195486 0.000635325 0.000673484 -0.000308724 -0.000331204 0.5 -0.00128643 -0.00264094 -0.00214738 0.00092209 0.00109092 0.00128817 
12 1 2.70224 1.09659 2.61174 0 0 0 0.000592729 -0.0013722 -0.000662892 -0.000537797 0.00118216 0.000538592 0.000443645 -0.000689358 0.000294245 0.5 -0.00196288 -0.00332609 -0.00246278 0.000632401 0.00150256 -0.000214016 
512 2 3.18574 2.03189 3.78717 0 0 0 0.00108514 -0.000383853 0.000436718 -0.0010078 0.000363618 -0.000337455 0.000567664 -0.000273592 0.000277423 0.5 -0.000449408 -0.0012674 -0.000757615 -2.88772e-05 0.000185828 0.00120337 
151 1 2.47905 3.3017 3.34066 0 0 0 0.000311952 -0.00205279 0.0010943 -0.000254814 0.0018235 -0.000969207 1.8224e-05 -0.000273883 0.000107581 0.5 7.58705e-05 -0.00410211 -0.00298835 -0.000227971 0.00159447 0.00150359 
667 2 0.284527 1.3225 2.40837 0 0 0 -0.000289626 -0.00283721 -0.00219969 0.000198119 0.00254046 0.0020035 0.000552905 0.000182472 0.000581239 0.5 -0.000984533 -0.00437117 -0.0031643 8.19704e-05 8.19695e-05 0.000759475 
38 1 3.78992 0.738555 3.8731 0 0 0 0.000898438 -0.000757069 -0.000436173 -0.000837709 0.000737905 0.000399079 -0.000610148 -0.000108349 -0.000197239 0.5 -0.00229814 -0.000932516 -0.00511192 -0.00252524 0.00173595 0.00363305 
936 2 0.320476 3.37104 3.50694 1 0 0 -0.000888688 -0.00252983 -0.000270481 0.000706858 0.00214567 0.000334965 0.000404779 -0.000520374 -0.000308407 0.5 0.000121912 -0.00312092 -0.00113818 -6.94963e-05 0.00138225 0.00210795 
531 2 4.80024 0.809652 2.48034 0 0 0 -0.000141305 -0.00248496 -8.38431e-05 8.9584e-05 0.00222559 6.29789e-05 0.000230012 0.000136481 -0.000390043 0.5 -0.000637789 -0.000152957 -0.00146095 -0.000768923 -0.00109973 -0.000802363 
527 2 4.02957 4.31606 3.61747 0 0 0 0.00122022 -0.00158983 0.00277055 -0.00117196 0.00148481 -0.0025239 -0.00019249 5.13879e-05 7.02446e-05 0.5 -0.00300782 -0.00081881 -3.93573e-05 -0.00164891 0.00102738 0.00126844 
383 1 4.36279 4.34526 2.28756 0 0 1 0.000233083 -0.00125404 0.00236144 -0.000217192 0.00114591 -0.00215784 0.00021065 4.11402e-05 0.000120597 0.5 -0.00198099 -0.000423912 0.000634228 0.00040749 -0.000210137 -0.000581494 
992 2 0.695346 0.440806 3.85421 1 1 0 0.000677825 -0.00233086 -0.00259272 -0.000683818 0.00195415 0.00232631 -0.000225324 0.000506139 0.00033043 0.5 -0.00173474 -0.00408446 -0.000673297 0.00124062 -0.000524774 0.00194379 
521 2 4.93561 4.52865 3.24893 0 0 0 0.0010002 -0.00123003 0.00249603 -0.000975131 0.00115458 -0.00228881 -0.000145194 0.000360369 0.000235799 0.5 -0.000921382 -0.000704396 -0.00106417 -0.000556201 6.75386e-05 0.00161352 
136 1 1.88511 1.67292 2.62402 0 0 0 -0.000172418 -0.00242048 -0.00231914 9.9124e-05 0.002048 0.00204834 7.09638e-05 0.000380746 0.000315947 0.5 -0.00220482 -0.00279544 -0.00197031 0.00153361 0.000279223 0.000725211 
540 2 4.51106 0.179738 3.41518 0 0 0 0.000444794 -0.00203029 -0.000282008 -0.000426087 0.00188922 0.000231766 -0.000740271 0.000225828 -0.000427724 0.5 0.000649424 0.000518937 0.000124193 -0.000613996 -0.000321315 0.000491478 
510 2 3.85482 2.56942 3.16989 0 0 0 0.000453475 -0.00171444 0.00152453 -0.000470881 0.00153421 -0.00139429 0.00017611 9.29616e-05 -4.39566e-05 0.5 0.00115697 0.00109108 -0.000536852 -0.000259843 0.000169773 0.000817973 
19 1 4.36539 1.84779 2.40825 0 0 0 0.000251879 -0.000507977 0.00103771 -0.000279729 0.000443352 -0.000992109 0.000662346 8.60395e-05 -0.000259383 0.5 -0.00396375 -0.00010534 -0.00184168 0.000152505 0.0018327 0.000292765 
543 2 1.07305 1.78853 3.19603 0 0 0 0.000398477 -0.00220899 -0.00155079 -0.000396639 0.00182559 0.00138797 0.000483161 0.000527313 0.000297094 0.5 -0.000600791 -0.000567522 -0.000343216 -0.000713532 0.000676857 0.000440055 
773 2 4.7875 2.2288 3.30685 0 0 0 0.000452792 -0.00189068 0.00135845 -0.000448793 0.00175706 -0.00123837 0.000310951 0.000370326 -0.00025056 0.5 -0.000671663 -0.00294941 -0.00553607 -0.00107372 0.00205711 0.00484163 
555 2 2.23862 2.50678 3.89771 0 0 0 0.000803567 -0.0020372 0.00132965 -0.000753596 0.00184096 -0.00116067 -7.59347e-05 -1.46244e-05 2.57305e-05 0.5 -0.000305879 0.000128138 0.000312661 -0.000333561 0.000597659 0.00125342 
429 1 0.307337 2.40278 3.75739 1 0 0 -0.000637379 -0.00279992 -0.00148233 0.000512119 0.00237749 0.00137888 0.000231277 0.000154288 0.000618421 0.5 -0.000907271 -0.00498771 -0.00307801 0.0011925 -0.000743748 0.00291502 
316 1 0.889861 0.514481 2.87156 1 0 0 -0.000108909 -0.00265024 -0.00279897 -5.83922e-05 0.00230699 0.00250385 0.000112456 2.25789e-05 0.000415164 0.5 0.000369105 -0.000419636 0.000145324 0.000236337 0.000202227 0.000374989 
503 2 3.61668 0.769819 2.88642 0 0 0 0.000371373 -0.00173739 -0.000303547 -0.000342993 0.00155686 0.000274438 2.81294e-05 7.77423e-05 3.28697e-05 0.5 0.000221376 0.000532247 -0.00314193 -2.89764e-05 2.30091e-05 0.000708014 
896 2 0.701824 3.66671 2.62994 1 0 0 0.000740614 -0.00280775 0.000381492 -0.000690031 0.00244464 -0.000202024 0.000234212 5.1525e-05 -0.000225174 0.5 -0.00073275 -0.00209225 -0.00294114 0.000167779 -0.000294528 0.000407313 
690 2 1.93656 4.67215 2.92881 0 0 0 0.000235827 -0.00201214 0.00191609 -0.000155148 0.00177342 -0.0016331 -6.95852e-05 -0.00015348 0.000270606 0.5 -0.0022922 -0.00141744 -0.000251636 0.00137911 0.000249226 -0.000375578 
641 2 3.45925 3.50139 3.22594 0 0 0 0.000399917 -0.00155717 0.00223858 -0.000354343 0.00142609 -0.00202317 -0.000138512 2.18689e-05 0.000127311 0.5 0.00090269 0.000743472 -0.000830617 -0.000211635 -0.000208299 0.00148444 
528 2 3.34222 4.80321 2.44115 0 0 0 0.00089515 -0.00176817 0.00223873 -0.000794916 0.00155123 -0.00208338 0.000265051 0.000146298 -5.07746e-05 0.5 -0.000393668 -0.000822699 -0.000893998 -0.000689097 0.000131453 0.000214233 
225 1 2.66677 2.38102 2.99747 0 0 1 -0.000295668 -0.00201813 0.000750545 0.000236505 0.00177172 -0.000633706 -6.43678e-05 0.000381293 0.000411082 0.5 -0.00077216 -0.00224709 9.35798e-05 0.00139183 -0.000149337 -0.000402574 
119 1 0.615156 2.84481 2.06693 0 0 0 -0.00111639 -0.00231762 -4.89154e-05 0.000963122 0.00206355 0.000103842 0.000884769 0.00010974 -3.20528e-05 0.5 0.000514504 -0.00177512 -0.00382787 0.000218325 0.0013263 -0.00061761 
200 1 2.4645 0.209111 4.19657 0 1 0 0.00174904 -0.00103815 -0.000956896 -0.00161763 0.000934552 0.000830363 -0.000872144 -0.000512189 0.000719397 0.5 -0.00200002 -0.00123041 -0.0033737 -3.91698e-05 0.00138105 0.000768894 
114 1 4.70663 1.00447 4.17133 0 0 0 0.000842992 -0.00116116 9.56755e-05 -0.000796747 0.00114437 -9.11132e-05 -0.000198585 -0.000112171 -0.000412324 0.5 -0.000957408 0.000218384 0.000427694 -0.00015391 -0.000524467 -0.000308815 
820 2 1.30983 2.29429 4.21142 1 0 0 0.00023408 -0.00162846 -0.000156622 -0.000210235 0.00132374 0.000177419 -0.00044424 -0.00038883 0.000376485 0.5 -0.000754781 0.00013847 -0.000820882 0.00082742 0.00109501 0.00122587 
47 1 4.65476 1.58248 5.43521 0 0 0 0.00174931 -0.000950493 0.000560691 -0.00164202 0.00100691 -0.000509376 0.000167699 0.000449156 3.42325e-05 0.5 -0.00164458 -0.00219263 -0.000973027 -0.000669469 -0.00100807 0.00148621 
824 2 1.64888 3.83146 5.79125 1 0 0 0.000389822 0.000606145 0.00186571 -0.000450908 -0.000474543 -0.00164941 -0.00112034 -1.4783e-05 -0.000479169 0.5 -0.000616419 -0.000433119 -0.00178653 -0.000349258 0.000159777 0.000627798 
172 1 3.44207 0.338405 4.72096 0 1 0 0.00112908 0.000623231 0.000311949 -0.00108012 -0.000472286 -0.000274956 -0.000784713 -0.000204697 5.52804e-05 0.5 -0.00211501 -0.00212538 -0.00663564 -0.00187532 0.00175143 0.00287377 
718 2 0.202176 2.03676 5.51285 0 1 0 0.000218005 0.000115199 -0.000165644 -0.00022945 -0.000275496 0.000218402 -0.000618848 -0.000286695 0.000196301 0.5 -0.00237609 -0.000356866 -0.00159137 0.00128529 -0.00140796 0.00356164 
505 2 0.484585 3.50057 5.83306 0 0 -1 -0.000229635 0.00223891 0.00129559 0.000164793 -0.0021599 -0.00114851 0.000103923 -0.000565251 0.000721196 0.5 -0.000325716 -0.00568344 -0.00271213 -3.42247e-05 -1.18685e-05 0.00441665 
524 2 3.99337 2.7344 5.70471 0 0 0 0.00341921 0.00117475 0.00351384 -0.00303932 -0.00084429 -0.00310228 -0.000801846 0.00218485 0.00127694 0.5 7.46934e-06 0.000647516 0.000530795 -0.000376049 -0.000442551 0.000365212 
839 2 0.57892 1.61628 4.31205 1 0 0 0.000811077 -0.00251672 -0.00178731 -0.000735023 0.00212333 0.00162464 -0.000303543 -6.73773e-05 0.00085709 0.5 -0.000509402 -0.00383912 -0.00231511 0.00179671 -2.75099e-05 0.00377858 
937 2 2.44316 3.38756 4.33657 1 0 0 0.000811543 -0.00177414 0.00106063 -0.000777231 0.00162901 -0.000947248 -0.000465708 -0.000462939 0.000134022 0.5 -0.0012598 2.59608e-05 -0.00293945 9.04115e-05 0.00126442 0.00173004 
811 2 2.60612 3.94619 5.52426 1 0 0 0.000256214 0.000125879 0.00120062 -0.000351219 8.15058e-06 -0.00110696 -0.00072368 -0.000709636 -7.85952e-05 0.5 -0.00056868 -0.00207263 -0.000669009 -0.000868252 -0.000171816 0.00175555 
827 2 1.52059 3.18239 4.66334 1 0 0 0.000486446 -0.00168251 0.000201721 -0.0004294 0.00137751 -0.000125858 -0.000872852 -0.000571958 -0.000537203 0.5 -0.00131263 -0.000682554 -0.00286093 -0.000432844 0.000805485 0.00190793 
149 1 4.05514 3.93299 4.61742 0 0 0 0.000918068 -0.000530522 0.00238096 -0.000907619 0.000596591 -0.00214196 -2.47339e-05 8.35077e-05 0.000341573 0.5 0.000157751 -0.00048677 0.00102831 0.00171455 -0.000673112 0.0007698 
925 2 0.622624 3.59951 4.5231 1 0 0 0.00108022 -0.000591605 -0.00035647 -0.000994626 0.000334049 0.000397418 -0.000759269 0.000129887 -0.000356825 0.5 -0.00067477 -0.0011374 -0.000454399 1.65182e-05 -0.000423725 0.000698028 
168 1 3.33479 4.60363 5.33012 0 0 0 0.000829122 -0.000158948 0.00253501 -0.0008693 0.000267667 -0.00231327 -0.000355265 -0.000449543 0.000380144 0.5 -0.00210937 -0.00179738 -0.00209644 -0.000196028 -0.000452684 0.00144092 
928 2 1.57444 4.40873 4.97779 1 0 0 0.000474962 3.93554e-05 0.00148429 -0.000461525 7.05687e-05 -0.00128741 -0.000579289 -0.000120566 -0.000758805 0.5 -0.00152531 -0.00160476 -0.00145936 -0.00103884 0.000736409 0.00104871 
148 1 3.93953 3.74158 5.74377 0 0 0 0.000636465 0.00111111 0.00330486 -0.000712915 -0.000803161 -0.0029943 -0.000670809 -0.000393124 0.00135501 0.5 0.000547816 0.00174562 0.0012121 0.000843886 0.000896466 0.00085547 
914 2 4.69246 4.38511 5.24244 0 0 0 6.3665e-05 -0.000283844 0.00309501 -0.000178221 0.000421501 -0.00277958 -0.000953526 -0.000762773 -0.000777648 0.5 4.76054e-05 0.00035753 0.000780978 -6.03972e-05 0.000321747 0.000504223 
23 1 2.87732 1.11891 4.0579 0 0 0 0.000759811 -0.000765624 -0.00130106 -0.000725526 0.000702018 0.00118899 6.00157e-05 -0.000400008 9.1465e-05 0.5 -0.00175128 -0.00176551 -0.00121657 -0.000987308 0.000937522 0.000901923 
594 2 2.05534 1.97046 4.80222 0 0 0 0.000891495 0.000761928 0.000213249 -0.000811969 -0.000704073 -8.66521e-05 0.000310086 -0.000310841 0.000779247 0.5 -2.88371e-05 -0.00179851 -0.000297318 0.000815803 -0.000401101 0.000988192 
539 2 3.78391 1.03993 5.46847 0 0 0 0.0011347 0.00125564 0.00111174 -0.00107842 -0.00100856 -0.00099671 -0.000413735 0.000611068 -0.000284119 0.5 -0.000524245 -0.00582533 -0.00243279 -0.00236759 -0.00147012 0.00466688 
730 2 0.461422 1.11581 5.16979 0 1 0 0.000629398 -7.71374e-05 -0.000387616 -0.000606027 -7.74069e-05 0.000352324 -0.000390271 -3.36794e-05 0.000917252 0.5 0.0013941 -0.00029376 -0.00137584 -4.04493e-06 -0.000371265 0.00270362 
689 2 3.51902 0.102909 5.6961 0 1 0 0.000559174 0.00118618 0.000164002 -0.000518741 -0.000954816 -0.000134395 -0.000303738 -0.000591559 -0.000335222 0.5 -0.00256387 -0.00755136 -0.00654596 -0.00108601 0.000285071 0.00551288 
450 1 0.618131 4.79931 4.46861 1 0 0 0.00190076 -0.00100719 0.000360496 -0.00162736 0.000896949 -0.000154487 -0.0016456 -0.000347345 0.000130755 0.5 -0.000935348 -0.00250499 -0.00506712 4.82586e-05 -0.000801757 0.00292854 
549 2 4.49952 0.500919 5.01405 0 0 0 -7.81792e-05 -0.000173753 0.000518294 2.37983e-05 0.000284205 -0.000456552 -0.000283185 0.000327291 -0.000800662 0.5 0.001654 0.00236976 0.00169945 -0.00109056 -0.000960085 0.000887379 
591 2 1.44568 1.12585 4.40464 0 0 0 0.00152286 -0.0013025 -0.00221576 -0.00138828 0.00100577 0.00197723 -0.000520555 0.000329279 0.000360014 0.5 -0.000963712 -0.00172571 -0.00142561 0.000491601 0.00019728 0.00138173 
243 1 1.20279 1.83692 5.3442 0 1 0 0.000175748 0.000976376 -0.000735716 -0.00018451 -0.000998193 0.000734014 -0.000266401 -0.000286323 0.000524673 0.5 -0.00076098 -0.000976136 -0.000524971 0.000447609 1.47875e-05 0.00127618 
646 2 3.74054 3.12395 4.10822 0 0 0 0.00165779 -0.000740996 0.00218729 -0.00149148 0.000750196 -0.00195155 -4.63476e-05 0.000192281 -0.000141007 0.5 -0.00127286 -0.00394652 -0.00279054 0.00066909 0.000275245 0.0026362 
374 1 0.580768 2.63567 4.80703 1 0 0 0.000596783 -0.000461817 -0.000408552 -0.000524171 0.00022192 0.000445904 -0.000571609 -0.000414209 -0.000252665 0.5 -0.00076598 -0.00173111 -0.000894009 -0.000499717 0.00105881 0.00131229 
418 1 0.657444 4.37274 5.37543 1 0 0 0.000533999 0.00234743 0.00178792 -0.000469329 -0.00220816 -0.00147616 -0.00112929 -0.000441751 -0.000811988 0.5 -0.000996447 -0.00380162 -0.00524128 -0.000972202 0.000561917 0.00288465 