ITEM: TIMESTEP
108000
ITEM: NUMBER OF ATOMS
1000
ITEM: BOX BOUNDS xy xz yz pp pp pp
0.0000000000000000e+00 1.0000000000000000e+01 0.0000000000000000e+00
0.0000000000000000e+00 1.0000000000000000e+01 0.0000000000000000e+00
0.0000000000000000e+00 1.0000000000000000e+01 0.0000000000000000e+00
ITEM: ATOMS id type x y z ix iy iz vx vy vz fx fy fz omegax omegay omegaz radius c_2[1] c_2[2] c_2[3] c_2[4] c_2[5] c_2[6] 
120 1 3.16411 1.52729 0.0663865 0 1 0 -0.011431 0.0259664 0.0104078 0.013295 -0.0232785 -0.00961766 0.00875108 -0.00421177 -0.0064566 0.5 -0.00993779 -0.0356034 -0.00167748 -0.00206814 -0.000478514 -0.00657951 
525 2 2.11922 1.24904 1.71683 0 0 0 -0.00431896 -0.0222745 -0.0228245 0.00408038 0.0146611 0.00380456 -0.00227684 0.00131716 0.00594164 0.5 -0.00232844 -0.00529929 -0.00684245 0.00468874 0.00364595 -0.00518788 
371 1 4.95644 3.69288 1.56708 0 0 1 0.00285833 -0.0150159 0.0288389 0.000540495 0.0122751 -0.0270075 0.00617145 0.00198423 0.000391687 0.5 0.000762664 -0.0163334 0.0218223 -0.00265311 -0.00286052 -0.000926885 
18 1 1.98299 2.68812 0.519355 0 0 0 -0.00306942 0.00821823 0.0216672 0.0034479 -0.0084173 -0.0185754 0.0136458 -0.00859347 0.00595562 0.5 0.00218361 -0.0292723 -0.0143157 0.0215194 0.0245844 -0.0214533 
94 1 2.46457 3.51279 1.98936 0 0 1 -0.00675913 -0.0189632 0.0263524 0.00880248 0.0147014 -0.0226639 0.0116511 -0.0045077 0.00294285 0.5 0.0104174 0.0122845 0.00325451 0.00668462 0.00993922 0.00978765 
25 1 1.41511 0.709835 1.10667 0 0 0 0.0043509 0.000179742 -0.0407307 -0.0123508 -0.00232384 0.0357888 0.0132697 0.00156795 0.00646042 0.5 -0.0257065 -0.0868787 -0.0397885 0.0401451 0.0232308 -0.0430743 
378 1 4.62169 2.39962 0.0587194 0 0 1 -0.00772133 0.0147062 0.0240364 0.0118816 -0.0150751 -0.0216914 0.0162157 0.00384372 -0.00198492 0.5 -0.00725186 -0.0187475 -0.00616408 -0.0152986 -0.00589106 -0.0242752 
8 1 3.44072 2.07556 1.73478 0 0 0 0.00116516 -0.0106531 0.0143734 -0.00169962 0.00560147 -0.0137376 0.0131861 -0.00423283 0.00207083 0.5 -0.00760578 -0.000975061 0.00526754 0.00795121 0.0140812 -0.00660371 
629 2 4.07465 2.61829 1.18344 0 0 1 0.00243844 -0.00183191 0.0244608 0.000105761 -0.00258956 -0.0194845 0.0153473 -0.00116472 0.000197743 0.5 -0.00755982 -0.00758575 -0.0101608 0.00257498 -0.00151081 -0.0062195 
5 1 2.34903 3.90293 1.033 0 0 0 -0.00475131 0.0107144 0.0397686 0.00849976 -0.0157259 -0.0336594 0.017025 0.000614401 -0.00695629 0.5 0.00278376 0.00138842 -0.00386133 -0.00242278 -0.0016983 0.00154641 
650 2 0.471379 3.45043 1.14024 0 0 0 -0.0214738 -0.0245179 -0.0207951 0.0199535 0.0241866 0.0177176 0.011826 0.00402893 0.00506198 0.5 -0.0237212 -0.0229159 -0.00888561 0.0165342 0.0177745 -0.0201911 
14 1 3.29647 3.14196 1.53014 0 0 0 -0.00409206 -0.0114825 0.0243886 0.00571323 0.006276 -0.0205238 0.0126576 0.000530988 -0.000815556 0.5 0.00298893 -0.00696594 -0.0086349 0.00362325 0.00352808 -0.0127723 
264 1 3.99369 3.87716 1.36199 0 0 0 0.00286408 -0.013009 0.0305507 -0.000173166 0.00693044 -0.0281955 0.0138302 0.0025721 -0.00190492 0.5 0.000245901 0.000400264 -0.00297014 0.0077648 0.00281377 -0.00234811 
223 1 0.756745 2.4905 1.14954 0 0 1 -0.0140042 -0.0217206 -0.00821954 0.00833733 0.020581 0.00805232 0.0169446 -0.00307185 0.00883645 0.5 -0.0186305 -0.0299484 -0.108711 0.0127746 0.0419927 -0.0333912 
364 1 4.42515 4.22995 0.518058 0 0 1 -0.00263686 0.0129504 0.0378599 -0.00191205 -0.0105936 -0.0345741 0.0102066 0.000426534 0.00354971 0.5 0.00660664 -0.00103847 0.0076049 0.000143425 -0.000495577 -0.00467594 
107 1 1.66643 1.61545 0.764708 0 0 1 -0.00944623 0.00691628 -0.0329817 0.00786524 -0.0087597 0.0337415 0.0186643 0.00161727 0.00416877 0.5 0.0236652 0.00136141 0.00107442 -0.00975697 0.00695729 -0.0164831 
529 2 2.66945 2.20029 1.05923 0 0 0 0.00581837 0.00205815 0.00513611 -0.00558138 -0.00681772 -0.0064371 0.0171192 -0.00499776 0.00479936 0.5 0.000562686 -0.00202058 -0.00392344 0.00063035 0.01183 -0.00465895 
515 2 4.38599 0.445375 1.64797 0 0 0 0.000562448 -0.0140053 -0.00710991 -0.000230466 0.00873764 0.00700896 0.0113028 0.00228052 -0.00135789 0.5 -0.025926 -0.0193213 -0.0414517 -0.0362762 0.0124043 0.0122167 
244 1 4.1137 0.56748 0.684453 0 1 1 -0.000785229 0.00662439 -0.00262647 0.00250939 -0.00810423 0.00213055 0.0141265 0.0039623 -0.00255042 0.5 -0.0227748 -0.0214963 -0.0346706 -0.0133608 0.0131604 0.0120225 
20 1 2.90005 0.577424 1.79056 0 0 0 0.00270438 -0.00948269 -0.011139 -0.00139642 0.00642687 0.0104361 0.00957516 -0.00359593 0.00162968 0.5 -0.0262299 -0.039395 -0.0570007 0.00392302 0.0296322 -0.0293051 
280 1 4.08893 1.5828 1.14164 0 0 0 0.00236951 0.000893287 0.00869729 -0.000726706 -0.00400737 -0.00801294 0.0139746 -0.00056149 -0.00175297 0.5 -0.0318338 -0.0177717 -0.0483307 -0.00372671 0.03069 0.00206564 
620 2 1.40568 4.37951 0.855575 0 0 1 -0.0183264 -0.0124921 -0.0014972 0.00966429 0.00759357 0.00951767 0.0178198 0.00346277 0.00537781 0.5 -0.00577856 -0.0307876 -0.066347 -0.0018205 0.00214808 0.0122573 
1000 2 3.60183 2.39035 0.326762 0 1 1 -0.000794395 0.0162482 0.0221924 0.00573175 -0.0166961 -0.0186189 0.0105228 -0.0023334 -0.00349755 0.5 -0.0112668 -0.0292463 -0.00757175 -0.00774273 -0.00434113 -0.0044762 
103 1 3.28666 3.68276 0.678849 0 0 1 -0.00635138 0.0052113 0.0347279 0.00784783 -0.0105576 -0.0307582 0.0112833 0.00107941 -0.000799312 0.5 0.0113375 0.0050866 0.00370901 -0.00243653 0.00335665 -0.000541989 
622 2 0.943876 4.7987 0.0739056 0 0 1 -0.0237426 0.0150421 0.0164563 0.0181704 -0.0272123 -0.0133948 0.0251779 -0.00523187 0.0110639 0.5 0.00291642 0.0110343 -0.0356595 0.00173408 -0.0106306 0.0053142 
506 2 0.751061 1.46455 1.20383 0 0 0 -0.0113823 -0.0246804 -0.038814 0.0181794 0.0479023 0.0520786 0.0145755 0.00101377 0.0123543 0.5 -0.00719055 -0.0590886 -0.00543266 0.0605769 0.0188165 -0.0403905 
626 2 1.29935 3.42129 0.574759 0 0 1 -0.0195862 -0.00647968 -0.0173385 0.0190885 0.00404112 0.016287 0.00280889 -0.0116258 0.00931535 0.5 -0.0209288 -0.0324951 -0.00751267 0.0157054 0.0187822 -0.0144466 
553 2 0.739643 0.0885443 1.59358 0 0 0 0.0123225 -0.0208678 -0.0532811 -0.0165253 0.0208746 0.0502207 0.0071399 -0.00425047 0.00884459 0.5 0.00731816 0.00819895 0.00155224 -0.00164185 -0.00037732 -0.00347823 
135 1 1.54355 3.22044 1.68258 0 0 0 0.00581817 -0.0278393 -0.0112871 -0.00317036 0.0269799 0.01144 0.00502733 -0.0195064 0.00329359 0.5 0.00404061 -0.0772909 -0.00978212 0.0199265 0.0106889 -0.00814326 
624 2 4.32352 4.92848 1.45092 0 0 1 0.00151952 -0.0116779 0.0379943 -0.00137141 0.00820786 -0.0384508 0.0103202 0.00434198 0.00298805 0.5 0.00239061 0.00596245 -0.0180825 0.00214858 -0.00516077 -0.0170781 
256 1 4.58656 1.36344 0.302456 0 0 0 -0.000855 0.00951513 0.00451611 0.00336241 -0.0106928 -0.00374936 0.0154844 0.00472459 -0.00661394 0.5 -0.0192481 -0.0308658 -0.0639848 -0.0205667 0.024388 -0.0120821 
260 1 3.3188 0.0727154 1.03564 0 0 0 -0.0011271 -0.00333516 -0.0173993 0.00222113 0.0021152 0.015394 0.007644 0.00679277 -0.00592797 0.5 -0.0261636 -0.0461863 -0.0414734 -0.00893455 0.0148631 -0.022714 
616 2 3.18729 4.49147 1.48795 0 0 1 0.00572215 -0.0153412 0.0338155 -0.00220567 0.0101688 -0.0333493 0.00545346 -0.00277659 0.00230167 0.5 -0.0125161 -0.00496775 -0.00443529 0.00914581 0.00661533 -0.00306667 
106 1 1.7415 2.2518 1.53245 0 0 1 0.00741997 -0.0284487 -0.00531744 -0.00938789 0.0268428 0.00432399 0.0145229 -0.00656334 0.000667178 0.5 0.00125545 -0.0411521 -0.0019434 0.0141367 0.0211118 -0.00647714 
157 1 1.38918 4.19605 1.83858 0 0 0 -0.00205611 -0.0300659 -0.00506909 0.00697425 0.0282496 0.0131868 0.0109282 0.00222007 0.00192665 0.5 -0.0216723 -0.058798 -0.0662183 0.00833803 0.0230957 -0.0158226 
516 2 2.34536 0.881628 0.698115 0 0 0 0.00373127 0.0175092 -0.0200035 -0.004838 -0.0185104 0.020881 -0.000597659 -0.013004 -0.00374868 0.5 0.00179073 0.00461745 -0.00241285 -0.00291625 0.0188528 -0.0108499 
183 1 0.428289 4.60303 0.993924 0 0 0 -0.0242192 -0.0420169 0.00936469 0.0242614 0.0534215 0.00643518 0.025861 0.00214506 0.0188573 0.5 0.00377495 -0.00916997 -0.00559789 0.00280152 -0.0014045 -0.00457064 
625 2 0.409638 3.91286 0.215064 0 0 1 -0.0122773 -0.00327324 -0.0153522 0.00548825 0.00454148 0.0174328 0.033043 -0.00283382 0.00662057 0.5 0.00176487 0.00484793 -0.00274887 0.000893723 -0.00176581 -0.00637856 
91 1 2.21925 4.7333 1.68735 0 0 1 2.25515e-05 -0.0291793 0.0112607 0.00422304 0.0262367 -0.0101289 0.00660273 -0.0129731 0.00201165 0.5 -0.0174031 -0.014714 -0.00290418 -0.0065762 0.00999726 0.000431523 
257 1 4.93739 2.70122 1.69454 0 0 0 0.00383031 -0.0157537 0.0232707 -0.00119591 0.0132238 -0.0201106 0.0107103 0.00233562 -0.000991311 0.5 -0.00217502 -0.022514 -0.063929 -0.00449536 -0.00708615 -0.018623 
4 1 3.72038 1.13715 1.95745 0 0 0 0.00187567 -0.0140939 0.000297982 -0.000484669 0.00970672 -0.000619481 0.0129053 -0.000271485 -0.00038574 0.5 -0.00358363 -0.000855586 -0.0245236 -0.0179126 0.0132783 0.0151799 
522 2 2.58578 2.52017 2.00299 0 0 0 -0.00381719 -0.0188823 0.0113794 0.0028154 0.0143242 -0.0131383 0.0113017 -0.00692081 0.00639169 0.5 -0.0136723 0.00207628 0.00176961 0.0159108 0.0283813 -0.0023749 
117 1 3.12542 1.31541 1.15449 0 1 0 0.0025558 -0.000224554 -0.000447939 -0.000726102 -0.00380414 -0.00121535 0.0142668 -0.00511028 -0.00118871 0.5 -0.00016231 -0.00502273 0.00986645 -0.00261541 0.0148104 0.00380153 
511 2 1.0842 2.23794 0.239076 0 0 0 -0.00594972 0.0238004 -0.0179839 0.0058698 -0.0233522 0.020265 0.0265998 -0.000180658 -0.00312481 0.5 -0.00437357 -0.0341082 -0.0911443 0.0170016 0.0518571 -0.034824 
911 2 0.491267 0.567509 0.724265 1 0 0 0.00421533 -0.00360529 -0.042834 -0.0200537 -0.0187272 0.0200957 0.00426202 0.00383545 -0.00702038 0.5 0.00557539 -0.0344009 -0.00484603 -0.00434901 0.00113246 -0.01506 
668 2 0.00130624 3.84759 1.92957 0 0 0 -0.000595191 -0.0490868 0.00342404 0.00747653 0.0472051 -0.00190738 0.00173271 0.00921369 0.00139072 0.5 -0.0226055 -0.0736973 -0.0197259 0.0231351 0.000254827 -0.00547848 
90 1 2.94587 4.58001 0.396988 0 0 1 -0.00979495 0.00497747 0.0379154 0.00685626 -0.0110997 -0.0307741 0.0102358 -0.00887693 0.003124 0.5 0.00901263 0.0362983 0.0149632 0.0228083 0.0190979 0.0221616 
734 2 4.13575 3.23785 0.353154 0 1 1 -0.000306862 0.0150984 0.035943 0.0049834 -0.0159695 -0.0287432 0.0131566 0.00105531 -0.00246735 0.5 -0.000775054 -0.00717379 -0.000964481 -0.00840519 0.00207365 -0.00263475 
672 2 0.0771491 2.00845 1.70394 0 0 0 -0.0132422 -0.0415249 -0.0251095 0.00424143 0.0465256 0.0276703 0.015203 0.000452701 0.0060601 0.5 -0.0738329 -0.088869 -0.0418933 0.0391944 0.0432928 -9.49869e-05 
759 2 4.95462 2.04212 0.942681 0 0 0 0.00629422 -0.00445661 0.0134051 -0.00493311 0.00273724 -0.0107922 0.0149421 0.00320259 -0.00198132 0.5 -0.00757038 -0.0430886 -0.00783566 -0.0166753 0.00251161 -0.0228366 
609 2 2.00038 4.76093 0.119806 0 0 1 -0.00642421 0.00412567 0.0267457 -0.00135831 -0.0201278 -0.00725787 0.0121972 -0.0122325 0.004648 0.5 -0.0711272 -0.252222 -0.0425391 0.0692403 0.0342429 -0.0463988 
868 2 2.87052 3.00148 0.0164235 0 0 1 -0.00179244 0.0128045 0.0189959 0.00334184 -0.0172587 -0.0134592 0.0131198 -0.00403369 0.00345896 0.5 -0.0111234 -0.0306703 0.00499061 0.0241689 0.00763704 -0.00144818 
21 1 1.84776 0.374402 2.45019 0 0 0 -0.00119832 -0.0310031 -0.0347113 -0.00389147 0.0293742 0.035209 0.00720023 -0.0109745 0.0087624 0.5 -0.00674278 -0.00041853 -0.00101274 0.0055703 0.00184637 -0.00576308 
682 2 2.72828 4.09522 2.75893 0 0 0 0.00256024 -0.0192886 0.0236639 -0.000573486 0.0175588 -0.0219548 0.00323181 -0.00281013 -0.00256396 0.5 -0.0242877 -0.0303366 -0.0205789 -0.00163448 0.0342523 0.0209236 
907 2 0.978307 4.64532 2.63187 1 0 0 0.00544803 -0.0344784 0.00133229 -0.00344246 0.0320895 0.00558578 -0.00027187 -0.00340157 0.0030949 0.5 -0.0426071 -0.0683442 -0.0515371 0.011199 0.0341022 -0.0216666 
144 1 1.67927 3.61858 2.81066 0 0 0 0.00755623 -0.0299385 0.002691 0.001807 0.0294863 -0.0179596 0.00283368 -0.00378526 -0.001128 0.5 0.0133489 -0.0116699 -0.0117798 0.0013256 0.0195151 -0.00556944 
675 2 2.82145 4.75083 3.53116 0 0 0 0.0180939 -0.0211516 0.0241919 -0.0166497 0.0192989 -0.0220291 -0.00189008 -0.001907 -0.00578311 0.5 -0.000877546 -0.00189101 -0.0029116 0.000492743 0.0042278 0.00549682 
502 2 4.38542 1.32676 3.26917 0 0 0 0.00796612 -0.028977 0.000489152 -0.00843501 0.0294684 -0.000966979 0.00626848 0.00190538 -0.00299651 0.5 -0.029468 -0.0274575 -0.0226841 -0.0186874 0.0134736 0.0244926 
27 1 2.60355 0.314513 3.2194 0 0 0 0.00991283 -0.0246332 -0.015042 -0.00772749 0.0257239 0.0170201 0.000725083 -0.00273515 0.000219089 0.5 -0.0347842 -0.0293186 -0.0513292 0.0109948 0.0233702 0.00679254 
965 2 1.34644 3.67608 3.8031 1 0 0 0.0179453 -0.0283615 -0.0087976 -0.0216062 0.0235819 0.0124344 -0.00595052 0.00282109 -0.00958839 0.5 -0.014999 -0.03076 -0.0478388 0.0179368 -0.00526904 0.0193441 
61 1 1.65926 0.464651 3.53406 0 0 0 0.00601426 -0.0267276 -0.0324532 -0.00739503 0.0237386 0.0250177 -0.0070527 -0.00464348 0.00266318 0.5 -0.0310671 -0.000926866 -0.0044436 0.00263739 0.0169419 -0.0021172 
680 2 1.19291 2.79732 3.35089 0 0 0 -0.00435721 -0.02533 -0.0069738 0.00193474 0.0233882 0.00523736 -0.00020782 0.0042015 -0.00211671 0.5 -0.00122886 -0.010409 -0.0186351 0.00165337 0.00797071 0.00380242 
251 1 4.70313 3.05214 3.8801 0 0 0 0.0190764 -0.0347465 0.0285345 -0.0176417 0.0378103 -0.0305661 0.00755114 0.00451702 -0.00933838 0.5 -0.0293767 -0.0157563 -4.50567e-05 -0.0282552 0.0122491 0.0194088 
517 2 4.00916 2.9089 2.20671 0 0 0 -0.00327878 -0.0264742 0.019389 0.00645603 0.0244283 -0.0164863 0.00399843 0.00843546 -0.00897463 0.5 0.000394963 -0.0013463 0.00027951 -0.00201343 0.00141733 0.00172399 
6 1 3.41872 1.7898 2.72435 0 0 0 0.00685489 -0.0167991 0.0148582 -0.00878272 0.0148629 -0.0129104 0.00998419 -0.00360344 0.00203042 0.5 -0.0427144 -0.00486013 0.00130795 -0.000521096 0.0184208 0.00131863 
519 2 4.43024 3.62901 3.01202 0 0 0 0.0050792 -0.0279036 0.033043 -0.00457156 0.0287475 -0.0312732 0.00578801 0.00393153 -0.00315421 0.5 -0.00474355 0.00877189 0.00301172 -0.00684923 0.0053386 -0.000152335 
509 2 1.92629 1.52478 3.64192 0 0 0 0.0206357 -0.0118654 -0.0313673 -0.023962 0.012479 0.0294735 -0.00679146 0.00950721 0.00432293 0.5 0.00651438 -0.0055124 -0.0412609 -0.00378989 0.00943445 0.0115146 
142 1 1.03856 1.95951 2.18101 0 0 0 -0.00336804 -0.030403 -0.017963 -0.00054851 0.0278095 0.014112 0.0101494 -0.00105949 0.006052 0.5 -1.27277e-05 -0.0108317 -0.00490995 0.00699953 -0.000594934 0.00932692 
941 2 0.19969 2.28517 2.7845 1 0 0 -0.0098383 -0.0471774 -0.0198502 0.00363932 0.0452951 0.0181215 0.00290861 -0.00178751 0.00217902 0.5 -0.00713575 -0.0133333 -0.0291419 -0.00199517 0.00416195 0.00719742 
919 2 0.646202 4.33641 3.53178 1 0 0 0.00982326 -0.0332951 8.40641e-05 -0.0131003 0.0288596 0.0039355 -0.00324384 0.00707455 -0.00521471 0.5 -0.0253916 -0.0486956 -0.0204854 0.0271026 0.00229168 0.0136969 
95 1 3.53502 3.79152 2.25206 0 0 1 0.00592161 -0.0222094 0.0307403 -0.00446066 0.0192587 -0.0290524 0.00669701 -1.97595e-05 -0.00396602 0.5 -0.0305298 -0.0143576 -0.0238741 -0.0011057 0.0126835 -0.00974732 
458 1 1.55393 4.77198 3.85052 1 0 0 0.00159491 -0.037906 0.0217582 -0.00138779 0.0507562 -0.0168091 -0.00411263 -0.00166581 0.00759812 0.5 0.00277225 0.00474964 -0.00126575 -0.000380313 0.00203655 -0.00229868 
41 1 1.14091 0.976093 2.03074 0 0 0 0.00187481 -0.027347 -0.0335246 -0.00651717 0.0248595 0.0293411 0.0119502 0.00036216 0.00690515 0.5 -0.0112793 -0.00913194 -0.00680226 0.00723146 0.0159491 -0.0166964 
814 2 0.267602 1.24427 3.42019 1 0 0 0.00718168 -0.0267117 -0.0283671 -0.00738976 0.0217889 0.0242825 0.000547913 -0.00388 0.0106163 0.5 -0.0287333 -0.0333728 -0.0261185 0.0167533 0.00580371 0.032566 
130 1 1.71039 2.66369 2.5057 0 0 0 -0.0087466 -0.0259489 -0.00957537 0.00546356 0.020777 0.00787674 0.00628705 -0.00383983 -0.000542308 0.5 -0.0210114 -0.043422 -0.0299296 0.0135859 0.0175427 0.0143533 
12 1 2.69756 1.10571 2.61511 0 0 0 0.00976307 -0.0167402 -0.00473976 -0.011097 0.0150665 0.00245441 0.00809185 -0.00766124 0.00213923 0.5 -0.0358748 -0.0483532 -0.036815 0.00915427 0.018845 -0.00451758 
512 2 3.17758 2.03478 3.78388 0 0 0 0.0159219 -0.00534896 0.0078671 -0.0170902 0.00290431 -0.0110849 0.00686492 -0.00353759 0.00279298 0.5 -0.00434239 -0.0126076 -0.00572631 -0.00115083 0.004348 0.012266 
151 1 2.47769 3.31562 3.33288 0 0 0 0.0016605 -0.0255804 0.0147498 -0.00252069 0.0227852 -0.0158116 0.00100407 -0.00241466 0.00294215 0.5 0.010208 -0.0503874 -0.033938 -0.00796738 0.0252891 0.019732 
667 2 0.285139 1.34343 2.42425 0 0 0 0.00105985 -0.0406029 -0.029574 -0.00586335 0.0401713 0.0259187 0.00547215 0.000620174 0.00900951 0.5 -0.010969 -0.0397597 -0.0299174 0.00599662 0.00392072 0.0109629 
38 1 3.78305 0.744694 3.8759 0 0 0 0.0138485 -0.011725 -0.00483068 -0.0149959 0.0109836 0.00452604 -0.00628748 -0.000518451 -0.00386733 0.5 -0.019706 -0.00899605 -0.0510734 -0.0334813 0.0196361 0.0452935 
936 2 0.325192 3.38673 3.51001 1 0 0 -0.00748288 -0.0269196 -0.00592791 0.00569844 0.0228618 0.0038689 0.000974353 -0.00580537 -0.00468534 0.5 -0.00205687 -0.0429063 -0.0160998 -0.00106061 0.0143061 0.0281671 
531 2 4.80037 0.827282 2.48094 0 0 0 0.00106528 -0.0326105 -0.00151697 -0.00263382 0.0284261 0.00255481 0.00631673 0.00213791 -0.0039572 0.5 -0.0111008 -0.00718032 -0.028089 -0.0122643 -0.0181756 -0.0158149 
527 2 4.01956 4.32835 3.59704 0 0 0 0.020299 -0.0237925 0.0388213 -0.0208601 0.0220421 -0.0350049 -0.000987477 0.000445731 -0.00119637 0.5 -0.0575772 -0.0223043 -0.00899396 -0.0272342 0.0227754 0.0187206 
383 1 4.36127 4.35453 2.26996 0 0 1 0.00268314 -0.0175515 0.0340535 -0.0026233 0.0166242 -0.0328058 0.00555128 0.00188711 -0.000413467 0.5 -0.0267492 -0.00286612 0.0121 0.000639821 -0.00178263 -0.0112971 
992 2 0.688996 0.455056 3.87228 1 1 0 0.0137009 -0.0237054 -0.03288 -0.0144297 0.0175426 0.0286333 -0.00657239 0.00455088 0.00391421 0.5 -0.024413 -0.0595531 -0.00733015 0.0173629 -0.00706912 0.0275888 
521 2 4.92709 4.53843 3.2302 0 0 0 0.0176549 -0.0192484 0.0361538 -0.0192614 0.0187162 -0.0348256 -0.000756743 0.00636879 0.00293707 0.5 -0.0197069 -0.00777977 -0.0176904 -0.0105659 0.00103612 0.0277179 
136 1 1.88504 1.68814 2.63907 0 0 0 0.00232218 -0.0262266 -0.0260025 -0.00626665 0.0206222 0.020454 -0.00200977 0.00517301 0.00605666 0.5 -0.0387128 -0.044735 -0.042032 0.0256284 0.0091218 0.00538354 
540 2 4.50729 0.194699 3.41684 0 0 0 0.00822869 -0.028172 -0.00281496 -0.00911704 0.0261952 0.0027906 -0.00304954 0.00245775 -0.0063191 0.5 0.0100145 0.00707992 0.00435875 -0.00841001 -0.0041713 0.00606036 
510 2 3.85049 2.58133 3.15834 0 0 0 0.00947052 -0.0220785 0.0221909 -0.0111193 0.020338 -0.0209382 0.00283889 0.00292473 -0.00100184 0.5 0.0154169 0.0131553 -0.00495106 -0.00708261 0.00175392 0.0081409 
19 1 4.36259 1.85175 2.39989 0 0 0 0.00681432 -0.00869745 0.016267 -0.00925947 0.0112994 -0.0148842 0.0119877 0.0013757 -0.00471419 0.5 -0.0547303 -0.00159047 -0.0252427 0.00212936 0.0256018 0.0038239 
543 2 1.06934 1.80238 3.20615 0 0 0 0.00880984 -0.0250073 -0.0168981 -0.0112985 0.0231754 0.0125348 0.00410182 0.00602256 0.00579006 0.5 -0.00798674 -0.00832665 -0.0042327 -0.00754953 0.0136582 0.00501589 
773 2 4.78372 2.2436 3.29672 0 0 0 0.00776938 -0.0294441 0.019173 -0.00866019 0.0298526 -0.0176035 0.00471734 0.00442355 -0.00369081 0.5 -0.0217626 -0.0500325 -0.0813889 -0.0248613 0.0353174 0.067456 
555 2 2.23221 2.52116 3.88836 0 0 0 0.0139669 -0.0267779 0.0184945 -0.01791 0.0239407 -0.0212064 -0.00095427 0.000145812 0.00155565 0.5 -0.00589517 -0.00177895 0.00232176 -0.00657468 0.00866535 0.0153399 
429 1 0.313121 2.42032 3.76881 1 0 0 -0.0114136 -0.0305291 -0.0219484 0.00657426 0.0268558 0.0201422 0.000372747 -0.000379728 0.00623838 0.5 0.00123241 -0.0646491 -0.0398036 0.012651 -0.00831264 0.0397153 
316 1 0.887497 0.53282 2.89102 1 0 0 0.00751606 -0.0348095 -0.0356309 -0.011105 0.03202 0.0312994 -0.00172979 -0.00162881 0.00629249 0.5 0.00303123 -0.000949162 0.0125504 0.00291128 0.00115263 -0.00144509 
503 2 3.61367 0.782336 2.88829 0 0 0 0.00658464 -0.0235999 -0.00327183 -0.00803184 0.021625 0.00334343 0.00316562 0.00237982 -0.000400002 0.5 -0.00356594 0.00822982 -0.0290096 -0.00252712 -0.00197949 0.00528007 
896 2 0.696747 3.68579 2.6297 1 0 0 0.00783045 -0.0351743 -0.00172206 -0.00173223 0.0315765 0.00316746 -0.00171835 -0.000372653 -0.00116201 0.5 0.00323813 -0.0341395 -0.0305072 -0.00122991 0.00535341 -0.000552296 
690 2 1.93603 4.68461 2.91687 0 0 0 -0.000561476 -0.0224585 0.0198792 0.00242661 0.0192286 -0.0132983 0.00537914 -0.00782723 0.00631966 0.5 -0.0216898 -0.00657265 -0.000456329 0.0131499 0.00679106 -0.00185978 
641 2 3.4569 3.51282 3.20978 0 0 0 0.00384988 -0.0221145 0.0305497 -0.00332108 0.0212497 -0.0284362 -0.000696664 0.00102376 0.000594231 0.5 0.0199705 0.0135755 0.000999446 -0.00837934 0.00325337 0.0108254 
528 2 3.33615 4.81505 2.42353 0 0 0 0.0107323 -0.0212122 0.0350038 -0.00758973 0.01749 -0.0350116 0.00786902 0.00254053 -0.00370996 0.5 -0.00373926 -0.0119191 -0.00989132 -0.00941466 0.00299827 0.00483963 
225 1 2.66786 2.39433 2.99219 0 0 1 -0.000213471 -0.0241044 0.0106054 -0.00360612 0.020941 -0.012136 6.34503e-05 0.00512766 0.00658488 0.5 -0.00714934 -0.0245394 0.011705 0.0146239 0.00138135 -0.00730237 
119 1 0.621973 2.86165 2.06828 0 0 0 -0.0110352 -0.0322395 -0.00352363 0.00776282 0.0304557 0.00380939 0.00934873 0.00231728 0.00238228 0.5 0.00168261 -0.0292073 -0.0530256 0.0044109 0.0163107 -0.01202 
200 1 2.45208 0.216224 4.20296 0 1 0 0.0226136 -0.0127468 -0.0119018 -0.0220927 0.0107961 0.0136289 -0.0114095 -0.00522728 0.00415711 0.5 -0.022154 -0.0169403 -0.0383978 -0.00418033 0.0156442 0.0104338 
114 1 4.69992 1.01403 4.17051 0 0 0 0.0139533 -0.0191222 0.00161648 -0.0161067 0.0205118 -0.000940098 -0.00109202 -0.000207994 -0.00459965 0.5 -0.0121829 0.00586599 -0.00472248 0.00127363 -0.0107714 -0.00133658 
820 2 1.30804 2.3039 4.21302 1 0 0 0.00444869 -0.0166237 -0.00316153 -0.00758152 0.0144301 0.00126618 -0.00682599 -0.00618372 0.00361358 0.5 -0.0110318 -0.00397511 -0.0162603 0.00416389 0.0143046 0.0172451 
47 1 4.64052 1.59149 5.43088 0 0 0 0.0280097 -0.0181118 0.0076849 -0.0281219 0.0170078 -0.00597716 0.00464984 0.00496192 0.00126824 0.5 -0.0199687 -0.0203521 -0.0103156 -0.0119344 -0.0115264 0.0130671 
824 2 1.64355 3.82676 5.77849 1 0 0 0.0120822 0.011397 0.0232117 -0.0147433 -0.0167094 -0.0216303 -0.0175115 -0.00203199 -0.00892454 0.5 -0.0113427 -0.00682049 -0.0290467 -0.00974179 0.010102 0.00878902 
172 1 3.43309 0.33544 4.71906 0 1 0 0.0174453 0.00479767 0.00354032 -0.0161711 -0.00483966 -0.00296913 -0.00917383 -0.00256546 -0.00106302 0.5 -0.0252791 -0.0253304 -0.0755239 -0.0223776 0.0201709 0.0335089 
718 2 0.200145 2.03249 5.51468 0 1 0 0.00445243 0.0110232 -0.00466447 -0.00494038 -0.0140735 0.0063941 -0.00826737 4.47739e-05 0.00243438 0.5 -0.0304282 0.00644951 -0.0145892 0.0175251 -0.0225343 0.0542014 
505 2 0.485061 3.4803 5.82412 0 0 -1 0.00249364 0.0430466 0.0138335 -0.0110149 -0.048078 -0.00464963 -0.0019809 -0.00768623 0.00915959 0.5 -0.009203 -0.0838185 -0.0398417 -0.000115282 -0.00259498 0.0610122 
524 2 3.97199 2.72963 5.6812 0 0 0 0.0356097 0.00582673 0.041643 -0.0253843 -0.00128412 -0.0344952 -0.00469572 0.0175251 0.008219 0.5 0.00060309 0.00904237 0.0054286 -0.00434475 -0.00610608 0.00532213 
839 2 0.57387 1.63134 4.32514 1 0 0 0.00933243 -0.0256105 -0.0246594 -0.0116046 0.0226971 0.0222633 -0.00533828 -0.00152582 0.0121978 0.5 -0.00685767 -0.0548939 -0.0329998 0.0202636 0.000145434 0.0499365 
937 2 2.43678 3.40036 4.32885 1 0 0 0.0122051 -0.0232466 0.014672 -0.0118221 0.0183363 -0.0154086 -0.00542923 -0.00609093 0.000310539 0.5 -0.0368807 -0.00925773 -0.0382126 -0.0106922 0.0248781 0.0247437 
811 2 2.6 3.94921 5.5119 1 0 0 0.0145282 -0.00664364 0.0241932 -0.0171413 0.00353543 -0.0208669 -0.00597673 -0.00802042 -0.00445585 0.5 -0.0149347 -0.0221204 -0.00807322 -0.0156319 0.00397844 0.016754 
827 2 1.5175 3.19233 4.66295 1 0 0 0.00517399 -0.0167271 -0.000559582 -0.00312708 0.0121289 0.00388661 -0.0118818 -0.0106303 -0.00894798 0.5 -0.0338748 -0.0171972 -0.0570127 -0.00917027 0.0166846 0.0333788 
149 1 4.04735 3.9381 4.60087 0 0 0 0.0156409 -0.0101054 0.0304415 -0.0163007 0.00960489 -0.0274461 0.00146447 0.00251318 0.0031182 0.5 -0.00991238 -0.0102979 0.0113082 0.0199393 -0.00212774 0.015596 
925 2 0.614842 3.60083 4.52751 1 0 0 0.0142386 -0.000264021 -0.0113633 -0.0113357 -0.00274545 0.0160026 -0.0114514 -1.4163e-05 -0.00589468 0.5 -0.0198349 -0.0139898 -0.00727729 0.00349047 -0.00771443 0.00947967 
168 1 3.32704 4.60694 5.3116 0 0 0 0.0171113 -0.00684932 0.0350391 -0.0208217 0.00471423 -0.0326099 -0.00346172 -0.00235943 0.00571801 0.5 -0.0329703 -0.0223617 -0.0304182 -0.00570387 -0.00874052 0.0163481 
928 2 1.57076 4.40887 4.96814 1 0 0 0.00632488 0.000568881 0.0163123 -0.00381143 -0.00253351 -0.0126145 -0.0101568 -0.00199356 -0.01225 0.5 -0.0355868 -0.0278167 -0.0247592 -0.0208531 0.0208718 0.0156617 
148 1 3.93269 3.73691 5.72019 0 0 0 0.0143066 0.00597053 0.0438639 -0.0140652 -0.00193033 -0.0393193 -0.00943416 -0.00675111 0.0113931 0.5 0.00410207 0.0223807 0.0109188 0.0107008 0.00857409 0.010096 
914 2 4.68921 4.39048 5.22087 0 0 0 0.00919623 -0.0138325 0.04019 -0.0127179 0.0166587 -0.0368752 -0.00743978 -0.00586618 -0.00652856 0.5 0.0079831 0.00930014 0.0188988 -0.00326261 0.00372197 0.0139413 
23 1 2.87118 1.12445 4.0661 0 0 0 0.0127704 -0.0103159 -0.012452 -0.0150123 0.00848394 0.00920962 0.00103441 -0.00518079 -0.000610211 0.5 -0.0207436 -0.0212664 -0.0104935 -0.0166609 0.0044549 0.0103421 
594 2 2.04835 1.9642 4.80216 0 0 0 0.0144852 0.0123743 -0.000768593 -0.0167065 -0.00872866 0.000519349 0.00232783 -0.00659996 0.00754695 0.5 -0.00394236 -0.0281799 -0.00683122 0.00948693 -0.00359417 0.0130074 
539 2 3.77419 1.03313 5.4603 0 0 0 0.0205578 0.00996562 0.0156498 -0.0239227 -0.00576429 -0.0141173 -0.0041222 0.00646075 -0.00415719 0.5 -0.00254297 -0.075693 -0.0406743 -0.0334225 -0.0247185 0.0696665 
730 2 0.45649 1.11361 5.17259 0 1 0 0.00894924 0.00611381 -0.00531214 -0.00585842 -0.0081401 0.00333209 -0.00471805 0.00348407 0.00815515 0.5 0.0243534 0.0026798 -0.0189692 -0.0108224 -0.00642895 0.0379259 
689 2 3.51478 0.0963831 5.69552 0 1 0 0.00812712 0.0108588 0.000623473 -0.00767802 -0.007477 0.000512576 -0.0047261 -0.00889136 -0.00792754 0.5 -0.029227 -0.101025 -0.0779098 -0.0143989 0.00463926 0.0701597 
450 1 0.604446 4.80617 4.46983 1 0 0 0.031411 -0.00942186 -0.00782835 -0.063541 -0.023277 0.0142029 -0.0261257 0.00447318 -0.00981399 0.5 -0.017299 -0.0483813 -0.0721054 -0.00549259 -0.00717652 0.0510589 
549 2 4.49874 0.504299 5.0106 0 0 0 0.00383981 -0.00869831 0.00614151 -0.00807305 0.0121463 -0.00467565 -0.00241981 0.00539169 -0.0106146 0.5 0.02767 0.032859 0.0192698 -0.0157969 -0.0148188 0.0143453 
591 2 1.43519 1.13167 4.42025 0 0 0 0.020693 -0.00641764 -0.0290844 -0.0229145 0.00413858 0.0264704 -0.00676928 0.0015373 0.00545028 0.5 -0.0118486 -0.0275506 -0.0296792 0.00629194 0.00581709 0.0213794 
243 1 1.20142 1.82799 5.35196 0 1 0 0.0022714 0.017883 -0.018695 -0.00108604 -0.0179034 0.0229782 -0.00131351 -0.00228278 0.00554389 0.5 -0.0131898 -0.0190118 -0.0110968 -0.000335404 -0.000348266 0.0182786 
646 2 3.72912 3.13026 4.0927 0 0 0 0.0210143 -0.0124637 0.0292373 -0.0188257 0.012121 -0.027814 -0.000719584 0.00325712 -0.00309303 0.5 -0.0128792 -0.0393 -0.023675 0.00682896 0.00620465 0.0274049 
374 1 0.576946 2.636 4.81154 1 0 0 0.00673272 0.00176451 -0.0108959 -0.00597256 -0.00472078 0.0136258 -0.00987417 -0.00671107 -0.00314313 0.5 -0.00960284 -0.01949 -0.0105091 -0.00748077 0.0123752 0.0144473 
418 1 0.65428 4.35296 5.36507 1 0 0 0.00365009 0.0423745 0.0150297 0.00575383 -0.0471212 0.00203386 -0.0171656 -0.00628248 -0.0127495 0.5 -0.0223345 -0.0605388 -0.0751498 -0.0174539 0.0130788 0.0425109 
190 1 2.16773 2.43106 6.01186 0 1 0 -0.0100352 0.0207518 0.0263152 0.00777695 -0.0211639 -0.0241946 -0.0035304 -0.0118874 -0.00455105 0.5 -0.0031776 -0.015318 -0.0317486 -0.000191408 0.00667611 0.0316106 
507 2 3.66689 1.48143 4.57177 0 0 0 -0.000161932 -0.0152096 0.00648092 -0.00465449 0.0148436 -0.00648909 0.00281602 -0.00255248 -0.00179472 0.5 -0.0264321 -0.0230251 -0.0494788 -0.0318101 0.00812406 0.0733568 
155 1 4.86196 3.41968 4.86472 0 0 0 0.0165926 -0.0117369 0.0226283 -0.0184179 0.0104823 -0.0177818 -0.00214115 0.00197649 -0.00128436 0.5 -0.0264808 -0.048845 -0.0699773 0.00448843 -0.0125794 0.060361 
573 2 2.48938 2.83052 5.15008 0 0 0 0.0176679 -0.00421397 0.0270043 -0.0182075 0.00524425 -0.0236998 -0.00871343 -0.0114436 -0.006089 0.5 -0.00635986 -0.0327388 -0.0335215 -0.0160261 0.0171185 0.0299179 
678 2 3.20499 3.98267 4.06283 0 0 0 0.0138174 -0.0172376 0.0324107 -0.0145856 0.0151522 -0.029427 -0.000914567 -0.00423139 0.000488258 0.5 -0.0536791 -0.0295366 -0.00525548 -0.00736883 0.0377093 0.0237458 
513 2 3.45562 2.44074 4.76333 0 0 0 0.0133359 -0.0151704 0.0233375 -0.0163064 0.0150374 -0.0238829 0.00464289 0.00131371 -0.00973976 0.5 -0.00549682 0.00711532 -0.0403605 -0.0175623 0.0137128 0.0550077 
180 1 2.37942 4.44856 4.38121 0 0 0 0.0116715 -0.0143499 0.0226529 -0.00925545 0.0169723 -0.0185322 -0.0123702 -0.00423105 0.000990479 0.5 -0.0207978 -0.0045568 -0.0165593 0.00441116 0.0203182 -0.00024044 
154 1 3.30264 3.4129 5.01267 0 0 0 0.0251264 -0.0138383 0.042844 -0.024025 0.0134422 -0.0368499 -0.00578533 -0.00491987 0.00234145 0.5 -0.00442581 0.0149134 0.00937077 -0.00949502 0.00717942 0.0159185 
740 2 1.28035 2.8045 5.55364 0 1 0 -0.0131222 0.013461 0.00774624 0.0130721 -0.0137135 -0.00392342 -0.0115472 -0.010581 0.00409472 0.5 -0.00214341 -0.02351 -0.0408368 -0.00486972 0.0106149 0.0263918 
657 2 4.08901 4.7213 5.95112 0 0 0 0.0148121 0.0122981 0.0333943 -0.0186338 -0.0063467 -0.0322084 -0.0169868 -0.00361399 -0.00299076 0.5 -0.0237499 -0.0197296 -0.019728 -0.00431075 -0.0249773 0.0263646 