ITEM: TIMESTEP
186500
ITEM: NUMBER OF ATOMS
1000
ITEM: BOX BOUNDS xy xz yz pp pp pp
0.0000000000000000e+00 1.0000000000000000e+01 0.0000000000000000e+00
0.0000000000000000e+00 1.0000000000000000e+01 0.0000000000000000e+00
0.0000000000000000e+00 1.0000000000000000e+01 0.0000000000000000e+00
ITEM: ATOMS id type x y z ix iy iz vx vy vz fx fy fz omegax omegay omegaz radius c_2[1] c_2[2] c_2[3] c_2[4] c_2[5] c_2[6] 
120 1 3.15852 1.54146 0.0722925 0 1 0 -1.2428e-08 3.30841e-08 2.22715e-08 1.12819e-08 -2.8372e-08 -1.95313e-08 1.98435e-08 2.37544e-09 -1.20817e-08 0.5 -1.66498e-08 -8.72156e-08 -7.95834e-09 -9.63395e-09 -4.05615e-09 -2.07816e-08 
525 2 2.11627 1.23431 1.69988 0 0 0 -2.81741e-08 -7.66252e-08 -5.50307e-08 2.33145e-08 6.52934e-08 4.84922e-08 -8.08739e-09 4.31525e-09 2.3229e-08 0.5 1.17419e-09 -5.35587e-09 3.12011e-09 6.70526e-09 3.41682e-09 -2.18307e-09 
371 1 4.95931 3.68326 1.58374 0 0 1 1.71292e-08 -3.20953e-08 4.87611e-08 -1.46959e-08 2.85955e-08 -4.28199e-08 3.89619e-09 -2.46457e-09 2.45292e-09 0.5 -1.01801e-08 -4.48037e-08 3.00245e-08 -5.26155e-09 -5.23936e-09 5.87502e-09 
18 1 1.98117 2.69195 0.532518 0 0 0 -1.40183e-08 -1.046e-09 5.25868e-08 1.15339e-08 7.63688e-10 -4.52572e-08 3.28182e-08 -1.11824e-08 1.03247e-08 0.5 -2.5657e-08 -6.42444e-08 -3.79647e-08 5.15661e-08 2.44459e-08 -2.98723e-08 
868 2 2.87004 3.00634 0.028912 0 0 1 8.2687e-09 -6.61563e-09 4.62975e-08 -6.43229e-09 5.62357e-09 -4.035e-08 2.79828e-08 -5.23417e-09 1.1594e-08 0.5 -4.16074e-08 -6.64916e-08 -1.44032e-08 4.93712e-08 -7.91202e-10 2.78869e-09 
25 1 1.41548 0.708705 1.0832 0 0 0 -1.16121e-08 -2.55082e-08 -5.66524e-08 9.83091e-09 2.1065e-08 5.02492e-08 2.34795e-08 -6.12158e-09 1.36568e-08 0.5 -2.06027e-08 -1.40974e-07 -7.77042e-08 4.99944e-08 3.94377e-08 -6.14952e-08 
378 1 4.61919 2.40719 0.0725815 0 0 1 2.65988e-09 2.0583e-08 3.66043e-08 -2.02564e-09 -1.70142e-08 -3.22879e-08 3.15163e-08 8.12843e-09 -6.00004e-09 0.5 -1.76157e-08 -4.65281e-08 -2.64579e-08 -5.96758e-09 -6.26381e-09 -3.68259e-08 
8 1 3.44143 2.06796 1.74253 0 0 0 -9.70944e-10 -3.61226e-08 1.53251e-08 4.88786e-10 3.14083e-08 -1.37581e-08 2.64811e-08 -7.2217e-09 5.12543e-09 0.5 8.1579e-09 1.49196e-09 1.16304e-08 1.08279e-08 6.80228e-10 8.87518e-09 
629 2 4.07713 2.6156 1.19812 0 0 1 9.40848e-09 -1.83308e-08 4.5087e-08 -8.39405e-09 1.63065e-08 -3.914e-08 3.03873e-08 -7.60618e-09 6.62367e-10 0.5 -4.84101e-08 -1.35356e-08 -4.33298e-08 6.41609e-09 -3.05781e-08 -1.63695e-08 
5 1 2.34651 3.9005 1.05345 0 0 0 -6.1251e-09 -6.03023e-08 6.06406e-08 5.65066e-09 5.21859e-08 -5.22713e-08 1.91553e-09 4.27931e-09 1.24227e-08 0.5 -4.42475e-09 -7.10577e-09 -1.03292e-08 8.52461e-09 2.76645e-09 -2.34403e-09 
650 2 0.459129 3.43666 1.12967 0 0 0 -3.57378e-08 -6.03985e-08 8.35056e-09 3.06493e-08 5.10632e-08 -5.84746e-09 3.48966e-08 4.01303e-09 4.58243e-10 0.5 -4.92494e-08 -5.62732e-08 -5.96057e-08 3.95429e-08 4.1415e-08 -2.6785e-08 
14 1 3.29515 3.13364 1.54473 0 0 0 2.66271e-09 -3.18663e-08 5.01216e-08 -2.36823e-09 2.83075e-08 -4.34976e-08 9.31057e-09 6.14877e-09 3.91059e-09 0.5 -3.76681e-09 -1.32495e-08 -2.42346e-08 1.87855e-08 -2.52341e-09 -1.26123e-08 
264 1 3.99643 3.86789 1.37953 0 0 0 1.64256e-08 -3.65013e-08 4.9059e-08 -1.41161e-08 3.23517e-08 -4.29558e-08 1.43501e-08 3.33545e-09 2.05836e-09 0.5 -1.31455e-08 -4.01714e-10 -2.58521e-08 1.63275e-08 2.53523e-09 -4.13554e-09 
223 1 0.747634 2.47805 1.14565 0 0 1 -3.60178e-08 -5.95552e-08 8.542e-09 3.05498e-08 5.02213e-08 -6.39438e-09 3.56522e-08 -1.40867e-08 5.27987e-09 0.5 -2.56497e-08 -6.24215e-08 -1.48449e-07 2.07084e-08 5.94172e-08 -3.6886e-08 
364 1 4.4227 4.23693 0.53984 0 0 1 4.35856e-09 1.48074e-08 6.53702e-08 -2.6391e-09 -1.24071e-08 -5.68731e-08 1.84299e-08 -1.76449e-09 8.74509e-09 0.5 7.74411e-10 5.62325e-09 7.23729e-11 2.04053e-09 1.06144e-08 -8.52062e-09 
107 1 1.66076 1.61825 0.747451 0 0 1 -2.6963e-08 -1.07556e-08 -2.70132e-08 2.27021e-08 8.44481e-09 2.46552e-08 3.60788e-08 -2.60257e-09 3.94314e-09 0.5 2.61012e-08 -3.24355e-08 -3.19364e-08 -1.84585e-09 3.37177e-10 -2.06125e-08 
529 2 2.67265 2.1996 1.06195 0 0 0 8.16126e-10 -2.07079e-08 1.45448e-08 -1.45331e-09 1.7592e-08 -1.23458e-08 3.27858e-08 2.95889e-10 8.55077e-09 0.5 -9.75581e-09 -2.29112e-08 -2.70298e-08 1.65724e-08 -8.72698e-09 5.38389e-09 
515 2 4.38643 0.435908 1.64385 0 0 0 3.96814e-09 -3.81182e-08 -2.31093e-08 -3.23995e-09 3.32697e-08 1.91082e-08 1.97979e-08 -1.44739e-09 4.11701e-09 0.5 -8.42536e-09 -2.15139e-08 -4.31403e-08 -3.7954e-08 4.18844e-09 8.77276e-09 
244 1 4.11373 0.570462 0.682724 0 1 1 4.75922e-09 9.22761e-09 -1.5338e-08 -3.92114e-09 -7.22867e-09 1.24752e-08 2.87221e-08 8.68298e-09 1.3045e-10 0.5 -1.49236e-08 -1.31077e-08 -4.07916e-08 -3.2942e-09 9.55322e-09 5.93821e-09 
20 1 2.90179 0.570818 1.78382 0 0 0 2.30946e-09 -3.45578e-08 -2.96713e-08 -2.13105e-09 2.97881e-08 2.52568e-08 1.30275e-08 -8.61248e-09 6.73371e-09 0.5 -2.45178e-08 -5.5597e-08 -8.12872e-08 1.79159e-08 3.68072e-08 -4.72294e-08 
280 1 4.09077 1.582 1.14626 0 0 0 4.56833e-09 -1.16799e-08 2.20765e-09 -4.2357e-09 1.05596e-08 -2.69097e-09 3.03546e-08 -3.1854e-09 4.19125e-10 0.5 -1.49979e-08 -1.94579e-08 -5.57552e-08 3.88249e-09 3.26902e-08 1.13089e-08 
620 2 1.3946 4.37082 0.857654 0 0 1 -9.13538e-10 -3.98346e-08 4.56684e-08 2.20795e-09 3.42383e-08 -3.84142e-08 2.46993e-08 1.56276e-08 -1.19148e-08 0.5 -1.31616e-08 -6.11351e-08 -9.04657e-08 4.10948e-10 -6.22854e-09 1.01462e-08 
1000 2 3.60332 2.39824 0.339819 0 1 1 2.45069e-08 8.76732e-09 3.35784e-08 -2.02062e-08 -7.46714e-09 -2.97045e-08 2.24607e-08 -1.27534e-09 -1.05324e-09 0.5 -3.62243e-08 -6.6112e-08 -3.93366e-08 -4.58506e-09 -3.11469e-08 -1.02797e-08 
103 1 3.28431 3.68319 0.698946 0 0 1 1.01083e-09 -1.78785e-08 6.05081e-08 -6.31901e-10 1.55508e-08 -5.28018e-08 1.84571e-08 1.23317e-09 9.47906e-09 0.5 -1.25632e-08 -1.03014e-08 -1.81332e-08 1.25149e-08 2.88668e-09 -3.26617e-09 
622 2 0.930663 4.80385 0.0848388 0 0 1 -1.65481e-09 -1.81888e-09 6.74006e-08 2.76336e-09 1.25439e-09 -5.72142e-08 3.311e-08 -3.19332e-09 -3.65523e-09 0.5 -6.90045e-10 6.32377e-09 -4.14758e-08 -4.12806e-09 -1.76129e-08 9.39205e-09 
506 2 0.74356 1.4513 1.18235 0 0 0 -3.92853e-08 -6.07446e-08 -4.91755e-08 3.34731e-08 5.13079e-08 4.38333e-08 2.83784e-08 -5.34181e-09 1.83632e-08 0.5 1.19699e-08 -8.26126e-08 -1.29808e-08 9.57395e-08 2.0569e-08 -5.1104e-08 
626 2 1.28815 3.41645 0.566227 0 0 1 -3.49872e-08 -2.33456e-08 1.08616e-08 2.98757e-08 2.01583e-08 -8.24533e-09 1.71157e-08 -1.15129e-08 4.74289e-09 0.5 -4.69299e-08 -6.83409e-08 -1.30104e-08 3.67901e-08 3.16987e-08 -2.02783e-08 
553 2 0.744043 0.0774005 1.56305 0 0 0 -6.75102e-09 -4.58014e-08 -7.35447e-08 5.40913e-09 3.88114e-08 6.53449e-08 2.58315e-09 -1.4972e-08 2.27649e-08 0.5 8.60288e-09 4.63368e-09 6.86923e-09 3.64052e-10 4.0429e-09 -1.11554e-08 
135 1 1.54769 3.20472 1.67709 0 0 0 1.40007e-08 -5.89775e-08 4.5259e-09 -1.2525e-08 5.04222e-08 -2.96697e-09 1.9945e-08 -2.81526e-08 -6.35333e-09 0.5 3.27924e-09 -1.26302e-07 -2.45316e-08 3.1335e-08 1.30569e-08 -8.18914e-10 
624 2 4.32461 4.92098 1.47156 0 0 1 2.35091e-08 -1.22443e-08 5.06573e-08 -1.90471e-08 1.19203e-08 -4.4573e-08 1.28768e-08 7.57799e-10 7.29063e-09 0.5 1.12121e-08 8.76574e-09 -3.30159e-08 1.05904e-08 -2.09456e-08 -2.5469e-08 
256 1 4.58719 1.36786 0.305 0 0 0 6.49015e-09 1.3878e-08 -3.17987e-09 -5.71439e-09 -1.10875e-08 1.9746e-09 3.04051e-08 6.03298e-09 -9.67864e-09 0.5 -8.06779e-09 -2.80113e-08 -3.98215e-08 -1.79926e-08 6.09009e-09 -3.94926e-08 
260 1 3.31854 0.0700552 1.02517 0 0 0 1.07699e-08 -1.55656e-08 -3.759e-08 -8.62903e-09 1.37966e-08 3.22645e-08 1.32639e-08 1.46688e-08 -8.74201e-10 0.5 -1.73052e-08 -5.24154e-08 -5.82431e-08 -1.49241e-09 1.00641e-08 -3.49912e-08 
616 2 3.19106 4.4806 1.50664 0 0 1 1.33636e-08 -4.97322e-08 4.81908e-08 -1.19005e-08 4.32902e-08 -4.23697e-08 -2.83088e-09 5.06242e-09 7.71034e-09 0.5 -2.29591e-08 -9.08166e-09 -1.02255e-08 1.38953e-08 2.67381e-09 -5.99966e-09 
106 1 1.74522 2.23558 1.52961 0 0 1 1.25693e-09 -6.2554e-08 1.08371e-08 -1.85135e-09 5.34043e-08 -8.19015e-09 2.59638e-08 -1.00347e-08 -6.26137e-09 0.5 1.43095e-08 -6.68695e-08 -2.11167e-08 1.93416e-08 2.11761e-08 -2.4635e-08 
157 1 1.3897 4.17879 1.83903 0 0 0 1.75029e-08 -6.44421e-08 4.09625e-08 -1.49006e-08 5.52398e-08 -3.43986e-08 2.45301e-08 4.48031e-09 2.95127e-09 0.5 -2.8173e-08 -9.50961e-08 -1.00702e-07 2.10115e-08 3.32399e-08 -1.89005e-08 
516 2 2.34691 0.89043 0.68796 0 0 0 -5.71365e-09 8.52462e-09 -1.69671e-08 4.51831e-09 -7.98202e-09 1.52558e-08 2.88549e-09 -1.02327e-08 -1.2154e-10 0.5 5.99369e-09 -2.53847e-08 -7.59347e-09 5.79781e-09 1.81842e-08 -2.46484e-08 
183 1 0.415258 4.58221 1.00381 0 0 0 2.83677e-09 -5.64044e-08 9.65849e-08 -8.69685e-10 4.8494e-08 -8.15029e-08 4.8496e-08 2.42325e-08 2.88244e-09 0.5 1.23128e-09 -3.20809e-09 5.2513e-09 4.13076e-09 -6.90712e-09 5.06078e-09 
625 2 0.399951 3.91216 0.210014 0 0 1 -1.44974e-08 2.60924e-09 4.57551e-08 1.35806e-08 -2.4588e-09 -3.77575e-08 4.69752e-08 -3.76274e-09 -1.9659e-08 0.5 -2.10837e-09 7.25901e-11 -9.3828e-09 -2.32002e-09 -3.73137e-09 8.68418e-09 
91 1 2.22066 4.71676 1.69645 0 0 1 1.60319e-08 -5.89119e-08 5.55294e-08 -1.40691e-08 5.09611e-08 -4.77324e-08 1.81885e-09 4.42028e-10 1.32003e-09 0.5 -2.60021e-08 -1.74828e-08 -7.32242e-09 -6.43834e-09 5.61436e-09 -5.69342e-09 
257 1 4.94043 2.69123 1.70827 0 0 0 1.00957e-08 -3.32487e-08 3.85657e-08 -8.86398e-09 2.96167e-08 -3.38689e-08 1.28392e-08 4.84074e-10 -4.31658e-09 0.5 -5.51405e-08 -3.85601e-08 -9.64593e-08 4.07909e-09 -3.15905e-08 -1.82679e-08 
4 1 3.72174 1.12777 1.95711 0 0 0 3.29896e-09 -4.1541e-08 -1.50816e-08 -2.90772e-09 3.60568e-08 1.21957e-08 1.99294e-08 -1.79998e-09 1.39245e-09 0.5 -8.91315e-09 -1.56662e-08 -6.94857e-08 -1.34999e-08 1.31348e-08 3.44466e-08 
609 2 1.99624 4.76004 0.136921 0 0 1 2.16864e-09 -2.18333e-08 6.73227e-08 -1.04705e-09 1.8724e-08 -5.80148e-08 1.03853e-08 -8.04842e-09 1.04394e-08 0.5 -1.11363e-07 -3.41735e-07 -4.88787e-08 9.51994e-08 2.58296e-08 -7.24285e-08 
117 1 3.12746 1.31374 1.15363 0 1 0 6.8276e-09 -2.03e-08 -1.12498e-08 -6.06367e-09 1.74905e-08 9.35259e-09 2.60635e-08 -1.5996e-09 1.15867e-09 0.5 3.86532e-09 -1.88324e-08 -2.17128e-09 9.36534e-09 2.90698e-09 1.40936e-08 
511 2 1.08079 2.25054 0.230642 0 0 0 -1.33583e-08 2.16216e-08 -3.43255e-09 1.12803e-08 -1.94893e-08 3.95994e-09 4.55886e-08 -9.59085e-09 -9.29948e-09 0.5 -1.91783e-08 -5.77422e-08 -1.34835e-07 1.21232e-08 5.69127e-08 -3.62128e-08 
911 2 0.492018 0.563612 0.697612 1 0 0 -9.13938e-09 -3.25985e-08 -6.91861e-08 7.70921e-09 2.678e-08 6.12792e-08 5.53849e-09 -9.12499e-09 1.66342e-09 0.5 1.46591e-08 -6.21588e-08 8.41438e-11 -6.31258e-09 5.27038e-09 -2.48412e-08 
668 2 0.00216516 3.81975 1.93315 0 0 0 -6.95846e-09 -1.08873e-07 4.62668e-08 5.2728e-09 9.26144e-08 -3.87432e-08 1.16335e-08 9.40032e-09 -9.41789e-09 0.5 -8.58645e-08 -2.1076e-07 -8.84913e-08 6.36231e-08 -2.31307e-08 -2.86785e-09 
90 1 2.93989 4.58015 0.420403 0 0 1 8.30014e-10 -1.38742e-08 7.37225e-08 4.72494e-10 1.23262e-08 -6.45541e-08 1.11184e-08 -3.13936e-09 1.262e-08 0.5 -2.38387e-08 2.79887e-08 -3.64623e-09 4.57213e-08 2.53601e-08 1.03975e-08 
734 2 4.13742 3.24508 0.37494 0 1 1 1.47869e-08 1.33573e-08 6.42128e-08 -1.24827e-08 -1.09957e-08 -5.61137e-08 2.86662e-08 3.71088e-09 3.91767e-09 0.5 -2.22848e-08 -1.59502e-08 -2.38048e-09 1.32597e-08 9.25978e-09 -1.17984e-08 
672 2 0.0675425 1.98557 1.68985 0 0 0 -4.67492e-08 -8.74074e-08 -3.09849e-08 3.99762e-08 7.44143e-08 2.81034e-08 2.99877e-08 -5.74165e-09 1.03421e-08 0.5 -1.03414e-07 -2.09522e-07 -7.92871e-08 8.12251e-08 5.74797e-08 7.0812e-10 
759 2 4.95866 2.03867 0.950748 0 0 0 9.28699e-09 -1.26786e-08 2.08151e-08 -8.44428e-09 1.17665e-08 -1.84759e-08 2.65256e-08 -3.85712e-09 -7.05136e-09 0.5 -6.32355e-09 -6.96157e-08 -3.19588e-08 -1.17948e-08 -5.24836e-09 -8.43282e-09 
21 1 1.84566 0.35675 2.43115 0 0 0 -1.37693e-08 -6.30288e-08 -5.25732e-08 1.20137e-08 5.42177e-08 4.59311e-08 1.24444e-08 -1.2786e-08 1.88047e-08 0.5 1.22415e-09 -9.63519e-10 -9.13957e-10 2.6694e-09 2.53759e-09 -6.75122e-09 
682 2 2.73058 4.0836 2.7725 0 0 0 1.20362e-08 -4.11037e-08 4.3644e-08 -1.05962e-08 3.56811e-08 -3.78722e-08 -4.72265e-10 1.69329e-09 4.77573e-09 0.5 -6.21025e-08 -4.03829e-08 -9.22646e-09 3.70397e-08 2.89764e-08 4.7557e-08 
907 2 0.982097 4.62503 2.63573 1 0 0 8.66785e-09 -8.98062e-08 5.06854e-08 -8.07081e-09 7.62535e-08 -4.27083e-08 4.10122e-09 -9.11398e-09 4.94078e-09 0.5 -6.77792e-08 -8.34693e-08 -9.32978e-08 3.141e-08 4.10743e-08 -2.96815e-08 
144 1 1.68507 3.60062 2.81087 0 0 0 1.49387e-08 -7.78546e-08 9.00444e-09 -1.34633e-08 6.65223e-08 -7.44651e-09 -1.7182e-09 5.07401e-09 8.33621e-10 0.5 -4.08666e-08 -1.18086e-08 -1.74624e-08 2.48373e-08 -8.37673e-09 -1.22666e-10 
675 2 2.83107 4.7385 3.54541 0 0 0 1.88554e-09 -2.81433e-08 4.42775e-08 -3.14289e-09 2.51172e-08 -3.86008e-08 -9.99518e-09 6.63107e-09 -1.60966e-09 0.5 2.89516e-09 1.38744e-08 2.74245e-08 1.31808e-08 -5.21208e-09 2.42968e-08 
502 2 4.38953 1.31124 3.26921 0 0 0 -3.61694e-09 -3.02988e-08 -1.19179e-08 1.97847e-09 2.72019e-08 9.47859e-09 4.94546e-09 1.14326e-09 -2.96188e-09 0.5 -4.78568e-08 -2.4434e-08 -3.05572e-08 -2.47884e-08 2.39835e-08 5.04091e-08 
27 1 2.60908 0.300739 3.21066 0 0 0 -1.4272e-09 -5.0281e-08 -3.53382e-08 2.62143e-10 4.31041e-08 3.02172e-08 -4.363e-10 -7.52688e-09 8.8796e-09 0.5 -4.38603e-08 -5.51166e-08 -1.04435e-07 2.16294e-08 3.58454e-08 8.65061e-09 
965 2 1.35576 3.65812 3.79896 1 0 0 2.10818e-08 -9.27069e-08 1.62341e-09 -1.85907e-08 7.86741e-08 -7.90111e-10 -5.6564e-09 1.50633e-08 -1.26839e-08 0.5 -1.79902e-08 -5.41576e-08 -6.01151e-08 3.13703e-08 -2.00646e-08 3.69655e-08 
61 1 1.66165 0.448609 3.51352 0 0 0 -1.48463e-08 -7.90609e-08 -6.92825e-08 1.20412e-08 6.69029e-08 6.07085e-08 1.85743e-09 -3.24213e-09 1.46677e-08 0.5 -3.10148e-08 -1.31809e-09 -6.21828e-09 7.37611e-09 2.08619e-08 -2.36716e-09 
680 2 1.1901 2.78151 3.34693 0 0 0 -1.77843e-08 -8.39685e-08 -8.25457e-10 1.4627e-08 7.11767e-08 1.35884e-09 3.63871e-09 8.16164e-09 -2.10875e-09 0.5 8.78313e-10 -1.80747e-08 -2.77654e-08 4.07277e-09 1.19327e-08 8.31598e-09 
251 1 4.71421 3.03382 3.89556 0 0 0 2.42589e-08 -3.84736e-08 3.81395e-08 -2.19207e-08 3.41786e-08 -3.36314e-08 1.56126e-08 1.16538e-08 -1.72067e-08 0.5 -5.44171e-08 -1.10755e-08 2.0458e-09 -3.83683e-08 1.7404e-08 3.25059e-08 
517 2 4.0089 2.89361 2.21821 0 0 0 1.34923e-08 -3.59737e-08 3.59552e-08 -1.15468e-08 3.23345e-08 -3.13969e-08 6.32535e-09 1.63232e-09 -2.85006e-09 0.5 -4.43479e-10 -5.7882e-10 -1.78338e-08 -6.31688e-10 -3.67402e-09 9.15108e-09 
6 1 3.42179 1.77987 2.73262 0 0 0 -6.02318e-09 -3.33142e-08 1.86368e-08 4.26431e-09 2.89983e-08 -1.6627e-08 1.87891e-08 -2.99605e-09 1.18738e-08 0.5 -5.91698e-08 1.12654e-08 8.28233e-09 2.34432e-08 2.79837e-08 1.72156e-08 
519 2 4.43345 3.61408 3.03093 0 0 0 8.68613e-09 -2.42387e-08 5.45443e-08 -7.83565e-09 2.22748e-08 -4.7833e-08 6.49169e-09 4.5338e-09 -2.11912e-09 0.5 2.91543e-09 3.02087e-08 2.04469e-08 -2.12852e-08 -7.74717e-09 1.5841e-08 
509 2 1.93621 1.51608 3.62332 0 0 0 1.73758e-08 -7.25633e-08 -5.87955e-08 -1.58629e-08 6.11656e-08 5.1754e-08 -5.03955e-09 2.49005e-08 -2.53512e-10 0.5 7.26059e-09 -8.23273e-09 -6.46506e-08 -8.0459e-09 1.38841e-08 1.82944e-08 
142 1 1.03537 1.94217 2.17003 0 0 0 -2.71409e-08 -6.98626e-08 -2.39862e-08 2.26431e-08 5.93381e-08 2.16999e-08 2.60148e-08 3.13815e-10 4.81349e-09 0.5 -1.17685e-09 -1.24145e-08 -1.66183e-08 1.89189e-08 -7.56975e-09 1.97474e-08 
941 2 0.192203 2.2584 2.77344 1 0 0 -3.82866e-08 -1.02065e-07 -2.01339e-08 3.24359e-08 8.7145e-08 1.84584e-08 1.56166e-08 1.94862e-09 3.95144e-09 0.5 -1.31534e-08 -4.20752e-08 -5.90459e-08 1.69458e-09 8.01203e-09 4.93436e-09 
919 2 0.650389 4.31552 3.53385 1 0 0 5.59551e-10 -9.92726e-08 3.98791e-08 -9.88988e-10 8.44014e-08 -3.33495e-08 1.35482e-08 4.99459e-09 -1.58953e-08 0.5 -4.10758e-08 -7.21264e-08 -4.22817e-08 4.05214e-08 -3.97012e-10 2.59801e-08 
95 1 3.53903 3.77814 2.2694 0 0 1 1.70581e-08 -3.46938e-08 4.78001e-08 -1.47884e-08 3.11622e-08 -4.18651e-08 1.07574e-09 5.95967e-10 2.17741e-09 0.5 -3.05986e-08 -1.01568e-08 -5.37796e-08 5.40459e-09 1.81459e-08 -6.84352e-09 
458 1 1.5569 4.7536 3.86468 1 0 0 6.63525e-09 -6.78563e-08 5.9663e-08 -6.63276e-09 5.74443e-08 -5.12159e-08 -1.31774e-08 2.77667e-09 4.02305e-09 0.5 -2.66433e-08 -1.63245e-08 -1.58213e-08 2.19038e-08 -4.42906e-09 -9.58142e-10 
41 1 1.14045 0.960462 2.01108 0 0 0 -1.88655e-08 -6.48972e-08 -4.80948e-08 1.56189e-08 5.50325e-08 4.2749e-08 2.27452e-08 -3.28707e-09 1.13259e-08 0.5 -2.1512e-08 -1.80501e-08 -5.18782e-08 1.21832e-08 3.38791e-08 -1.86462e-08 
814 2 0.27112 1.22753 3.40348 1 0 0 -4.22116e-09 -8.31838e-08 -4.12708e-08 2.76658e-09 7.05725e-08 3.70116e-08 1.22991e-08 -7.75419e-09 2.35454e-08 0.5 -4.56215e-08 -4.68737e-08 -5.47394e-08 1.82978e-08 3.93577e-08 5.77605e-08 
130 1 1.70518 2.6475 2.50033 0 0 0 -2.06503e-08 -7.40546e-08 -4.14853e-09 1.73396e-08 6.30984e-08 4.30088e-09 2.07923e-08 -8.35713e-09 -9.42124e-09 0.5 -1.55207e-08 -5.86578e-08 -5.17755e-08 2.85382e-08 2.01716e-08 3.72102e-08 
12 1 2.70258 1.09575 2.61132 0 0 0 9.50937e-09 -4.22636e-08 -2.30261e-08 -8.65866e-09 3.61555e-08 1.96255e-08 1.22089e-08 -1.59253e-08 1.26405e-08 0.5 -6.66207e-08 -8.33214e-08 -5.83446e-08 4.30179e-08 2.89512e-08 1.77569e-09 
512 2 3.18635 2.03167 3.78747 0 0 0 9.5679e-09 -1.01125e-08 2.19709e-08 -9.59189e-09 8.49501e-09 -1.85576e-08 1.48385e-08 -3.98733e-09 1.00449e-08 0.5 -1.57286e-08 -3.1493e-08 -2.67764e-08 5.37795e-09 -5.11298e-09 3.28714e-08 
151 1 2.47925 3.30049 3.34132 0 0 0 1.00048e-08 -4.88378e-08 3.21296e-08 -8.68124e-09 4.2504e-08 -2.76679e-08 -4.66961e-09 -5.32734e-09 3.40304e-09 0.5 -1.89139e-08 -7.90702e-08 -7.17302e-08 1.55621e-08 1.88172e-08 2.22938e-08 
667 2 0.284319 1.3208 2.4071 0 0 0 -1.9068e-08 -8.63455e-08 -4.08859e-08 1.58534e-08 7.34702e-08 3.66971e-08 1.52615e-08 4.52857e-09 1.33566e-08 0.5 -2.6146e-08 -1.20198e-07 -9.24248e-08 6.38048e-09 -2.01539e-10 1.30953e-08 
38 1 3.79042 0.738149 3.87284 0 0 0 5.34055e-09 -7.38331e-09 -1.71275e-08 -5.9507e-09 6.95033e-09 1.41362e-08 -1.61368e-08 -4.07874e-09 5.38248e-10 0.5 -4.66392e-08 -1.55011e-08 -1.15108e-07 -5.22183e-08 2.80464e-08 8.34479e-08 
936 2 0.319906 3.36948 3.50683 1 0 0 -3.51541e-08 -8.55876e-08 1.36985e-08 2.96236e-08 7.26648e-08 -1.05864e-08 1.49258e-08 -1.30459e-08 -8.80355e-09 0.5 3.80557e-09 -8.73706e-08 -3.56037e-08 1.25604e-09 4.20342e-08 5.71811e-08 
531 2 4.80013 0.808197 2.48028 0 0 0 -1.56124e-08 -5.07639e-08 -1.06939e-08 1.27285e-08 4.4918e-08 8.49853e-09 1.57575e-09 -1.16e-09 -8.16562e-09 0.5 -1.58313e-08 1.17001e-09 -3.29782e-08 -1.96544e-08 -3.06453e-08 -1.64176e-08 
527 2 4.03024 4.31517 3.61908 0 0 0 1.63612e-08 -2.53759e-08 6.18303e-08 -1.49806e-08 2.28708e-08 -5.39891e-08 -7.77652e-09 -5.47068e-11 2.78014e-09 0.5 -1.20397e-08 3.5396e-09 2.13416e-08 -1.97775e-08 -5.15442e-09 3.18816e-08 
383 1 4.36293 4.34454 2.28892 0 0 1 5.98961e-09 -1.85709e-08 4.72775e-08 -5.16952e-09 1.71393e-08 -4.17627e-08 2.5499e-09 -3.90725e-09 9.91012e-10 0.5 -2.98413e-08 -5.89287e-09 1.51229e-08 2.39159e-08 -6.55466e-09 -1.25246e-08 
992 2 0.695682 0.439322 3.85269 1 1 0 -1.15929e-09 -8.79047e-08 -5.6301e-08 1.06043e-10 7.44017e-08 4.95807e-08 2.51306e-09 1.37716e-08 8.95164e-09 0.5 -3.73005e-08 -9.0718e-08 -1.98319e-08 2.67999e-08 -1.2644e-08 4.65694e-08 
521 2 4.93615 4.52796 3.25037 0 0 0 1.05477e-08 -1.9072e-08 5.14176e-08 -9.99023e-09 1.72506e-08 -4.52601e-08 -5.74282e-09 4.07915e-09 3.30493e-09 0.5 3.77039e-09 -2.2146e-08 -2.5197e-08 -2.39966e-09 -3.45546e-09 3.21241e-08 
136 1 1.88498 1.67143 2.62265 0 0 0 -1.67213e-08 -7.89658e-08 -4.89687e-08 1.36417e-08 6.73295e-08 4.33532e-08 8.42951e-09 1.25358e-08 9.21208e-09 0.5 -7.71681e-08 -8.17832e-08 -5.41677e-08 5.53206e-08 -5.87901e-09 2.40618e-08 
540 2 4.51129 0.178592 3.415 0 0 0 -2.98624e-09 -3.18445e-08 -1.97431e-08 1.47849e-09 2.87099e-08 1.59145e-08 -1.49049e-08 7.0822e-09 -9.74514e-09 0.5 2.39317e-08 1.5642e-08 3.1561e-09 -1.52456e-08 -1.03156e-08 1.47007e-08 
510 2 3.85504 2.56842 3.17077 0 0 0 -7.8529e-09 -3.67078e-08 2.78358e-08 5.53575e-09 3.22853e-08 -2.48968e-08 3.19247e-09 -1.32442e-09 4.70274e-10 0.5 2.34201e-08 3.28274e-08 -1.98735e-08 4.85075e-09 3.77985e-09 2.75474e-08 
19 1 4.3655 1.84749 2.40882 0 0 0 -1.08971e-08 -5.73727e-09 1.01391e-08 8.26803e-09 5.64281e-09 -9.78517e-09 8.33175e-09 2.22149e-09 8.10109e-10 0.5 -8.4613e-08 -3.36157e-09 -4.36903e-08 4.20881e-09 3.78319e-08 7.94346e-09 
543 2 1.07326 1.78713 3.19513 0 0 0 -1.58288e-09 -8.16239e-08 -2.69551e-08 4.96714e-10 6.90997e-08 2.43502e-08 1.79828e-08 1.61945e-08 6.08331e-09 0.5 -8.03088e-09 -1.10225e-08 -4.92619e-09 -1.61628e-08 1.35886e-08 8.40953e-09 
773 2 4.78774 2.22773 3.30763 0 0 0 -4.65171e-09 -3.13459e-08 2.38775e-08 2.90007e-09 2.8087e-08 -2.14215e-08 7.25358e-09 8.21205e-09 -5.95626e-09 0.5 2.04714e-09 -6.61727e-08 -1.27995e-07 -1.2902e-08 2.81719e-08 1.28334e-07 
555 2 2.23907 2.5056 3.89852 0 0 0 8.36263e-09 -4.34673e-08 3.90959e-08 -8.30689e-09 3.81892e-08 -3.36642e-08 -4.97549e-09 -1.34988e-09 4.66392e-09 0.5 1.44284e-08 1.97408e-08 2.06825e-08 7.66181e-09 3.05357e-09 2.64009e-08 
429 1 0.306925 2.40106 3.75655 1 0 0 -2.75824e-08 -9.37027e-08 -2.25844e-08 2.30714e-08 7.9652e-08 2.06341e-08 9.76698e-09 3.8258e-09 1.76452e-08 0.5 -1.7847e-08 -1.4223e-07 -8.24481e-08 3.31595e-08 -2.12391e-08 7.9302e-08 
316 1 0.889712 0.512877 2.86992 1 0 0 -2.33897e-08 -8.61585e-08 -6.08024e-08 1.93658e-08 7.30924e-08 5.3515e-08 9.77864e-09 1.37119e-09 1.3427e-08 0.5 7.81546e-09 -1.71781e-08 -1.22781e-08 6.10838e-09 4.7281e-09 1.70178e-08 
503 2 3.61689 0.768796 2.88623 0 0 0 5.19384e-09 -4.20279e-08 -1.63423e-08 -4.77483e-09 3.65046e-08 1.32639e-08 -2.32857e-09 -2.69175e-09 6.65989e-09 0.5 -1.35063e-08 2.81941e-09 -8.67377e-08 3.82776e-09 -6.49564e-09 2.41692e-08 
896 2 0.702247 3.66501 2.63024 1 0 0 1.0355e-08 -9.02008e-08 3.30595e-08 -9.67502e-09 7.6642e-08 -2.73033e-08 1.08141e-08 4.47742e-09 -5.15201e-09 0.5 -5.67497e-08 -3.25326e-08 -9.21619e-08 1.51674e-08 -3.03721e-08 2.62167e-08 
690 2 1.93672 4.67095 2.92999 0 0 0 4.24067e-09 -5.59401e-08 5.97966e-08 -4.10295e-09 4.799e-08 -5.1157e-08 -1.62409e-09 2.87579e-09 1.41032e-08 0.5 -6.38984e-08 -3.26975e-08 -1.28559e-08 4.2227e-08 -1.78795e-10 -7.38417e-09 
641 2 3.45948 3.5005 3.22725 0 0 0 7.86449e-09 -2.62838e-08 4.91396e-08 -7.06903e-09 2.36143e-08 -4.31209e-08 -5.0981e-09 -8.92211e-10 5.79232e-09 0.5 -4.81776e-09 9.65879e-09 -4.06282e-08 9.53829e-09 -2.00458e-08 5.12059e-08 
528 2 3.34275 4.80215 2.44243 0 0 0 1.59428e-08 -4.35866e-08 4.54697e-08 -1.43951e-08 3.79501e-08 -3.99678e-08 -3.60961e-10 1.56428e-09 2.47379e-09 0.5 -5.97183e-09 -1.11498e-08 -2.05085e-08 -1.04014e-08 -2.85894e-09 -3.93158e-09 
225 1 2.66658 2.37982 2.99794 0 0 1 -1.71344e-08 -5.13911e-08 2.62048e-08 1.40338e-08 4.44801e-08 -2.23404e-08 -4.09266e-09 1.04437e-08 5.79382e-09 0.5 -2.14602e-08 -5.49658e-08 -4.37908e-09 3.34455e-08 -1.57533e-08 -1.3313e-09 
119 1 0.614476 2.84343 2.06694 0 0 0 -3.83567e-08 -7.11197e-08 1.28108e-08 3.23925e-08 6.04199e-08 -1.01948e-08 2.48573e-08 2.45607e-09 -9.72151e-10 0.5 1.28015e-08 -3.65695e-08 -6.86033e-08 1.1245e-08 2.65542e-08 3.20595e-10 
94 1 2.46189 3.50067 2.00487 0 0 1 -2.27861e-09 -5.42492e-08 5.81012e-08 1.70862e-09 4.66582e-08 -5.00532e-08 9.84608e-09 -2.86102e-09 2.76544e-09 0.5 1.35651e-08 1.77646e-08 6.77146e-09 1.62699e-08 1.41869e-08 2.22298e-08 
522 2 2.58373 2.50801 2.00903 0 0 0 -7.77367e-09 -5.51586e-08 2.49641e-08 6.34873e-09 4.74241e-08 -2.13328e-08 1.93347e-08 -7.86431e-09 7.02438e-09 0.5 5.62724e-12 3.49807e-09 -2.01829e-08 1.85797e-08 2.03512e-08 5.75783e-09 
200 1 2.46549 0.208501 4.19599 0 1 0 2.17396e-08 -2.96475e-08 -3.00109e-08 -2.04777e-08 2.52227e-08 2.54974e-08 -1.91057e-08 -1.31962e-08 2.95567e-08 0.5 -4.55683e-08 -2.48946e-08 -8.13758e-08 1.21056e-08 3.00708e-08 2.13611e-08 
114 1 4.70709 1.00384 4.17137 0 0 0 2.69945e-09 -9.59721e-09 -7.01891e-09 -3.78266e-09 9.38196e-09 5.31551e-09 -6.6885e-09 -4.0158e-09 -7.55882e-09 0.5 -2.80554e-08 9.12784e-10 -4.83955e-09 -3.73359e-09 -1.78668e-08 -2.42321e-09 
820 2 1.30996 2.29325 4.21136 1 0 0 1.86155e-09 -6.33602e-08 8.09741e-09 -2.16214e-09 5.36474e-08 -6.21261e-09 -1.12801e-08 -8.21591e-09 1.76887e-08 0.5 3.96947e-09 1.69372e-08 -1.93784e-08 5.40084e-08 1.65438e-08 3.19178e-08 
47 1 4.65574 1.582 5.43553 0 0 0 2.20547e-08 2.29868e-09 7.37964e-09 -2.08169e-08 -6.33318e-10 -7.03779e-09 2.48384e-09 1.15579e-08 4.98863e-09 0.5 -3.16345e-08 -5.15412e-08 -2.11455e-08 -1.29809e-08 -2.51783e-08 4.17911e-08 
824 2 1.64908 3.83184 5.79238 1 0 0 6.52539e-09 1.87927e-08 5.9889e-08 -5.7181e-09 -1.61287e-08 -5.10063e-08 -1.67159e-08 1.36175e-09 -5.924e-09 0.5 -1.00271e-08 -8.29055e-09 -3.60005e-08 -2.73076e-09 1.87968e-10 1.28128e-08 
172 1 3.44268 0.338821 4.72114 0 1 0 1.35665e-09 2.38246e-08 -4.0255e-09 -3.21078e-09 -2.04522e-08 2.31537e-09 -2.11584e-08 -5.54741e-09 9.028e-09 0.5 -4.21047e-08 -4.39946e-08 -1.50419e-07 -3.71467e-08 3.71328e-08 6.31038e-08 
718 2 0.202285 2.03673 5.5128 0 1 0 -4.73164e-09 -2.42931e-08 1.41298e-08 3.04789e-09 1.97506e-08 -1.10504e-08 -1.6028e-08 -7.47152e-09 -1.41285e-09 0.5 -6.89546e-08 -1.58176e-08 -4.53041e-08 3.3361e-08 -3.47936e-08 9.52888e-08 
505 2 0.484433 3.5018 5.83385 0 0 -1 -7.20779e-09 2.80415e-08 4.53073e-08 6.17575e-09 -2.5699e-08 -3.82035e-08 3.54996e-09 -8.49434e-09 2.15702e-08 0.5 -7.51235e-10 -1.24163e-07 -6.35399e-08 6.67839e-09 -1.53826e-09 1.0238e-07 
524 2 3.99535 2.7352 5.70679 0 0 0 5.5279e-08 5.96854e-08 7.29323e-08 -4.99853e-08 -4.99746e-08 -6.44644e-08 -1.74416e-08 4.84741e-08 2.49661e-08 0.5 1.10795e-09 1.16307e-08 1.33303e-08 -9.55637e-09 -1.0835e-08 1.10626e-08 
839 2 0.579387 1.61472 4.31101 1 0 0 1.51e-08 -8.52026e-08 -3.14327e-08 -1.35829e-08 7.2497e-08 2.84484e-08 -5.68775e-09 1.70944e-10 1.89416e-08 0.5 -7.06765e-09 -9.39871e-08 -5.60783e-08 6.26519e-08 -4.55948e-09 9.93102e-08 
937 2 2.44361 3.38654 4.3372 1 0 0 1.31202e-08 -3.62988e-08 3.0417e-08 -1.18281e-08 3.19199e-08 -2.62263e-08 -1.24985e-08 -8.29009e-09 1.41535e-08 0.5 2.06678e-08 2.63142e-08 -6.4855e-08 3.75278e-08 6.89366e-09 3.15665e-08 
811 2 2.60623 3.94632 5.52498 1 0 0 6.52616e-10 1.66022e-08 3.8216e-08 -8.35118e-10 -1.36143e-08 -3.27032e-08 -1.54095e-08 -9.48588e-09 5.92529e-11 0.5 -6.92255e-09 -2.96134e-08 -9.86711e-09 -1.25872e-08 -1.05528e-08 3.04209e-08 
827 2 1.52088 3.18133 4.66349 1 0 0 1.46351e-08 -6.39064e-08 1.76824e-08 -1.25722e-08 5.41335e-08 -1.45692e-08 -2.13762e-08 -1.10937e-08 -8.21513e-10 0.5 1.09245e-08 -5.53267e-09 -5.40718e-08 3.12328e-09 6.52652e-09 4.25865e-08 
149 1 4.05563 3.93275 4.61881 0 0 0 5.20706e-09 7.91139e-09 5.30709e-08 -5.60579e-09 -5.73033e-09 -4.64824e-08 -7.21957e-09 2.89606e-09 1.26533e-08 0.5 -2.20864e-08 -2.29376e-08 1.87774e-08 7.26056e-08 -4.41434e-08 2.14891e-08 
925 2 0.623246 3.59905 4.52293 1 0 0 2.33846e-08 -4.84486e-08 6.29786e-09 -2.04755e-08 4.0113e-08 -4.6087e-09 -1.9472e-08 7.75141e-09 -3.81652e-09 0.5 1.50062e-08 -3.24651e-08 -9.40342e-09 -7.25101e-09 -6.36564e-09 1.69946e-08 
168 1 3.33522 4.60361 5.33159 0 0 0 6.65803e-09 1.41857e-08 5.46859e-08 -6.41479e-09 -1.13545e-08 -4.79167e-08 -1.25668e-08 -8.33359e-09 1.17449e-08 0.5 -4.15619e-08 -3.32665e-08 -3.53358e-08 1.06069e-08 -2.04548e-08 2.80307e-08 
928 2 1.57471 4.4088 4.9787 1 0 0 1.08755e-08 1.17016e-08 5.50575e-08 -9.45669e-09 -9.64538e-09 -4.65774e-08 -1.01397e-08 2.22615e-09 -1.01567e-08 0.5 -1.87078e-08 -2.34039e-08 -2.33864e-08 -1.24165e-08 2.74216e-09 1.99835e-08 
148 1 3.93983 3.74234 5.7457 0 0 0 -2.51616e-09 5.76214e-08 7.5226e-08 1.19256e-09 -4.81856e-08 -6.55815e-08 -1.77248e-08 -6.82514e-09 3.28471e-08 0.5 1.75487e-08 3.67928e-08 4.26281e-08 2.58664e-08 2.96335e-08 2.57979e-08 
914 2 4.69244 4.38506 5.24423 0 0 0 -1.70538e-08 3.17498e-08 5.89917e-08 1.37378e-08 -2.54746e-08 -5.23289e-08 -2.66146e-08 -8.17207e-09 -3.63831e-09 0.5 -1.01418e-09 9.45714e-09 1.68391e-08 2.57827e-09 5.9814e-09 1.06804e-08 
23 1 2.87773 1.11847 4.05716 0 0 0 -1.19152e-09 -2.0356e-08 -2.69231e-08 -5.38818e-10 1.73108e-08 2.33054e-08 6.8757e-09 -1.49929e-09 7.10454e-09 0.5 -3.61121e-08 -3.45245e-08 -2.82204e-08 -1.35396e-08 1.84861e-08 2.58209e-08 
594 2 2.05586 1.97089 4.80241 0 0 0 1.556e-08 9.55079e-09 2.67059e-08 -1.42244e-08 -8.86565e-09 -2.18194e-08 7.3361e-09 -9.03123e-09 2.5087e-08 0.5 -9.16722e-11 -4.40814e-08 -9.00452e-09 3.23112e-08 -1.53393e-08 2.60199e-08 
539 2 3.78455 1.04074 5.46912 0 0 0 1.00506e-08 4.74285e-08 1.83328e-08 -1.02944e-08 -4.02916e-08 -1.68445e-08 -8.86631e-09 1.58934e-08 -3.75963e-09 0.5 -1.52339e-08 -1.44141e-07 -6.18069e-08 -4.69154e-08 -3.85217e-08 1.19891e-07 
730 2 0.461765 1.11568 5.16957 0 1 0 1.69613e-09 -2.66523e-08 7.89769e-10 -2.74043e-09 2.17689e-08 3.85565e-10 -7.31826e-09 -3.98871e-09 2.42814e-08 0.5 3.96036e-08 -7.89886e-09 -3.32089e-08 6.5473e-09 -8.69053e-09 6.87658e-08 
689 2 3.51933 0.103669 5.69619 0 1 0 -1.31065e-09 4.46506e-08 -6.22032e-09 -3.44417e-10 -3.7933e-08 4.35793e-09 -5.18728e-09 -6.65905e-09 -1.76073e-09 0.5 -5.98264e-08 -1.77045e-07 -1.53899e-07 -2.03873e-08 4.68378e-09 1.32568e-07 
450 1 0.619288 4.79871 4.46892 1 0 0 5.35587e-08 -3.64268e-08 3.70157e-08 -4.62861e-08 3.05072e-08 -3.06581e-08 -3.84026e-08 -9.65089e-09 6.62712e-09 0.5 -1.91588e-08 -5.3347e-08 -1.14032e-07 4.22227e-09 -1.98093e-08 6.34623e-08 
549 2 4.49944 0.500888 5.01435 0 0 0 -1.91727e-08 1.38976e-08 2.57334e-09 1.50581e-08 -1.1208e-08 -3.20257e-09 -6.29248e-09 6.71393e-09 -1.64207e-08 0.5 4.4433e-08 5.95937e-08 3.03953e-08 -2.67221e-08 -1.72738e-08 2.76413e-08 
591 2 1.44655 1.12499 4.40334 0 0 0 2.90243e-08 -6.22033e-08 -4.71484e-08 -2.58521e-08 5.2165e-08 4.17074e-08 -1.17946e-08 1.20082e-08 3.08379e-09 0.5 -3.50825e-08 -5.50575e-08 -4.28053e-08 1.41903e-08 5.08421e-09 4.21662e-08 
243 1 1.20287 1.83742 5.34381 0 1 0 -7.52864e-09 1.39156e-09 -4.47158e-09 5.32473e-09 -2.35484e-09 4.70828e-09 -6.1051e-09 -5.142e-09 1.36104e-08 0.5 -2.01539e-08 -2.19957e-08 -9.57599e-09 2.654e-08 -8.35289e-09 3.24282e-08 