ITEM: TIMESTEP
211500
ITEM: NUMBER OF ATOMS
1000
ITEM: BOX BOUNDS xy xz yz pp pp pp
0.0000000000000000e+00 1.0000000000000000e+01 0.0000000000000000e+00
0.0000000000000000e+00 1.0000000000000000e+01 0.0000000000000000e+00
0.0000000000000000e+00 1.0000000000000000e+01 0.0000000000000000e+00
ITEM: ATOMS id type x y z ix iy iz vx vy vz fx fy fz omegax omegay omegaz radius c_2[1] c_2[2] c_2[3] c_2[4] c_2[5] c_2[6] 
120 1 3.15852 1.54146 0.0722925 0 1 0 -1.63853e-10 5.63452e-10 3.36683e-10 1.43829e-10 -4.66032e-10 -2.93064e-10 3.30016e-10 7.67153e-11 -1.89358e-10 0.5 -2.79045e-10 -1.48962e-09 -1.41508e-10 -1.62006e-10 -8.34254e-11 -3.6244e-10 
525 2 2.11627 1.23431 1.69988 0 0 0 -5.30745e-10 -1.30481e-09 -8.26508e-10 4.4307e-10 1.11439e-09 7.25531e-10 -1.18301e-10 1.13e-10 4.24837e-10 0.5 2.80051e-11 -8.78043e-11 5.23582e-11 1.11261e-10 4.34231e-11 -2.45018e-11 
371 1 4.95931 3.68326 1.58374 0 0 1 2.88303e-10 -4.57157e-10 7.37501e-10 -2.47423e-10 4.01664e-10 -6.48392e-10 5.94044e-11 -4.87528e-11 3.27031e-11 0.5 -1.86364e-10 -7.48076e-10 4.6475e-10 -9.05502e-11 -9.92365e-11 9.59558e-11 
18 1 1.98117 2.69195 0.532518 0 0 0 -2.69789e-10 -2.06364e-11 8.66296e-10 2.24135e-10 1.90116e-11 -7.45584e-10 5.50848e-10 -1.81034e-10 1.78773e-10 0.5 -4.99023e-10 -1.0784e-09 -6.46111e-10 8.77868e-10 3.4869e-10 -4.69892e-10 
868 2 2.87004 3.00634 0.0289121 0 0 1 1.87181e-10 -1.05129e-10 7.22704e-10 -1.47959e-10 8.53575e-11 -6.27384e-10 4.64823e-10 -8.39703e-11 1.98385e-10 0.5 -7.56026e-10 -1.15429e-09 -2.96711e-10 8.58946e-10 -5.3891e-11 6.96409e-11 
25 1 1.41548 0.708705 1.0832 0 0 0 -2.02228e-10 -4.79028e-10 -8.25784e-10 1.71342e-10 3.52206e-10 7.09985e-10 3.77738e-10 -9.81702e-11 2.54179e-10 0.5 -3.02678e-10 -2.23641e-09 -1.24555e-09 8.31898e-10 6.05854e-10 -1.01392e-09 
378 1 4.61919 2.40719 0.0725816 0 0 1 6.5272e-11 3.95351e-10 5.44022e-10 -5.33814e-11 -3.29115e-10 -4.82179e-10 5.12395e-10 1.25205e-10 -1.07987e-10 0.5 -3.08513e-10 -8.11168e-10 -4.55544e-10 -3.46315e-11 -7.92095e-11 -5.95254e-10 
8 1 3.44143 2.06796 1.74253 0 0 0 -4.04451e-11 -5.69172e-10 2.08972e-10 3.40427e-11 4.99591e-10 -1.90381e-10 4.44166e-10 -1.06154e-10 1.00911e-10 0.5 2.69583e-10 1.49142e-10 2.32422e-10 1.65189e-10 -8.99316e-11 1.55943e-10 
629 2 4.07713 2.6156 1.19812 0 0 1 1.35515e-10 -2.61172e-10 7.16994e-10 -9.73367e-11 2.06416e-10 -6.29864e-10 4.96172e-10 -1.44081e-10 1.68358e-11 0.5 -8.24882e-10 -1.71815e-10 -7.02189e-10 1.52693e-10 -5.72113e-10 -3.33729e-10 
5 1 2.34651 3.9005 1.05345 0 0 0 -7.21661e-11 -9.6979e-10 9.88297e-10 6.77842e-11 8.3862e-10 -8.52189e-10 4.04974e-11 6.54572e-11 2.03755e-10 0.5 -5.78001e-11 -1.04943e-10 -1.47209e-10 1.34587e-10 2.75951e-11 -3.01289e-11 
650 2 0.459129 3.43666 1.12967 0 0 0 -6.00477e-10 -1.06253e-09 2.25012e-10 5.11864e-10 9.00588e-10 -1.75333e-10 6.02291e-10 4.41245e-11 6.65318e-12 0.5 -7.98807e-10 -8.95039e-10 -9.75601e-10 6.66654e-10 6.70202e-10 -4.33912e-10 
14 1 3.29515 3.13364 1.54473 0 0 0 3.83174e-11 -4.57443e-10 7.93792e-10 -6.91251e-11 4.09383e-10 -6.92302e-10 1.28563e-10 1.04034e-10 6.99217e-11 0.5 -9.1925e-11 -2.31054e-10 -4.51742e-10 3.57365e-10 -6.00382e-11 -1.98079e-10 
264 1 3.99643 3.86789 1.37953 0 0 0 2.74954e-10 -5.30153e-10 7.52398e-10 -2.37648e-10 4.69467e-10 -6.55175e-10 2.0974e-10 4.3848e-11 4.09402e-11 0.5 -1.97085e-10 1.49205e-11 -3.75695e-10 2.96154e-10 -2.73052e-11 -9.36863e-11 
223 1 0.747634 2.47805 1.14565 0 0 1 -6.32165e-10 -1.05768e-09 2.07449e-10 5.353e-10 8.97278e-10 -1.60762e-10 5.80822e-10 -2.28408e-10 8.63279e-11 0.5 -3.47998e-10 -9.57366e-10 -2.08163e-09 3.42119e-10 8.37931e-10 -5.43361e-10 
364 1 4.4227 4.23693 0.53984 0 0 1 1.53302e-10 2.75649e-10 1.03033e-09 -1.1658e-10 -2.27424e-10 -8.93545e-10 2.91617e-10 -4.61496e-11 1.24336e-10 0.5 2.40013e-11 1.14264e-10 5.64015e-11 5.28148e-11 1.33726e-10 -1.60456e-10 
107 1 1.66076 1.61825 0.747451 0 0 1 -4.8277e-10 -2.3169e-10 -3.47891e-10 4.07231e-10 1.75964e-10 3.26322e-10 5.91204e-10 -4.60204e-11 8.1927e-11 0.5 3.93675e-10 -5.08381e-10 -5.20498e-10 -1.29665e-11 -8.7252e-13 -3.49385e-10 
529 2 2.67265 2.1996 1.06195 0 0 0 -4.15238e-11 -3.54817e-10 2.48447e-10 1.79595e-11 3.15599e-10 -2.09957e-10 5.38514e-10 3.09221e-11 1.54371e-10 0.5 -1.82013e-10 -4.28362e-10 -4.90984e-10 3.20453e-10 -2.2374e-10 1.15887e-10 
515 2 4.38643 0.435908 1.64385 0 0 0 7.86933e-11 -5.94554e-10 -4.40994e-10 -1.1743e-10 4.76784e-10 3.94728e-10 3.31596e-10 -3.95145e-11 9.82526e-11 0.5 8.62021e-11 -2.84083e-10 -6.78186e-10 -6.12216e-10 -3.70098e-11 1.15981e-10 
244 1 4.11373 0.570462 0.682724 0 1 1 9.19792e-11 2.07981e-10 -3.09319e-10 -6.25572e-11 -1.54522e-10 2.49557e-10 4.77305e-10 1.54548e-10 3.07559e-11 0.5 -2.21669e-10 -1.98205e-10 -6.61952e-10 -3.77727e-11 1.26999e-10 8.59989e-11 
20 1 2.90179 0.570818 1.78382 0 0 0 2.80107e-11 -5.61568e-10 -5.10222e-10 -3.42315e-11 4.93539e-10 4.4997e-10 2.20268e-10 -1.29096e-10 1.36309e-10 0.5 -3.19865e-10 -7.97746e-10 -1.2472e-09 3.90117e-10 5.28356e-10 -7.96208e-10 
280 1 4.09077 1.582 1.14626 0 0 0 5.29624e-11 -1.52001e-10 -2.3266e-11 -4.34575e-11 1.6677e-10 2.79678e-11 5.11841e-10 -4.52993e-11 2.65067e-11 0.5 -8.18157e-11 -2.64691e-10 -8.18994e-10 1.24578e-10 4.61484e-10 1.86876e-10 
620 2 1.3946 4.37082 0.857654 0 0 1 8.47109e-11 -6.54803e-10 8.09791e-10 -5.34653e-11 5.66489e-10 -7.00377e-10 4.03452e-10 2.66299e-10 -2.23163e-10 0.5 -2.01486e-10 -9.74702e-10 -1.4057e-09 4.33998e-11 -1.56767e-10 1.29158e-10 
1000 2 3.60332 2.39824 0.339819 0 1 1 4.68666e-10 1.58903e-10 4.92597e-10 -3.87864e-10 -1.23793e-10 -4.34245e-10 3.62137e-10 -3.48019e-11 -1.76965e-12 0.5 -6.60128e-10 -1.11797e-09 -6.99664e-10 -4.24893e-11 -5.65918e-10 -1.72522e-10 
103 1 3.28431 3.68319 0.698947 0 0 1 3.64778e-11 -2.75197e-10 9.4077e-10 -2.74473e-11 2.43987e-10 -8.20304e-10 2.77977e-10 1.42855e-11 1.50735e-10 0.5 -2.65427e-10 -2.73401e-10 -3.5498e-10 2.50135e-10 3.43245e-12 -2.68936e-11 
622 2 0.930663 4.80385 0.0848388 0 0 1 6.58054e-11 -4.61107e-11 1.16316e-09 -3.74754e-11 3.65052e-11 -9.89587e-10 5.28348e-10 -3.45184e-11 -7.82372e-11 0.5 -1.19101e-11 1.08869e-10 -6.74081e-10 -5.29493e-11 -2.97165e-10 1.51586e-10 
506 2 0.74356 1.4513 1.18235 0 0 0 -6.73451e-10 -1.07182e-09 -7.03009e-10 5.77176e-10 9.0319e-10 6.2099e-10 4.48872e-10 -7.74413e-11 3.14441e-10 0.5 1.60742e-10 -1.36455e-09 -2.28927e-10 1.56393e-09 3.17461e-10 -8.30011e-10 
626 2 1.28815 3.41645 0.566227 0 0 1 -5.95964e-10 -3.75067e-10 2.51111e-10 5.09064e-10 3.24649e-10 -2.02948e-10 3.13294e-10 -1.58373e-10 5.74385e-11 0.5 -7.80427e-10 -1.12905e-09 -2.09308e-10 6.42751e-10 5.00241e-10 -3.279e-10 
553 2 0.744043 0.0774004 1.56305 0 0 0 -1.3781e-10 -7.95298e-10 -1.0626e-09 1.16695e-10 6.75036e-10 9.398e-10 4.71167e-11 -2.30207e-10 3.75215e-10 0.5 1.42194e-10 5.54277e-11 1.14704e-10 3.68841e-11 3.94879e-11 -1.76524e-10 
135 1 1.54769 3.20472 1.67709 0 0 0 1.96757e-10 -9.95116e-10 1.3673e-10 -1.768e-10 8.58881e-10 -1.01416e-10 3.16873e-10 -4.33542e-10 -1.19639e-10 0.5 4.82257e-11 -1.97069e-09 -4.06808e-10 4.99325e-10 2.00309e-10 -1.14659e-11 
624 2 4.32461 4.92098 1.47156 0 0 1 4.75905e-10 -1.00164e-10 7.61915e-10 -3.89473e-10 9.96975e-11 -6.62443e-10 2.07216e-10 -2.22477e-11 1.38106e-10 0.5 2.09491e-10 1.67539e-10 -4.71508e-10 2.20189e-10 -3.82276e-10 -4.31796e-10 
256 1 4.58719 1.36786 0.305 0 0 0 1.00709e-10 2.96721e-10 -1.097e-10 -7.16783e-11 -2.57023e-10 5.66529e-11 4.99795e-10 9.32248e-11 -1.35734e-10 0.5 -1.27479e-10 -4.70495e-10 -5.78078e-10 -2.88659e-10 1.47729e-12 -6.86683e-10 
260 1 3.31854 0.0700552 1.02517 0 0 0 2.23102e-10 -2.20087e-10 -6.28257e-10 -1.86537e-10 1.8476e-10 5.43556e-10 2.04576e-10 2.52508e-10 3.82669e-11 0.5 -2.62365e-10 -8.09407e-10 -9.28035e-10 -1.11758e-11 1.22722e-10 -5.64202e-10 
616 2 3.19106 4.4806 1.50664 0 0 1 1.93353e-10 -7.81249e-10 7.2547e-10 -1.71248e-10 6.7882e-10 -6.38286e-10 -4.26528e-11 9.24379e-11 1.52412e-10 0.5 -3.70166e-10 -1.5152e-10 -1.68558e-10 2.25395e-10 3.17627e-11 -9.68113e-11 
106 1 1.74522 2.23558 1.52961 0 0 1 -3.61461e-11 -1.06138e-09 2.58942e-10 1.69304e-11 9.02894e-10 -2.12857e-10 4.13624e-10 -1.43457e-10 -9.08383e-11 0.5 3.21909e-10 -1.04363e-09 -3.22219e-10 3.37487e-10 2.72707e-10 -4.22686e-10 
157 1 1.3897 4.17879 1.83903 0 0 0 3.01388e-10 -1.07612e-09 7.28631e-10 -2.51712e-10 9.06396e-10 -6.12424e-10 4.08331e-10 5.89502e-11 5.69446e-11 0.5 -4.2263e-10 -1.4838e-09 -1.56925e-09 3.61518e-10 5.00987e-10 -2.98023e-10 
516 2 2.34691 0.89043 0.68796 0 0 0 -1.24252e-10 9.94668e-11 -2.3406e-10 1.04575e-10 -1.04435e-10 2.09484e-10 5.27271e-11 -1.156e-10 4.05863e-11 0.5 9.04789e-11 -4.53407e-10 -1.28867e-10 1.08981e-10 2.53179e-10 -4.01374e-10 
183 1 0.415258 4.58221 1.00381 0 0 0 1.5616e-10 -9.31505e-10 1.69825e-09 -1.15449e-10 8.01385e-10 -1.44043e-09 7.93199e-10 4.29164e-10 4.55623e-11 0.5 5.7414e-12 -4.94348e-11 9.57404e-11 7.62813e-11 -1.20652e-10 9.17937e-11 
625 2 0.399951 3.91216 0.210014 0 0 1 -1.58512e-10 2.95251e-11 8.61418e-10 1.5151e-10 -2.70726e-11 -7.21185e-10 7.54258e-10 -7.50541e-11 -3.39512e-10 0.5 -2.79899e-11 2.07265e-11 -1.33084e-10 -2.80559e-11 -5.84957e-11 1.34079e-10 
91 1 2.22066 4.71676 1.69645 0 0 1 2.45933e-10 -9.49787e-10 9.14569e-10 -2.15434e-10 8.20178e-10 -7.8665e-10 1.08556e-11 5.09071e-11 4.95068e-11 0.5 -4.00442e-10 -2.27833e-10 -1.09168e-10 -6.81936e-11 5.80522e-11 -9.76019e-11 
257 1 4.94043 2.69123 1.70827 0 0 0 1.55223e-10 -4.73821e-10 5.85468e-10 -1.29725e-10 4.43215e-10 -4.9767e-10 1.98545e-10 -2.60187e-12 -8.17384e-11 0.5 -9.25834e-10 -6.44174e-10 -1.5989e-09 7.08717e-11 -5.44852e-10 -3.25616e-10 
4 1 3.72174 1.12777 1.95711 0 0 0 5.11659e-11 -6.59923e-10 -3.08099e-10 -5.20344e-11 5.66726e-10 2.72175e-10 3.30154e-10 -2.2379e-11 3.96458e-11 0.5 -9.55644e-11 -1.58204e-10 -1.15432e-09 -1.96259e-10 1.50352e-10 5.57836e-10 
609 2 1.99624 4.76004 0.136921 0 0 1 9.57512e-11 -3.56539e-10 1.10171e-09 -7.9081e-11 2.97152e-10 -9.53233e-10 1.61499e-10 -8.77644e-11 1.85098e-10 0.5 -1.80656e-09 -5.55956e-09 -7.36085e-10 1.59823e-09 3.14518e-10 -1.19945e-09 
117 1 3.12746 1.31374 1.15363 0 1 0 9.93449e-11 -3.30355e-10 -2.11535e-10 -7.6395e-11 2.8237e-10 1.69843e-10 4.24784e-10 4.16578e-12 4.50518e-11 0.5 8.84243e-11 -2.97356e-10 -8.47026e-11 2.19122e-10 -3.83136e-11 2.2895e-10 
511 2 1.08079 2.25054 0.230642 0 0 0 -2.36928e-10 2.99372e-10 1.33645e-11 2.11475e-10 -2.44437e-10 1.92449e-13 7.32703e-10 -1.72955e-10 -1.38461e-10 0.5 -2.76205e-10 -8.42797e-10 -1.83473e-09 1.7756e-10 7.76485e-10 -6.13409e-10 
911 2 0.492018 0.563612 0.697612 1 0 0 -1.61777e-10 -6.28189e-10 -1.01404e-09 1.36033e-10 5.18562e-10 8.95566e-10 7.53345e-11 -1.51386e-10 6.15295e-11 0.5 2.30602e-10 -1.01463e-09 -1.07897e-11 -9.88583e-11 7.63618e-11 -4.00248e-10 
668 2 0.00216515 3.81975 1.93315 0 0 0 -1.66111e-10 -1.87606e-09 8.34361e-10 1.2596e-10 1.63387e-09 -7.14673e-10 1.88078e-10 1.38557e-10 -1.73295e-10 0.5 -1.48111e-09 -3.52742e-09 -1.49442e-09 1.06914e-09 -4.43003e-10 -2.45978e-11 
90 1 2.93989 4.58015 0.420403 0 0 1 1.0058e-10 -1.9327e-10 1.13292e-09 -1.05424e-10 1.79098e-10 -9.4927e-10 1.62509e-10 -3.62647e-11 2.01507e-10 0.5 -4.83189e-10 2.73893e-10 -1.68809e-10 8.15546e-10 4.12458e-10 1.01555e-10 
734 2 4.13742 3.24508 0.37494 0 1 1 2.65209e-10 2.62692e-10 9.96978e-10 -2.17102e-10 -2.11779e-10 -8.6536e-10 4.70241e-10 5.59358e-11 7.29445e-11 0.5 -4.13949e-10 -2.65045e-10 1.02507e-11 2.9955e-10 1.27108e-10 -2.34507e-10 
672 2 0.0675425 1.98557 1.68985 0 0 0 -7.91365e-10 -1.50242e-09 -4.0578e-10 6.71179e-10 1.27998e-09 3.59587e-10 4.75646e-10 -8.83958e-11 1.78625e-10 0.5 -1.61308e-09 -3.40665e-09 -1.24841e-09 1.36327e-09 8.6909e-10 -2.95535e-11 
759 2 4.95866 2.03867 0.950748 0 0 0 1.22554e-10 -1.44119e-10 3.00606e-10 -1.25305e-10 1.44749e-10 -2.71836e-10 4.30731e-10 -8.34687e-11 -1.22778e-10 0.5 -5.65125e-11 -1.15897e-09 -5.92456e-10 -1.53799e-10 -1.17955e-10 -1.53732e-10 
21 1 1.84566 0.35675 2.43115 0 0 0 -2.14184e-10 -1.03868e-09 -8.17807e-10 1.83628e-10 8.94417e-10 7.13031e-10 2.04215e-10 -1.60582e-10 3.2349e-10 0.5 -1.73459e-11 -8.5233e-11 -1.4616e-11 8.24093e-11 1.1973e-11 -6.92756e-11 
682 2 2.73058 4.0836 2.7725 0 0 0 1.82285e-10 -6.53873e-10 6.91845e-10 -1.39403e-10 6.22285e-10 -6.27163e-10 -1.73892e-11 4.63316e-11 1.13188e-10 0.5 -9.97256e-10 -5.56886e-10 -7.58811e-11 7.37987e-10 3.59376e-10 7.40027e-10 
907 2 0.982097 4.62503 2.63573 1 0 0 1.00358e-10 -1.55469e-09 8.94316e-10 -8.90799e-11 1.29093e-09 -7.61846e-10 7.10555e-11 -1.43107e-10 9.06156e-11 0.5 -1.10158e-09 -1.25413e-09 -1.49553e-09 5.60987e-10 5.96779e-10 -4.45204e-10 
144 1 1.68507 3.60062 2.81087 0 0 0 2.02425e-10 -1.31636e-09 1.63384e-10 -1.84693e-10 1.1244e-09 -1.40786e-10 -4.55326e-11 1.20531e-10 4.772e-11 0.5 -8.26798e-10 -1.83499e-10 -3.05748e-10 4.68603e-10 -2.31359e-10 2.01789e-11 
675 2 2.83107 4.7385 3.54541 0 0 0 -7.53586e-11 -3.98297e-10 6.89552e-10 4.51123e-11 3.55048e-10 -6.01237e-10 -1.70242e-10 1.40376e-10 -8.77718e-12 0.5 5.865e-11 2.43267e-10 4.96789e-10 2.41339e-10 -1.16346e-10 4.22574e-10 
502 2 4.38953 1.31124 3.26921 0 0 0 -1.41914e-10 -4.21984e-10 -2.55487e-10 1.03029e-10 3.6712e-10 2.00122e-10 7.224e-11 -3.08209e-12 -3.25906e-11 0.5 -7.70317e-10 -3.7401e-10 -5.09697e-10 -3.83911e-10 3.19963e-10 7.99606e-10 
27 1 2.60908 0.300739 3.21066 0 0 0 -9.11791e-11 -8.39638e-10 -5.95644e-10 1.01219e-10 7.29396e-10 5.43547e-10 1.46355e-11 -1.20973e-10 1.71855e-10 0.5 -6.75648e-10 -8.81691e-10 -1.61471e-09 3.63309e-10 5.11417e-10 1.39287e-10 
965 2 1.35576 3.65812 3.79896 1 0 0 3.16743e-10 -1.60798e-09 6.45014e-11 -2.77727e-10 1.3607e-09 -5.35059e-11 -9.09443e-11 2.73327e-10 -2.05735e-10 0.5 -2.95022e-10 -9.15974e-10 -9.72542e-10 5.37452e-10 -3.55983e-10 6.20141e-10 
61 1 1.66165 0.448609 3.51352 0 0 0 -2.95939e-10 -1.38322e-09 -1.06276e-09 2.45177e-10 1.17381e-09 9.31265e-10 6.0899e-11 -2.79221e-11 2.65333e-10 0.5 -4.837e-10 -2.32318e-11 -9.89754e-11 1.29257e-10 2.93685e-10 -3.32194e-11 
680 2 1.1901 2.78151 3.34693 0 0 0 -3.45695e-10 -1.46181e-09 2.81521e-11 3.05307e-10 1.22234e-09 -4.9077e-13 5.36103e-11 1.40349e-10 -3.45214e-11 0.5 4.55897e-11 -3.02028e-10 -4.19201e-10 7.75034e-11 1.68289e-10 1.19604e-10 
251 1 4.71421 3.03382 3.89556 0 0 0 3.23453e-10 -5.60372e-10 5.67876e-10 -2.6608e-10 5.03308e-10 -5.04028e-10 2.64385e-10 1.90329e-10 -2.84294e-10 0.5 -9.17667e-10 -1.67358e-10 3.0869e-11 -5.99184e-10 2.80274e-10 5.19864e-10 
517 2 4.0089 2.89361 2.21821 0 0 0 2.25322e-10 -4.93957e-10 5.54931e-10 -1.99023e-10 4.48611e-10 -4.87832e-10 1.14434e-10 -5.65396e-12 -3.11153e-11 0.5 -1.48632e-11 -2.70289e-12 -3.25894e-10 -3.84722e-12 -7.33503e-11 1.57225e-10 
6 1 3.42179 1.77987 2.73262 0 0 0 -1.67393e-10 -5.24466e-10 2.62444e-10 1.61882e-10 4.52203e-10 -2.51916e-10 3.08351e-10 -2.49314e-11 2.19846e-10 0.5 -8.47112e-10 2.73618e-10 1.58096e-10 4.23982e-10 3.95301e-10 3.03488e-10 
519 2 4.43345 3.61408 3.03093 0 0 0 1.17299e-10 -2.9911e-10 8.31015e-10 -8.92154e-11 3.00369e-10 -7.46922e-10 1.0203e-10 6.13603e-11 -3.59284e-11 0.5 9.31081e-11 4.93149e-10 3.64595e-10 -3.24505e-10 -1.68093e-10 2.55864e-10 
509 2 1.93621 1.51608 3.62332 0 0 0 2.17487e-10 -1.28408e-09 -8.85148e-10 -1.9999e-10 1.08749e-09 7.77077e-10 -6.85737e-11 4.07756e-10 -5.55018e-12 0.5 1.15494e-10 -1.3449e-10 -1.05487e-09 -1.35523e-10 2.31374e-10 2.99754e-10 
142 1 1.03537 1.94217 2.17003 0 0 0 -5.00412e-10 -1.20867e-09 -3.2123e-10 4.19531e-10 1.0269e-09 2.91267e-10 4.18246e-10 8.0931e-12 8.75341e-11 0.5 -3.54579e-11 -2.54752e-10 -2.42812e-10 4.19774e-10 -1.88068e-10 3.0233e-10 
941 2 0.192203 2.2584 2.77344 1 0 0 -6.70715e-10 -1.73279e-09 -2.51584e-10 5.70552e-10 1.48388e-09 2.45277e-10 2.56818e-10 3.68519e-11 7.9991e-11 0.5 -2.04232e-10 -6.89919e-10 -9.32781e-10 4.37868e-11 1.12193e-10 5.99754e-11 
919 2 0.650389 4.31552 3.53385 1 0 0 -2.59379e-11 -1.71115e-09 7.20247e-10 1.17811e-11 1.45563e-09 -6.10854e-10 2.237e-10 1.03896e-10 -2.71092e-10 0.5 -6.96174e-10 -1.22132e-09 -6.89017e-10 6.86765e-10 -2.20895e-11 4.31065e-10 
95 1 3.53903 3.77814 2.2694 0 0 1 2.74044e-10 -4.76709e-10 7.31735e-10 -2.45133e-10 4.30391e-10 -6.39261e-10 1.35027e-11 1.23757e-11 4.88733e-11 0.5 -4.13757e-10 -1.43778e-10 -8.36998e-10 1.09455e-10 2.35016e-10 -1.2102e-10 
458 1 1.5569 4.7536 3.86468 1 0 0 4.46662e-11 -1.18741e-09 9.86954e-10 -4.98679e-11 1.007e-09 -8.48676e-10 -1.99629e-10 5.21848e-11 8.28384e-11 0.5 -5.03229e-10 -3.18283e-10 -2.95436e-10 4.1995e-10 -8.8248e-11 -6.61712e-12 
41 1 1.14045 0.960462 2.01108 0 0 0 -3.56247e-10 -1.12949e-09 -6.94389e-10 3.03964e-10 9.5319e-10 5.9466e-10 3.72894e-10 -5.63774e-11 2.05679e-10 0.5 -3.76868e-10 -3.51017e-10 -8.96621e-10 2.37047e-10 5.26912e-10 -2.81849e-10 
814 2 0.27112 1.22753 3.40348 1 0 0 -1.34544e-10 -1.44385e-09 -5.69955e-10 1.11919e-10 1.22968e-09 5.14256e-10 2.05006e-10 -1.22483e-10 3.72217e-10 0.5 -6.9256e-10 -7.39588e-10 -8.71808e-10 2.977e-10 6.3459e-10 9.33232e-10 
130 1 1.70518 2.6475 2.50033 0 0 0 -3.73217e-10 -1.26564e-09 -2.02127e-11 3.04213e-10 1.07525e-09 4.57771e-11 3.37226e-10 -1.35416e-10 -1.46477e-10 0.5 -1.6478e-10 -9.08803e-10 -7.99516e-10 4.85988e-10 2.85008e-10 6.04062e-10 
12 1 2.70258 1.09575 2.61132 0 0 0 1.20679e-10 -7.10998e-10 -3.92476e-10 -9.81346e-11 5.96839e-10 3.45906e-10 2.15157e-10 -2.3865e-10 2.3404e-10 0.5 -1.1893e-09 -1.34967e-09 -9.31656e-10 8.28202e-10 4.02273e-10 4.94333e-11 
512 2 3.18635 2.03167 3.78747 0 0 0 5.79865e-11 -1.81398e-10 3.83184e-10 -7.07581e-11 1.48853e-10 -3.25852e-10 2.51673e-10 -5.22436e-11 1.72889e-10 0.5 -2.67531e-10 -4.99214e-10 -4.70692e-10 1.19389e-10 -1.27468e-10 5.45524e-10 
151 1 2.47925 3.30049 3.34132 0 0 0 1.58942e-10 -7.69321e-10 5.22898e-10 -1.44208e-10 6.46467e-10 -4.36879e-10 -9.7122e-11 -7.85037e-11 5.37459e-11 0.5 -3.71458e-10 -1.17157e-09 -1.14607e-09 3.48648e-10 2.1206e-10 2.82763e-10 
667 2 0.284319 1.3208 2.4071 0 0 0 -3.5413e-10 -1.48493e-09 -5.62517e-10 3.02298e-10 1.27734e-09 5.09751e-10 2.37881e-10 7.53551e-11 2.23014e-10 0.5 -4.191e-10 -1.94505e-09 -1.50074e-09 1.20806e-10 -2.28999e-11 1.74826e-10 
38 1 3.79042 0.738149 3.87284 0 0 0 -1.1106e-11 -7.95039e-11 -3.29455e-10 5.41624e-12 9.30032e-11 2.4849e-10 -2.541e-10 -8.09779e-11 3.41071e-11 0.5 -6.68016e-10 -2.05876e-10 -1.78849e-09 -7.88654e-10 3.84889e-10 1.30835e-09 
936 2 0.319906 3.36948 3.50683 1 0 0 -6.2729e-10 -1.48131e-09 3.07845e-10 5.33354e-10 1.25265e-09 -2.51702e-10 2.4278e-10 -1.97025e-10 -1.50482e-10 0.5 6.0761e-11 -1.48053e-09 -6.10219e-10 2.49198e-11 6.92682e-10 9.34777e-10 
531 2 4.80013 0.808197 2.48028 0 0 0 -3.07908e-10 -7.52134e-10 -2.29209e-10 2.91737e-10 6.87639e-10 2.30731e-10 2.28277e-11 -4.84352e-11 -1.21248e-10 0.5 -2.60333e-10 2.98608e-11 -5.41329e-10 -3.21409e-10 -5.17137e-10 -2.5921e-10 
527 2 4.03024 4.31517 3.61908 0 0 0 2.06387e-10 -3.45743e-10 9.59307e-10 -1.71848e-10 3.16706e-10 -8.45941e-10 -1.30758e-10 -3.95722e-12 4.27132e-11 0.5 7.59125e-11 1.23267e-10 4.16753e-10 -2.06495e-10 -2.07799e-10 4.9939e-10 
383 1 4.36293 4.34454 2.28892 0 0 1 1.01198e-10 -2.22247e-10 6.98174e-10 -7.97817e-12 1.99638e-10 -6.13486e-10 4.06356e-11 -8.55083e-11 -5.21433e-12 0.5 -4.19737e-10 -8.08926e-11 2.61247e-10 3.99662e-10 -1.11734e-10 -2.16979e-10 
992 2 0.695682 0.439322 3.85269 1 1 0 -8.08234e-11 -1.53635e-09 -8.44648e-10 6.08961e-11 1.2626e-09 7.61232e-10 6.73881e-11 2.27894e-10 1.39005e-10 0.5 -5.77495e-10 -1.45142e-09 -3.42284e-10 4.24351e-10 -2.10344e-10 7.70471e-10 
521 2 4.93615 4.52796 3.25037 0 0 0 1.09703e-10 -2.56729e-10 7.70987e-10 -1.07237e-10 2.39072e-10 -6.66061e-10 -9.30161e-11 4.63967e-11 3.539e-11 0.5 1.7898e-10 -3.98099e-10 -4.06467e-10 2.69652e-11 -7.67855e-11 4.50463e-10 
136 1 1.88498 1.67143 2.62265 0 0 0 -3.31694e-10 -1.34586e-09 -7.19663e-10 2.83675e-10 1.15397e-09 6.2742e-10 1.52517e-10 2.14034e-10 1.64403e-10 0.5 -1.3855e-09 -1.37844e-09 -8.90569e-10 9.88427e-10 -1.52899e-10 4.0497e-10 
540 2 4.51129 0.178592 3.415 0 0 0 -1.2756e-10 -4.33339e-10 -4.02994e-10 9.52297e-11 3.88513e-10 3.30772e-10 -1.82068e-10 1.16559e-10 -1.50009e-10 0.5 4.23632e-10 2.64649e-10 8.06852e-11 -2.4561e-10 -1.69827e-10 2.43675e-10 
510 2 3.85504 2.56842 3.17077 0 0 0 -2.16637e-10 -5.54502e-10 3.87196e-10 1.68267e-10 4.80594e-10 -3.49985e-10 5.01455e-11 -3.74181e-11 8.94599e-12 0.5 3.51443e-10 5.4086e-10 -3.45115e-10 1.22304e-10 5.50542e-11 4.62612e-10 
19 1 4.3655 1.84749 2.40882 0 0 0 -2.60766e-10 -4.40603e-11 9.00357e-11 1.25013e-10 4.96263e-11 -5.66987e-11 1.14443e-10 3.24199e-11 4.41222e-11 0.5 -1.28596e-09 -5.54404e-11 -6.94666e-10 7.60673e-11 5.76193e-10 1.27644e-10 
543 2 1.07326 1.78713 3.19513 0 0 0 -9.1877e-11 -1.42772e-09 -3.63003e-10 4.76607e-11 1.20451e-09 3.34244e-10 2.9336e-10 2.69353e-10 1.0233e-10 0.5 -1.05497e-10 -1.72608e-10 -5.86431e-11 -2.47069e-10 2.09219e-10 1.15517e-10 
773 2 4.78774 2.22773 3.30763 0 0 0 -1.56591e-10 -4.39439e-10 3.28202e-10 1.22028e-10 4.00884e-10 -2.97745e-10 1.22434e-10 1.17959e-10 -9.97857e-11 0.5 9.39511e-11 -1.05793e-09 -2.01294e-09 -1.66323e-10 3.61024e-10 2.07265e-09 
555 2 2.23907 2.5056 3.89852 0 0 0 5.10012e-11 -6.56628e-10 6.37581e-10 -6.03046e-11 5.78593e-10 -5.49803e-10 -9.13583e-11 -2.36865e-11 7.69112e-11 0.5 3.57361e-10 4.03048e-10 4.05227e-10 2.02032e-10 -2.01771e-11 3.97397e-10 
429 1 0.306925 2.40106 3.75655 1 0 0 -5.06206e-10 -1.61393e-09 -2.87832e-10 4.2826e-10 1.36587e-09 2.57362e-10 1.57672e-10 6.86882e-11 2.87982e-10 0.5 -2.67123e-10 -2.38229e-09 -1.34088e-09 5.52243e-10 -3.63857e-10 1.31039e-09 
316 1 0.889712 0.512877 2.86992 1 0 0 -4.39083e-10 -1.49647e-09 -9.15031e-10 3.64697e-10 1.27369e-09 8.00933e-10 1.73961e-10 3.09296e-11 2.37253e-10 0.5 1.05096e-10 -2.88769e-10 -2.40784e-10 9.48956e-11 6.3389e-11 2.85017e-10 
503 2 3.61689 0.768796 2.88623 0 0 0 6.27799e-11 -6.6842e-10 -3.30984e-10 -5.99754e-11 5.79566e-10 2.77186e-10 -3.15239e-11 -6.67877e-11 1.39388e-10 0.5 -3.34075e-10 8.23067e-12 -1.42621e-09 7.59848e-11 -1.56005e-10 4.09787e-10 
896 2 0.702247 3.66501 2.63024 1 0 0 1.15043e-10 -1.55754e-09 6.23468e-10 -1.17571e-10 1.34713e-09 -5.2408e-10 1.78319e-10 8.96964e-11 -7.40043e-11 0.5 -1.07087e-09 -4.54239e-10 -1.55179e-09 2.98602e-10 -5.83214e-10 4.6912e-10 
690 2 1.93672 4.67095 2.92999 0 0 0 3.78073e-11 -9.31815e-10 1.00123e-09 -2.37639e-11 7.93907e-10 -8.58053e-10 -1.34343e-11 6.89816e-11 2.68329e-10 0.5 -1.09861e-09 -5.38203e-10 -2.37533e-10 7.33792e-10 -2.52487e-11 -1.16852e-10 
641 2 3.45948 3.5005 3.22725 0 0 0 1.0784e-10 -3.61863e-10 7.45799e-10 -7.30377e-11 3.22581e-10 -6.47747e-10 -7.81981e-11 -2.20393e-11 1.01454e-10 0.5 -1.55155e-10 1.15541e-10 -7.11927e-10 2.25952e-10 -3.85894e-10 8.64299e-10 
528 2 3.34275 4.80215 2.44243 0 0 0 2.16731e-10 -6.8598e-10 6.85672e-10 -2.16714e-10 5.7011e-10 -5.87671e-10 -1.85374e-11 2.32458e-11 4.54278e-11 0.5 -5.8234e-11 -1.12477e-10 -3.08684e-10 -1.18964e-10 -7.94453e-11 -1.15692e-10 
225 1 2.66658 2.37982 2.99794 0 0 1 -3.36454e-10 -8.28273e-10 4.43774e-10 2.85951e-10 7.08061e-10 -3.85618e-10 -7.08421e-11 1.68585e-10 7.0197e-11 0.5 -3.414e-10 -8.78278e-10 -1.0474e-10 5.25126e-10 -3.13877e-10 1.70121e-11 
119 1 0.614476 2.84343 2.06694 0 0 0 -6.79246e-10 -1.22985e-09 2.6922e-10 5.73406e-10 1.03339e-09 -2.379e-10 4.02573e-10 5.25232e-11 -7.32756e-12 0.5 1.68072e-10 -5.9985e-10 -9.677e-10 2.28909e-10 3.68766e-10 6.61331e-11 
94 1 2.46189 3.50067 2.00487 0 0 1 -5.54912e-11 -8.94397e-10 9.4897e-10 4.19161e-11 7.68035e-10 -8.16797e-10 1.52211e-10 -3.27349e-11 5.66603e-11 0.5 2.1337e-10 3.21352e-10 1.11197e-10 2.85467e-10 2.19089e-10 3.49673e-10 
522 2 2.58373 2.50801 2.00903 0 0 0 -1.5323e-10 -9.10693e-10 4.18997e-10 1.26903e-10 7.83188e-10 -3.56958e-10 3.0853e-10 -1.03214e-10 1.30652e-10 0.5 1.46202e-10 1.05078e-10 -3.71892e-10 2.67704e-10 2.35518e-10 1.09324e-10 
200 1 2.46549 0.208501 4.19599 0 1 0 2.29283e-10 -5.09022e-10 -5.17726e-10 -2.22876e-10 4.48966e-10 3.92422e-10 -2.96895e-10 -2.09242e-10 5.15773e-10 0.5 -6.9391e-10 -3.7238e-10 -1.25962e-09 2.46671e-10 4.38397e-10 3.44075e-10 
114 1 4.70709 1.00384 4.17137 0 0 0 -6.58548e-11 -8.38125e-11 -1.70719e-10 7.34179e-12 8.31098e-11 1.16389e-10 -1.07551e-10 -7.85641e-11 -1.12372e-10 0.5 -4.5744e-10 1.80028e-12 -1.69355e-10 -5.01177e-11 -3.07408e-10 -4.64722e-12 
820 2 1.30996 2.29325 4.21136 1 0 0 -1.63917e-11 -1.10274e-09 1.84461e-10 -6.47726e-12 9.50403e-10 -1.77406e-10 -1.92417e-10 -1.19665e-10 3.15053e-10 0.5 1.95645e-10 3.40639e-10 -2.80462e-10 1.02532e-09 1.89283e-10 5.04988e-10 
47 1 4.65574 1.582 5.43553 0 0 0 2.27937e-10 1.30499e-10 6.96153e-11 -2.21271e-10 -9.93336e-11 -6.80783e-11 3.25493e-11 1.79568e-10 8.20262e-11 0.5 -4.63896e-10 -7.99446e-10 -3.24395e-10 -1.92705e-10 -3.95481e-10 6.8292e-10 
824 2 1.64908 3.83184 5.79238 1 0 0 9.75743e-11 3.1977e-10 1.02273e-09 -8.93791e-11 -2.71456e-10 -8.65318e-10 -2.33847e-10 3.56515e-11 -7.25004e-11 0.5 -1.54195e-10 -1.25588e-10 -5.47105e-10 -1.93673e-11 -1.56441e-11 1.96265e-10 
172 1 3.44268 0.338821 4.72114 0 1 0 -1.24974e-10 3.99e-10 -1.50939e-10 6.84264e-11 -3.50913e-10 1.29656e-10 -3.5228e-10 -9.64901e-11 1.82491e-10 0.5 -6.31852e-10 -6.67157e-10 -2.34508e-09 -5.54689e-10 5.65007e-10 9.72478e-10 
718 2 0.202285 2.03673 5.5128 0 1 0 -1.59561e-10 -4.76144e-10 3.12527e-10 1.28696e-10 3.93321e-10 -2.49795e-10 -2.6216e-10 -1.06784e-10 -5.16681e-11 0.5 -1.15839e-09 -2.7696e-10 -7.55295e-10 5.59681e-10 -5.9455e-10 1.56423e-09 
505 2 0.484433 3.5018 5.83385 0 0 -1 -1.25709e-10 3.58209e-10 8.02311e-10 1.13422e-10 -3.58101e-10 -6.55674e-10 5.14575e-11 -1.29186e-10 3.47583e-10 0.5 3.35342e-12 -1.92712e-09 -1.01034e-09 1.33679e-10 -3.37799e-11 1.61774e-09 
524 2 3.99535 2.7352 5.70679 0 0 0 7.41004e-10 1.08589e-09 1.07913e-09 -6.69286e-10 -9.12608e-10 -9.50944e-10 -2.56062e-10 7.38345e-10 3.50239e-10 0.5 2.28565e-11 1.7737e-10 2.15429e-10 -1.56854e-10 -1.75479e-10 1.94139e-10 
839 2 0.579387 1.61472 4.31101 1 0 0 2.01592e-10 -1.46003e-09 -4.16191e-10 -1.87675e-10 1.24051e-09 4.08888e-10 -9.86915e-11 1.09394e-11 2.94255e-10 0.5 -8.70973e-11 -1.49827e-09 -8.81634e-10 1.0979e-09 -1.03879e-10 1.60377e-09 
937 2 2.44361 3.38654 4.3372 1 0 0 1.75729e-10 -5.46247e-10 4.91985e-10 -1.54079e-10 4.83254e-10 -4.23345e-10 -2.01871e-10 -1.14307e-10 2.6236e-10 0.5 5.55562e-10 5.38014e-10 -1.01444e-09 7.62059e-10 1.7776e-12 4.61478e-10 
811 2 2.60623 3.94632 5.52498 1 0 0 -1.26134e-11 3.26239e-10 6.35501e-10 2.66359e-12 -2.71136e-10 -5.46415e-10 -2.40262e-10 -1.17775e-10 1.01305e-12 0.5 -1.042e-10 -4.16787e-10 -1.41971e-10 -1.69003e-10 -1.96249e-10 4.51914e-10 
827 2 1.52088 3.18133 4.66349 1 0 0 2.41379e-10 -1.11206e-09 3.34655e-10 -2.01805e-10 9.49036e-10 -2.9022e-10 -3.51981e-10 -1.68723e-10 2.95034e-11 0.5 3.50796e-10 -5.56623e-11 -8.21757e-10 1.16896e-10 4.4067e-11 6.75226e-10 
149 1 4.05563 3.93275 4.61881 0 0 0 5.67709e-12 2.06204e-10 8.12024e-10 -1.66511e-11 -1.70077e-10 -7.03088e-10 -1.37079e-10 5.6618e-11 2.13533e-10 0.5 -4.89779e-10 -4.08225e-10 2.75672e-10 1.3104e-09 -8.39061e-10 3.64667e-10 
925 2 0.623246 3.59905 4.52293 1 0 0 3.58952e-10 -9.09422e-10 1.55234e-10 -3.13129e-10 7.59393e-10 -1.25326e-10 -3.24931e-10 1.42465e-10 -5.12317e-11 0.5 3.63027e-10 -5.32224e-10 -1.40058e-10 -1.39305e-10 -9.22059e-11 2.68438e-10 
168 1 3.33522 4.60361 5.33159 0 0 0 6.14601e-11 2.94811e-10 8.35761e-10 -5.48648e-11 -2.54766e-10 -7.26464e-10 -2.17076e-10 -1.18423e-10 1.96427e-10 0.5 -6.54766e-10 -5.15043e-10 -5.33006e-10 2.3276e-10 -3.79455e-10 4.35759e-10 
928 2 1.57471 4.4088 4.9787 1 0 0 1.74336e-10 2.26825e-10 9.58998e-10 -1.56958e-10 -1.87244e-10 -8.09654e-10 -1.46987e-10 6.1759e-11 -1.31194e-10 0.5 -2.59539e-10 -3.15698e-10 -3.39544e-10 -1.45312e-10 4.62934e-12 3.02838e-10 
148 1 3.93983 3.74234 5.7457 0 0 0 -1.12583e-10 1.05286e-09 1.17538e-09 7.71115e-11 -8.8755e-10 -1.03417e-09 -2.94326e-10 -9.35439e-11 5.15428e-10 0.5 3.09126e-10 5.91008e-10 7.59435e-10 4.5182e-10 5.22339e-10 4.51655e-10 
914 2 4.69244 4.38506 5.24423 0 0 0 -3.48247e-10 6.52352e-10 8.57644e-10 2.87789e-10 -5.34741e-10 -7.57769e-10 -4.47231e-10 -8.53073e-11 -1.36243e-11 0.5 -2.33825e-11 1.56969e-10 2.65442e-10 5.45903e-11 8.66374e-11 1.67333e-10 
23 1 2.87773 1.11847 4.05716 0 0 0 -1.34966e-10 -3.50386e-10 -4.3952e-10 9.82053e-11 2.92058e-10 3.76718e-10 1.30666e-10 7.09321e-12 1.3556e-10 0.5 -5.34389e-10 -5.05124e-10 -4.40924e-10 -1.72805e-10 2.62116e-10 4.24486e-10 
594 2 2.05586 1.97089 4.80241 0 0 0 1.8831e-10 1.16417e-10 5.22841e-10 -1.78993e-10 -1.05134e-10 -4.38611e-10 1.2535e-10 -1.43068e-10 4.1416e-10 0.5 1.41881e-11 -6.90678e-10 -1.52173e-10 5.71115e-10 -2.82063e-10 4.3412e-10 
539 2 3.78455 1.04074 5.46912 0 0 0 4.21827e-11 8.22124e-10 2.22602e-10 -6.51256e-11 -6.97995e-10 -2.06516e-10 -1.38769e-10 2.55195e-10 -5.19906e-11 0.5 -2.3706e-10 -2.29854e-09 -1.00939e-09 -7.17356e-10 -6.34822e-10 1.96095e-09 
730 2 0.461765 1.11568 5.16957 0 1 0 -7.20159e-11 -5.17556e-10 9.4394e-11 5.24577e-11 4.52394e-10 -1.10145e-10 -1.16684e-10 -6.87308e-11 3.95242e-10 0.5 6.33836e-10 -9.26939e-11 -5.15849e-10 1.3079e-10 -1.60514e-10 1.10438e-09 
689 2 3.51933 0.103669 5.69619 0 1 0 -1.32503e-10 7.74609e-10 -1.7613e-10 8.83241e-11 -6.44979e-10 1.29037e-10 -8.70602e-11 -7.58132e-11 -1.0178e-12 0.5 -9.35647e-10 -2.80932e-09 -2.42393e-09 -2.98281e-10 7.05625e-11 2.1115e-09 
450 1 0.619288 4.79871 4.46892 1 0 0 8.74472e-10 -6.59906e-10 6.90624e-10 -7.51323e-10 5.56706e-10 -5.80528e-10 -6.20041e-10 -1.51505e-10 1.14908e-10 0.5 -2.96062e-10 -8.33581e-10 -1.8103e-09 7.98541e-11 -3.22868e-10 9.98407e-10 
549 2 4.49944 0.500888 5.01435 0 0 0 -4.25364e-10 2.81991e-10 -2.8629e-11 3.34545e-10 -2.33101e-10 1.14207e-11 -9.71567e-11 9.38931e-11 -2.47909e-10 0.5 7.40273e-10 9.59955e-10 4.18616e-10 -4.44729e-10 -2.50328e-10 4.79064e-10 
591 2 1.44655 1.12499 4.40334 0 0 0 4.1161e-10 -1.1179e-09 -6.94215e-10 -3.6904e-10 9.44483e-10 6.13083e-10 -1.777e-10 2.04521e-10 2.63027e-11 0.5 -6.10038e-10 -9.28993e-10 -7.19615e-10 2.39812e-10 7.72506e-11 7.13061e-10 
243 1 1.20287 1.83742 5.34381 0 1 0 -2.16483e-10 -5.15535e-11 -1.33209e-11 1.55096e-10 3.71783e-11 5.74207e-12 -1.01983e-10 -6.83318e-11 2.15687e-10 0.5 -3.35947e-10 -3.61229e-10 -1.35258e-10 4.97763e-10 -1.93919e-10 5.18554e-10 