ITEM: TIMESTEP
120000
ITEM: NUMBER OF ATOMS
1000
ITEM: BOX BOUNDS xy xz yz pp pp pp
0.0000000000000000e+00 1.0000000000000000e+01 0.0000000000000000e+00
0.0000000000000000e+00 1.0000000000000000e+01 0.0000000000000000e+00
0.0000000000000000e+00 1.0000000000000000e+01 0.0000000000000000e+00
ITEM: ATOMS id type x y z ix iy iz vx vy vz fx fy fz omegax omegay omegaz radius c_2[1] c_2[2] c_2[3] c_2[4] c_2[5] c_2[6] 
120 1 3.15913 1.53987 0.0715117 0 1 0 -0.0010484 0.00285853 0.00127972 0.00101074 -0.00272648 -0.0011256 0.00131866 -0.000478072 -0.000971243 0.5 -0.00101692 -0.00515723 -0.000351285 -0.000586747 -6.68862e-05 -0.000968519 
525 2 2.11677 1.23654 1.70236 0 0 0 -0.000743728 -0.0035595 -0.00415738 0.000582459 0.00295464 0.00360781 -0.000559401 -0.000218809 0.000912324 0.5 -5.96574e-05 -0.000373082 0.000114351 0.000411131 0.000366667 -0.000298066 
371 1 4.95876 3.68469 1.58161 0 0 1 0.000834064 -0.00230923 0.00364519 -0.000604093 0.00190997 -0.00327604 0.000494013 2.98895e-05 0.000144356 0.5 0.00012995 -0.00204684 0.00252638 -0.000321047 -0.000278802 2.68403e-05 
18 1 1.98145 2.69169 0.530691 0 0 0 -0.000452188 0.000590394 0.00300479 0.000368187 -0.000710643 -0.00258011 0.00191851 -0.000968896 0.000768664 0.5 3.76753e-05 -0.00357009 -0.00196037 0.00265422 0.00266984 -0.00247696 
94 1 2.462 3.50248 2.00285 0 0 1 -0.000301527 -0.00289522 0.00333964 0.000411188 0.00237942 -0.00290253 0.000826125 -0.000410752 0.000159587 0.5 0.00115111 0.000977565 0.000846173 0.000872345 0.00121852 0.0015273 
25 1 1.41567 0.709039 1.08606 0 0 0 -0.000215455 -0.000423091 -0.0049886 6.73605e-05 0.000261018 0.00459403 0.00162139 -0.000227751 0.000696389 0.5 -0.00220488 -0.0105485 -0.00490397 0.00400768 0.00302503 -0.00439299 
378 1 4.61921 2.40643 0.0708426 0 0 1 -0.000121355 0.00141697 0.00300057 0.000256023 -0.00140048 -0.00270345 0.00210198 0.00055695 -0.000356996 0.5 -0.00105869 -0.00247973 -0.00118822 -0.00153711 -0.000777621 -0.00277043 
8 1 3.44129 2.06918 1.74167 0 0 0 0.000218156 -0.00192504 0.00153272 -0.000164631 0.0015254 -0.001465 0.00163776 -0.000671881 0.000201616 0.5 -0.000816335 -0.000698332 0.000500155 0.00092503 0.00153738 -0.000316139 
629 2 4.07664 2.61624 1.19626 0 0 1 0.000785706 -0.000934716 0.0031889 -0.000606149 0.000627966 -0.00287399 0.00203085 -0.000344688 -3.70016e-05 0.5 -0.00224328 -0.00146965 -0.00239899 0.000290357 -0.000778148 -0.000658342 
5 1 2.34704 3.90269 1.05138 0 0 0 -0.000947757 -0.00344529 0.00340067 0.000781152 0.00251365 -0.00297289 9.23935e-05 4.01593e-05 0.000975413 0.5 -0.000484808 -0.000777546 -0.000869646 0.000660669 0.000495564 -0.000550151 
650 2 0.460613 3.43846 1.13047 0 0 0 -0.0026071 -0.00298347 -0.00175075 0.00242686 0.00261783 0.00204342 0.00158274 0.000681421 0.000295154 0.5 -0.00321886 -0.00382522 -0.00299341 0.00232451 0.00258241 -0.0020875 
14 1 3.29511 3.135 1.54282 0 0 0 -2.38935e-05 -0.0021586 0.00319685 0.000144376 0.00170939 -0.00280514 0.00122138 0.000125834 3.85507e-05 0.5 0.000115823 -0.000976516 -0.00118087 0.00073213 0.000367623 -0.00153369 
264 1 3.9959 3.86938 1.37736 0 0 0 0.000804738 -0.00233585 0.00374495 -0.00058424 0.00181408 -0.00343225 0.0015084 0.000298278 4.02805e-05 0.5 -0.000153651 6.43015e-05 -0.00167998 0.000692631 0.000747059 -9.61218e-05 
223 1 0.748848 2.47972 1.14594 0 0 1 -0.00206515 -0.00273725 -0.000628695 0.0018661 0.00237071 0.000719966 0.00213084 -0.000691232 0.000744821 0.5 -0.00243855 -0.00490526 -0.0137758 0.00152615 0.00538591 -0.00366152 
364 1 4.42303 4.23623 0.537108 0 0 1 -0.000605182 0.00131629 0.00467841 0.000587738 -0.00132551 -0.00423805 0.0012504 9.12354e-05 0.000809826 0.5 0.000383266 -0.00022278 5.05221e-05 -4.34588e-05 0.000679239 -0.000453395 
107 1 1.66155 1.61807 0.749333 0 0 1 -0.00129414 0.000439584 -0.003397 0.0011211 -0.000515253 0.00323983 0.00232415 1.94372e-05 0.000260475 0.5 0.00215476 -0.00179222 -0.00147637 -0.000432042 0.000296398 -0.00156846 
529 2 2.67227 2.20001 1.06159 0 0 0 0.000672402 -0.000497063 0.000564905 -0.000624861 0.000192905 -0.000494091 0.00208956 -0.000422314 0.000491624 0.5 0.000216955 -0.000366912 -0.000827465 8.48763e-05 0.000972811 -0.000374699 
515 2 4.38635 0.437351 1.64439 0 0 0 0.000121538 -0.002337 -0.000891416 -8.10291e-05 0.00194175 0.000803916 0.00131284 0.000171793 -0.00018769 0.5 -0.00344908 -0.00239599 -0.0040083 -0.00393569 0.00183162 0.00145593 
244 1 4.11363 0.570242 0.682992 0 1 1 0.000133812 0.000450187 -0.000417476 -4.85283e-05 -0.000523193 0.000355098 0.00182751 0.000441751 -0.000447903 0.5 -0.00198071 -0.00178107 -0.00299251 -0.00105339 0.00135495 0.000916564 
20 1 2.90158 0.571889 1.78477 0 0 0 0.000385852 -0.00167521 -0.00156466 -0.000370146 0.00133358 0.00135027 0.000929336 -0.000616828 0.000184842 0.5 -0.00271587 -0.00450777 -0.006294 0.000107536 0.00337652 -0.0035584 
280 1 4.09046 1.58238 1.14579 0 0 0 0.000497028 -0.000462398 0.000862185 -0.00038294 0.000187111 -0.000827326 0.00180466 -0.000234951 -0.000212513 0.5 -0.00308725 -0.00221168 -0.00588937 -0.000239392 0.00364376 0.000544838 
620 2 1.39577 4.37216 0.856842 0 0 1 -0.00229739 -0.00217751 0.00101928 0.00232331 0.00182277 -0.000515424 0.00180364 0.000739574 -6.98883e-06 0.5 -0.000621251 -0.004002 -0.00724433 -0.000325458 0.000239255 0.00140152 
1000 2 3.60282 2.39755 0.338204 0 1 1 0.000677412 0.00139287 0.00280549 -0.000387199 -0.00147162 -0.00257551 0.00160109 -0.00015508 -0.000302524 0.5 -0.00155124 -0.00419729 -0.0015842 -0.00106712 -0.00106646 -0.000615349 
103 1 3.2844 3.68359 0.696419 0 0 1 -0.000210664 -0.000446819 0.00428792 0.000240759 8.59745e-05 -0.00381553 0.00160857 -7.96151e-05 0.000746157 0.5 4.11914e-05 0.000490911 -0.000376997 0.000323601 0.000849052 -0.000573174 
622 2 0.931937 4.8036 0.0830768 0 0 1 -0.00258833 0.000575202 0.00272751 0.00275261 -0.000729433 -0.00218766 0.00267532 -0.000797649 0.000847753 0.5 0.000149241 0.000594099 -0.0035628 -0.000309115 -0.00117831 0.000689188 
506 2 0.74475 1.45302 1.18495 0 0 0 -0.00191489 -0.00282329 -0.00454307 0.00158678 0.00247883 0.00419815 0.00193231 -0.000151602 0.00132657 0.5 -0.000120667 -0.0062684 -0.000656734 0.00714768 0.00202831 -0.00387342 
626 2 1.28954 3.41727 0.566808 0 0 1 -0.00243146 -0.00130256 -0.00137601 0.00224294 0.00104785 0.00167569 0.000500767 -0.00135603 0.00096483 0.5 -0.00261569 -0.00402687 -0.000846858 0.0018226 0.00237731 -0.00149019 
553 2 0.743867 0.0787282 1.56679 0 0 0 0.000473056 -0.00222401 -0.00651159 -0.00064022 0.00203134 0.00599779 0.000209708 -0.00092647 0.00144856 0.5 0.000539547 0.000534066 0.000429396 -0.000194606 0.000419194 -0.000720565 
135 1 1.54705 3.2067 1.67754 0 0 0 0.00102791 -0.00331807 -0.000958382 -0.000862428 0.00296005 0.00104584 0.00108179 -0.00224829 2.06607e-05 0.5 0.000376136 -0.00940037 -0.00132429 0.00228331 0.00114493 -0.000542769 
624 2 4.32435 4.92199 1.46914 0 0 1 0.00032267 -0.00174848 0.00424112 -0.000177265 0.00155828 -0.00392855 0.00107932 0.000573464 0.000192096 0.5 0.000453333 0.000412356 -0.0029659 0.000156572 -0.000817543 -0.00172487 
256 1 4.58692 1.36751 0.304742 0 0 0 0.00039771 0.000694113 0.000506269 -0.000250156 -0.000769447 -0.000501804 0.00197534 0.000460027 -0.000922219 0.5 -0.00162534 -0.00252053 -0.00591719 -0.00172045 0.00260291 -0.00151152 
260 1 3.31848 0.0705617 1.02657 0 0 0 5.16296e-05 -0.000755924 -0.0023589 1.09376e-05 0.00056818 0.00206934 0.00103869 0.000856313 -0.000741965 0.5 -0.00220415 -0.00481752 -0.00451904 -0.000674709 0.00145155 -0.00252959 
616 2 3.19053 4.48241 1.50438 0 0 1 0.000796927 -0.00286067 0.00392821 -0.00055253 0.00225115 -0.00363305 0.000145953 8.06579e-05 0.000200469 0.5 -0.000990869 -0.000451757 -0.000612335 0.000752664 0.000431571 -0.000388732 
106 1 1.74481 2.23764 1.52985 0 0 1 0.000736003 -0.00344451 -0.000529555 -0.000717509 0.00306269 0.000576746 0.00180169 -0.000835957 -0.000294291 0.5 -1.56709e-05 -0.00515205 -0.00130531 0.00126741 0.00223356 -0.001326 
157 1 1.38938 4.181 1.83838 0 0 0 0.000371196 -0.00370295 0.000740929 -0.000134883 0.00328849 -0.000252282 0.00142855 0.000537816 0.000271098 0.5 -0.00243803 -0.00706487 -0.00786714 0.00127976 0.0029161 -0.00160259 
516 2 2.34685 0.889529 0.689033 0 0 0 0.000186882 0.00169757 -0.00193355 -0.000254089 -0.00167383 0.00185374 8.55148e-05 -0.00141022 -0.000457226 0.5 0.00033764 -0.000958774 -0.000385011 0.000177836 0.00192977 -0.00164215 
183 1 0.416496 4.58449 1.00175 0 0 0 -0.00250653 -0.00400543 0.00297571 0.0026115 0.0037724 -0.00212789 0.00323272 0.000708076 0.000833477 0.5 0.00051326 -0.000390752 -3.38506e-05 0.00019214 -0.000271316 6.42215e-06 
625 2 0.401187 3.91216 0.20976 0 0 1 -0.00230151 -5.46132e-05 -9.31719e-05 0.002329 7.25203e-05 0.000682355 0.00351676 -0.000392122 -0.000408327 0.5 -0.000277881 -3.03418e-05 -0.000940588 -0.000160612 -0.00036161 0.000431296 
91 1 2.22021 4.71891 1.69475 0 0 1 0.000558229 -0.0035151 0.00272719 -0.000234264 0.00294436 -0.00229154 0.000509877 -0.00084573 -0.000165239 0.5 -0.00172317 -0.00224707 -0.000854015 -0.000869215 0.00100656 -0.000556579 
257 1 4.93994 2.6927 1.70651 0 0 0 0.000823972 -0.00238951 0.00300827 -0.000685268 0.00198559 -0.00269096 0.00111722 0.000184985 -0.000188238 0.5 -0.00222271 -0.00223636 -0.00700625 -0.000126119 -0.0015004 -0.00147056 
4 1 3.72154 1.1292 1.95728 0 0 0 0.000338641 -0.00228997 -0.000228695 -0.000297033 0.00186749 0.000145282 0.00142762 -0.000138929 -8.53106e-05 0.5 -0.000902214 -0.00111238 -0.00430051 -0.00188847 0.00165573 0.00234935 
522 2 2.58392 2.50983 2.00827 0 0 0 -0.000348188 -0.00291493 0.00126132 0.000360948 0.00238983 -0.00112541 0.00137332 -0.000876321 0.000470033 0.5 -0.0017863 -0.000182466 -0.000764067 0.0017684 0.00278736 -1.69365e-05 
117 1 3.12712 1.31424 1.15386 0 1 0 0.000540884 -0.000655984 -0.000310242 -0.000423902 0.00036888 0.000198315 0.00170291 -0.000524361 -0.00016497 0.5 0.00027349 -0.000812022 0.000759211 -0.000206388 0.00129906 0.000428566 
511 2 1.08124 2.24912 0.231421 0 0 0 -0.000773991 0.00254025 -0.00149413 0.000691377 -0.00239634 0.00151605 0.00314368 -0.00031395 -0.000612732 0.5 -0.00134516 -0.00491698 -0.0129599 0.00140689 0.00577824 -0.0027167 
911 2 0.492119 0.564176 0.701025 1 0 0 -6.2376e-05 -0.00087711 -0.00591482 -5.77269e-05 0.000742951 0.00537714 0.000417 -0.000440701 -0.000298288 0.5 0.00119553 -0.00390109 0.000112494 -0.000339198 0.000525092 -0.00165678 
668 2 0.00207379 3.82331 1.93226 0 0 0 0.000222192 -0.00600404 0.00122428 -0.00026848 0.00538013 -0.000762163 0.000482817 0.00103158 -0.000229074 0.5 -0.00404993 -0.0117859 -0.00416679 0.00346467 -0.000371669 -0.000738085 
90 1 2.94055 4.58056 0.417219 0 0 1 -0.00128665 -0.000503134 0.00537149 0.00127363 0.000188243 -0.00469832 0.00118428 -0.000631394 0.000864312 0.5 0.000185229 0.00426436 0.00140702 0.00233297 0.00201788 0.00205158 
734 2 4.13693 3.24445 0.372097 0 1 1 0.000753198 0.00121867 0.00485256 -0.000534998 -0.00126935 -0.0043133 0.00182221 0.000201755 -3.39072e-05 0.5 -0.000886588 -0.00126616 -0.000695026 -0.000679533 0.000835811 -0.000296431 
672 2 0.0690291 1.98845 1.69161 0 0 0 -0.00241651 -0.00485603 -0.00305875 0.00204127 0.0043642 0.00280003 0.00194088 -0.00014519 0.000749872 0.5 -0.00861637 -0.0126793 -0.00554569 0.00510854 0.00499837 0.000270376 
759 2 4.95809 2.0393 0.949713 0 0 0 0.000976156 -0.000973738 0.00178855 -0.000848049 0.000732086 -0.00160913 0.00182279 5.28142e-05 -0.000437697 0.5 -0.000754372 -0.00394737 -0.000950071 -0.00140251 0.000176757 -0.00135698 
609 2 1.99667 4.76055 0.134499 0 0 1 -0.000869375 -0.000667267 0.0039874 0.000883169 0.000332964 -0.00339117 0.00110769 -0.00133765 0.000503355 0.5 -0.00743053 -0.0248973 -0.00413392 0.00645249 0.00318994 -0.00488732 
868 2 2.87002 3.00616 0.0271017 0 0 1 -2.49133e-05 0.000562233 0.00299673 8.13658e-05 -0.000837734 -0.00257015 0.00161909 -0.000440742 0.000682585 0.5 -0.00149062 -0.00358672 -7.64411e-05 0.00257464 0.000590744 -0.000260866 
21 1 1.84611 0.359014 2.43347 0 0 0 -0.000682906 -0.00379753 -0.0040048 0.000512186 0.00337499 0.003647 0.000874283 -0.00142517 0.00116414 0.5 0.000175888 0.000577161 -4.93734e-05 -1.6686e-05 0.00044903 -0.000892263 
682 2 2.73011 4.08522 2.7708 0 0 0 0.000736495 -0.00272167 0.00288488 -0.000548721 0.00238784 -0.0026118 0.000276883 -0.000221676 -0.00020104 0.5 -0.00449185 -0.00431485 -0.00192415 0.000949873 0.00410461 0.00339361 
907 2 0.981555 4.62778 2.63466 1 0 0 0.000897767 -0.00452838 0.00147674 -0.000759539 0.00393426 -0.000938277 0.00013845 -0.000632562 0.000235418 0.5 -0.00546915 -0.00773 -0.00661897 0.00143383 0.00389236 -0.00258758 
144 1 1.68427 3.60313 2.8108 0 0 0 0.00136852 -0.00411838 7.16569e-05 -0.00122227 0.00353653 -7.81012e-06 5.19892e-05 -0.000221125 -0.000405239 0.5 0.000225993 -0.00105847 -0.000796458 0.00061496 0.00117573 -0.000437626 
675 2 2.8301 4.74005 3.54358 0 0 0 0.00183494 -0.00273189 0.00314292 -0.00183251 0.0025217 -0.00284245 -0.000423286 -5.84457e-05 -0.000506037 0.5 -1.42173e-06 0.000337641 0.000737215 0.000375886 0.000210027 0.00107726 
502 2 4.38909 1.31302 3.26927 0 0 0 0.000824722 -0.00314144 -5.21442e-05 -0.000770146 0.00293759 2.65487e-05 0.000658943 0.000249993 -0.000422916 0.5 -0.00336518 -0.00238545 -0.00203476 -0.00206933 0.00237257 0.00332959 
27 1 2.60851 0.302495 3.21185 0 0 0 0.00109724 -0.00295281 -0.00196323 -0.00110341 0.00262684 0.00170532 -9.29193e-05 -0.000433058 0.000195067 0.5 -0.00360205 -0.00365322 -0.00735092 0.00121159 0.0031038 0.000508072 
965 2 1.35471 3.66077 3.79932 1 0 0 0.00188801 -0.0042304 -0.000712595 -0.00180294 0.00351982 0.000733625 -0.000558806 0.000520748 -0.000947227 0.5 -0.00129665 -0.0033648 -0.00420121 0.00186002 -0.00089472 0.00216161 
61 1 1.6616 0.450851 3.51643 0 0 0 0.000258742 -0.00364082 -0.00482877 -0.000421148 0.0031207 0.00414714 -0.000523293 -0.000516887 0.000528068 0.5 -0.00293841 -7.24046e-05 -0.000475572 0.000350496 0.00200949 -0.000227119 
680 2 1.19044 2.78385 3.34737 0 0 0 -0.000523653 -0.00372181 -0.00080581 0.000419458 0.00308547 0.00075833 0.000145148 0.000468891 -0.000237581 0.5 -0.000336851 -0.00122947 -0.0018147 8.8669e-05 0.00102655 0.000552213 
251 1 4.7128 3.0359 3.89372 0 0 0 0.0024584 -0.00369837 0.00320667 -0.00222126 0.00348152 -0.00296085 0.000907134 0.000651742 -0.00107856 0.5 -0.00329662 -0.00113353 6.07122e-05 -0.00277816 0.00127727 0.00205813 
517 2 4.00862 2.8956 2.21675 0 0 0 0.000309568 -0.00344847 0.00247478 -6.44232e-05 0.00310505 -0.00220913 0.000392989 0.000718791 -0.00076362 0.5 8.72665e-05 -0.000158293 -0.00033261 -0.000185519 6.73427e-05 0.000346648 
6 1 3.42153 1.7812 2.73166 0 0 0 0.000526564 -0.00222496 0.00167423 -0.000537619 0.00194476 -0.00157126 0.00123658 -0.000521542 0.000395194 0.5 -0.00517429 -0.000580837 0.000210425 0.000615417 0.00244129 0.000454757 
519 2 4.43299 3.61576 3.02854 0 0 0 0.00077495 -0.00301453 0.00409646 -0.000649996 0.00286532 -0.00370184 0.000580237 0.000431508 -0.0002129 0.5 4.53053e-06 0.00144557 0.000740235 -0.00102304 0.000157777 0.000376964 
509 2 1.93513 1.51776 3.62588 0 0 0 0.00191153 -0.00245387 -0.00427833 -0.00180044 0.00175317 0.00371361 -0.000650323 0.00132058 0.000432821 0.5 0.000490969 -0.000496194 -0.00385344 -0.000344025 0.000800143 0.0010742 
142 1 1.03595 1.94437 2.17144 0 0 0 -0.000889834 -0.00369569 -0.00245742 0.000681392 0.00330317 0.00224242 0.00152209 -3.89369e-05 0.000440861 0.5 -2.70806e-05 -0.000848877 -0.00116093 0.000222366 0.000130054 0.00138189 
941 2 0.193339 2.26181 2.77473 1 0 0 -0.00184865 -0.00572366 -0.00225475 0.00156584 0.00510314 0.00207378 0.000704031 0.00012912 0.000173725 0.5 -0.000835941 -0.0021277 -0.00377882 -0.000187264 0.000657542 0.000694425 
919 2 0.650073 4.31852 3.53315 1 0 0 0.000643373 -0.00489913 0.000925352 -0.000714909 0.00416789 -0.000531807 0.000563984 0.000113428 -0.000689765 0.5 -0.00263499 -0.00513572 -0.00283102 0.00264243 0.000246731 0.00152933 
95 1 3.53837 3.77997 2.26728 0 0 1 0.00108345 -0.00311446 0.00367702 -0.000895343 0.0027437 -0.00337966 0.00048113 -2.09294e-05 -0.000217514 0.5 -0.00413037 -0.00168556 -0.00415707 -6.89112e-05 0.00205065 -0.000963528 
458 1 1.55627 4.75572 3.86264 1 0 0 0.00106233 -0.00358227 0.00337263 -0.000889932 0.00325876 -0.00291366 -0.00104482 9.94137e-05 0.000194667 0.5 -0.000465706 -0.000159282 -0.000356829 0.000408944 3.71814e-05 -0.000247283 
41 1 1.14074 0.962463 2.01352 0 0 0 -0.000377824 -0.00334407 -0.00423743 0.000200974 0.0029791 0.00388479 0.00144321 -2.22214e-05 0.00066581 0.5 -0.000995519 -0.000662105 -0.00176901 0.000390637 0.00217549 -0.00162638 
814 2 0.2708 1.22993 3.40561 1 0 0 0.000646444 -0.00385737 -0.00365035 -0.000691724 0.0032745 0.00329525 0.000490064 -0.000370917 0.00162304 0.5 -0.00379134 -0.00370616 -0.00355162 0.00160975 0.00159073 0.00394616 
130 1 1.7058 2.64979 2.50094 0 0 0 -0.00106534 -0.00373543 -0.00113426 0.000997881 0.00318518 0.00109563 0.00107336 -0.000500643 -0.000516401 0.5 -0.0022349 -0.0044749 -0.00357581 0.00154419 0.00187285 0.00210257 
12 1 2.702 1.09712 2.61199 0 0 0 0.00100227 -0.00225003 -0.00104913 -0.000927373 0.00194164 0.00082764 0.000765862 -0.00113494 0.000470027 0.5 -0.00336903 -0.00561064 -0.00416294 0.000993577 0.00249139 -0.000392626 
512 2 3.18531 2.03204 3.78701 0 0 0 0.00184595 -0.000664074 0.000690495 -0.00171159 0.000642068 -0.000572146 0.000949261 -0.000461426 0.00043449 0.5 -0.000685467 -0.00207268 -0.00119736 -6.64223e-05 0.000366584 0.0019685 
151 1 2.47893 3.3025 3.34024 0 0 0 0.000484803 -0.00341246 0.00182786 -0.0003447 0.00301678 -0.00166223 6.63215e-05 -0.000450076 0.000182649 0.5 0.000342928 -0.00693371 -0.00493003 -0.000479537 0.00277734 0.00255152 
667 2 0.284632 1.32361 2.40924 0 0 0 -0.000415149 -0.00473234 -0.00369914 0.000244373 0.00424515 0.00336094 0.000895168 0.000300498 0.00099836 0.5 -0.00158119 -0.00697399 -0.00507564 0.000160746 0.000151599 0.00132683 
38 1 3.78957 0.738859 3.87327 0 0 0 0.00152493 -0.00131513 -0.000741753 -0.00138582 0.00124756 0.000698056 -0.000983857 -0.000172072 -0.000355163 0.5 -0.00379247 -0.00158204 -0.00861052 -0.00424879 0.00292558 0.00605863 
936 2 0.320813 3.37202 3.50705 1 0 0 -0.00139532 -0.00410826 -0.000540148 0.00108219 0.00347077 0.000643012 0.000613817 -0.000840308 -0.000515366 0.5 0.000176262 -0.00526466 -0.00189238 -0.000153811 0.00223892 0.00350342 
531 2 4.80029 0.810627 2.48037 0 0 0 -0.000202509 -0.00415659 -0.000132759 0.000126058 0.00374451 0.000111391 0.000433985 0.000234986 -0.000641168 0.5 -0.00111458 -0.000332685 -0.00258926 -0.00131198 -0.00189079 -0.00142507 
527 2 4.02908 4.31669 3.61638 0 0 0 0.00211946 -0.00271992 0.00468127 -0.00205259 0.00255943 -0.00430759 -0.000285579 0.000100043 9.55326e-05 0.5 -0.00531783 -0.00155941 -0.00023121 -0.00280395 0.00188536 0.00209526 
383 1 4.3627 4.34576 2.28663 0 0 1 0.000393793 -0.00211918 0.00399331 -0.000322896 0.0019171 -0.00368581 0.000384086 9.51398e-05 0.000182759 0.5 -0.00335795 -0.000760723 0.00108078 0.000590733 -0.0003402 -0.00100271 
992 2 0.695071 0.441704 3.85523 1 1 0 0.00121077 -0.00376895 -0.00433473 -0.00122972 0.00316103 0.00388692 -0.000412709 0.000794167 0.000543722 0.5 -0.00289064 -0.00677628 -0.00108806 0.00205276 -0.000859794 0.00321753 
521 2 4.9352 4.52914 3.24795 0 0 0 0.00175105 -0.00210993 0.00423068 -0.00171921 0.00198968 -0.00391815 -0.000215568 0.000633743 0.000397608 0.5 -0.00167875 -0.00118644 -0.00178956 -0.000966911 0.000127582 0.00269994 
136 1 1.88517 1.67385 2.62493 0 0 0 -0.000226533 -0.00392569 -0.00383606 8.8023e-05 0.0033103 0.00335465 5.26159e-05 0.000623948 0.00054568 0.5 -0.00374761 -0.00468748 -0.00330582 0.00256832 0.000543831 0.00116433 
540 2 4.51088 0.180543 3.41529 0 0 0 0.000765833 -0.00345699 -0.00045141 -0.000718459 0.00320338 0.00037226 -0.00114681 0.000379397 -0.000713457 0.5 0.00107322 0.000860571 0.000249514 -0.00102342 -0.000516121 0.000789907 
510 2 3.85463 2.5701 3.16929 0 0 0 0.000821369 -0.00285991 0.00258131 -0.000856898 0.00254955 -0.00239064 0.000310671 0.00018482 -8.61224e-05 0.5 0.00193721 0.00176823 -0.000868776 -0.00048854 0.000271422 0.0013141 
19 1 4.36528 1.84799 2.40784 0 0 0 0.000470503 -0.000837931 0.00179268 -0.00050132 0.000733273 -0.00170879 0.00117053 0.000141842 -0.00045861 0.5 -0.00668525 -0.000170821 -0.00308789 0.000259086 0.00309729 0.00048541 
543 2 1.07289 1.78937 3.19664 0 0 0 0.000706795 -0.00354515 -0.00258578 -0.000708012 0.00292304 0.0022984 0.000739997 0.000847494 0.000529928 0.5 -0.00110187 -0.00099029 -0.00058786 -0.00118653 0.00119398 0.000741109 
773 2 4.78732 2.22955 3.30631 0 0 0 0.000797576 -0.00322383 0.00229134 -0.000786621 0.00302729 -0.00210496 0.000542166 0.000607293 -0.000427542 0.5 -0.00123615 -0.00495264 -0.00924834 -0.00186349 0.0035471 0.00799127 
555 2 2.23831 2.50758 3.89719 0 0 0 0.00137428 -0.00342149 0.00220086 -0.00128022 0.00309646 -0.00195522 -8.7736e-05 -5.30771e-06 8.38955e-06 0.5 -0.000602293 0.000133269 0.000464233 -0.000625809 0.00104076 0.00209357 
429 1 0.307579 2.40387 3.75797 1 0 0 -0.00100991 -0.00454883 -0.00252124 0.00081224 0.00384629 0.00234133 0.000336515 0.000267681 0.00100402 0.5 -0.00158265 -0.00833044 -0.00512383 0.00198485 -0.00125348 0.00489598 
316 1 0.889884 0.515512 2.87266 1 0 0 -1.67628e-05 -0.00436422 -0.00467023 -0.000307206 0.0038012 0.00416663 0.000135321 1.81464e-05 0.000695161 0.5 0.000591289 -0.00064495 0.000383072 0.000382206 0.000323346 0.000538529 
503 2 3.61653 0.7705 2.88654 0 0 0 0.000632368 -0.00291103 -0.00051509 -0.000583122 0.0026412 0.00048638 9.74681e-05 0.000149278 4.11047e-05 0.5 0.000348666 0.000968954 -0.0052754 -6.0937e-05 1.39042e-05 0.00115611 
896 2 0.701531 3.6678 2.62981 1 0 0 0.00125522 -0.00462846 0.000496117 -0.00114855 0.00404534 -0.000180464 0.000320572 7.31748e-05 -0.000354985 0.5 -0.000997827 -0.00368123 -0.00479694 0.000217138 -0.000340226 0.000554886 
690 2 1.93647 4.67293 2.92807 0 0 0 0.000336522 -0.00332251 0.00311997 -0.000188362 0.0028806 -0.00264559 -8.13187e-05 -0.000317334 0.000439994 0.5 -0.00389537 -0.00245005 -0.000392633 0.00231618 0.000475851 -0.00066484 
641 2 3.45909 3.502 3.22506 0 0 0 0.000658348 -0.00263266 0.00376443 -0.000538437 0.00242464 -0.00343001 -0.000198017 5.15881e-05 0.000192697 0.5 0.00182819 0.00128567 -0.00120263 -0.000399387 -0.000290223 0.00234349 
528 2 3.34187 4.80389 2.44026 0 0 0 0.00147906 -0.00291892 0.00382849 -0.00127965 0.00254914 -0.00360982 0.000523876 0.000280695 -0.000139112 0.5 -0.00065898 -0.00143089 -0.00150793 -0.00118505 0.000245198 0.000398042 
225 1 2.66689 2.38181 2.99718 0 0 1 -0.000462952 -0.00333132 0.00122668 0.000353645 0.00289566 -0.00107208 -7.18328e-05 0.000630066 0.000698979 0.5 -0.00126084 -0.00373103 0.000269742 0.00229865 -0.000169092 -0.000730108 
119 1 0.615589 2.84572 2.06696 0 0 0 -0.00182828 -0.00387023 -0.000142063 0.00156934 0.00348783 0.000230205 0.00144224 0.000211597 -3.17038e-05 0.5 0.000792977 -0.00310275 -0.00652074 0.000378773 0.00220248 -0.00114076 
200 1 2.46381 0.209519 4.19694 0 1 0 0.00296631 -0.00174273 -0.00157311 -0.00271418 0.00157378 0.00136589 -0.00145516 -0.000849068 0.00113246 0.5 -0.00334584 -0.00207754 -0.00559181 -0.000140199 0.00231187 0.00126823 
114 1 4.70629 1.00494 4.17129 0 0 0 0.00144608 -0.00204811 0.000156993 -0.00135485 0.0020471 -0.000114454 -0.000294835 -0.000174542 -0.000695096 0.5 -0.00157184 0.000362818 0.00069793 -0.000255056 -0.000850312 -0.000490489 
820 2 1.30973 2.29491 4.21149 1 0 0 0.000389417 -0.00259196 -0.000292259 -0.000337845 0.0021001 0.00030391 -0.000744372 -0.000650796 0.000575036 0.5 -0.00133332 0.00016439 -0.0013714 0.00120193 0.00186403 0.00202999 
47 1 4.65406 1.58287 5.43499 0 0 0 0.00300711 -0.00174644 0.000952096 -0.00286789 0.00186113 -0.000900922 0.000302771 0.000749876 3.30101e-05 0.5 -0.00280124 -0.00363532 -0.0016278 -0.00114818 -0.00167234 0.00243118 
824 2 1.64872 3.83123 5.79052 1 0 0 0.000778736 0.000948842 0.00311648 -0.00098611 -0.000747882 -0.00282359 -0.0019453 -5.45906e-05 -0.000822931 0.5 -0.00114657 -0.000734713 -0.00311948 -0.000647562 0.000392968 0.00106766 
172 1 3.44162 0.338172 4.72084 0 1 0 0.00194902 0.000953086 0.000508206 -0.00185065 -0.000685673 -0.000414798 -0.00129372 -0.000327316 6.4147e-05 0.5 -0.00357373 -0.00358113 -0.0111181 -0.00316499 0.00293801 0.00482188 
718 2 0.202086 2.03669 5.51292 0 1 0 0.000400442 0.000369568 -0.000338029 -0.000412822 -0.000647617 0.000415385 -0.00101471 -0.000445181 0.000343711 0.5 -0.00391396 -0.000487169 -0.00260281 0.00212148 -0.00239084 0.00592237 
505 2 0.484668 3.49967 5.83256 0 0 -1 -0.000316377 0.00394199 0.00216425 0.000201568 -0.00386011 -0.00201871 0.00012955 -0.00102695 0.00118426 0.5 -0.000603108 -0.00945494 -0.00450625 -7.72642e-05 -2.31672e-05 0.00732828 
524 2 3.99204 2.73396 5.70334 0 0 0 0.00566102 0.0017514 0.00582365 -0.00491981 -0.00117666 -0.00513142 -0.00125714 0.00351392 0.00200375 0.5 2.446e-05 0.00112671 0.000884915 -0.000628017 -0.000752233 0.00062856 
839 2 0.578602 1.61725 4.31275 1 0 0 0.00135762 -0.00407591 -0.00300277 -0.00119804 0.00341332 0.00269995 -0.000532891 -0.000112572 0.00143795 0.5 -0.000910321 -0.00649406 -0.00393062 0.00293363 -2.98892e-05 0.00634194 
937 2 2.44283 3.38826 4.33615 1 0 0 0.00141161 -0.00300975 0.0017814 -0.00137542 0.00278496 -0.00164125 -0.000740561 -0.000764179 0.000155123 0.5 -0.00243644 -0.000104302 -0.00490749 -5.15345e-05 0.00225505 0.00293045 
811 2 2.606 3.94615 5.52378 1 0 0 0.000588912 6.16443e-05 0.00209377 -0.000916414 0.000289572 -0.00217474 -0.00117199 -0.00117945 -0.000164265 0.5 -0.00117669 -0.00365952 -0.00120774 -0.0015013 -0.000226765 0.00302699 
827 2 1.5204 3.18304 4.66326 1 0 0 0.000807131 -0.00268705 0.00028203 -0.000712508 0.00219058 -0.000152316 -0.00146131 -0.000987944 -0.000979016 0.5 -0.00247818 -0.00123736 -0.00495926 -0.000795701 0.00144078 0.00325112 
149 1 4.05477 3.93321 4.61649 0 0 0 0.00162076 -0.00100573 0.00398878 -0.00161431 0.00111646 -0.00359286 -1.40149e-05 0.00016631 0.00054818 0.5 0.000228273 -0.000769459 0.00171242 0.00276639 -0.00100882 0.00131933 
925 2 0.622197 3.59972 4.52324 1 0 0 0.00183388 -0.000794031 -0.000673229 -0.00169722 0.000363103 0.000749978 -0.00127532 0.000189579 -0.00064084 0.5 -0.00134632 -0.00186566 -0.000768601 9.32745e-05 -0.000742364 0.00116539 
168 1 3.33445 4.60371 5.32912 0 0 0 0.00151797 -0.000397373 0.00428263 -0.00161196 0.000615463 -0.00392835 -0.000580757 -0.000714173 0.000654368 0.5 -0.00370538 -0.0030807 -0.00364634 -0.000445342 -0.000772476 0.00242232 
928 2 1.57425 4.40873 4.97721 1 0 0 0.000832254 -4.05855e-05 0.00245711 -0.00084367 0.000213145 -0.00219613 -0.00100322 -0.000207841 -0.00127463 0.5 -0.00270186 -0.00275738 -0.00252456 -0.00179167 0.0013582 0.00177303 
148 1 3.93926 3.74116 5.74247 0 0 0 0.0012179 0.00166404 0.00555716 -0.00139464 -0.00113904 -0.00504013 -0.00113343 -0.000686837 0.00217982 0.5 0.000887974 0.00301658 0.00197735 0.00141955 0.00146824 0.00144158 
914 2 4.69242 4.38524 5.24123 0 0 0 0.000230853 -0.000619726 0.00516412 -0.000438352 0.000779694 -0.00458527 -0.00156797 -0.00122978 -0.00129358 0.5 0.000100421 0.000598987 0.00132747 -9.7632e-05 0.000521395 0.000857236 
23 1 2.87702 1.11922 4.05841 0 0 0 0.00130364 -0.00129432 -0.00217597 -0.00120046 0.00117579 0.00189641 9.31843e-05 -0.000673655 0.000125235 0.5 -0.0029148 -0.00295713 -0.00202526 -0.00171009 0.00152216 0.00147683 
594 2 2.05499 1.97016 4.80215 0 0 0 0.00150519 0.00128813 0.00025474 -0.0013763 -0.00116191 -5.25547e-05 0.000513735 -0.0005104 0.0012291 0.5 -5.09314e-05 -0.00298706 -0.000495669 0.0012823 -0.00062445 0.00163489 
539 2 3.78346 1.03946 5.46803 0 0 0 0.00196916 0.00198686 0.00185937 -0.00192234 -0.0015899 -0.00166933 -0.000682877 0.00101607 -0.000494155 0.5 -0.000859276 -0.009783 -0.00413502 -0.00403594 -0.00246517 0.00785115 
730 2 0.461168 1.11582 5.16994 0 1 0 0.0011245 1.96101e-05 -0.000636962 -0.00124365 -0.000293229 0.000510274 -0.000660124 -1.6209e-05 0.00148133 0.5 0.00207906 -0.000519283 -0.00235453 -5.4192e-05 -0.000653407 0.00454414 
689 2 3.5188 0.102458 5.69604 0 1 0 0.000958924 0.00187695 0.000248762 -0.000927925 -0.00149498 -0.00014697 -0.000530512 -0.00102736 -0.000620448 0.5 -0.00425269 -0.0127334 -0.0109547 -0.00185051 0.000503943 0.00925201 
450 1 0.617396 4.79971 4.46849 1 0 0 0.00309518 -0.00169455 0.00046779 -0.00267305 0.0015089 -0.00012568 -0.00276274 -0.000554626 0.000188595 0.5 -0.00156368 -0.00418193 -0.00836924 5.25371e-05 -0.00130829 0.00486574 
549 2 4.49954 0.501004 5.01385 0 0 0 -8.50731e-05 -0.000423034 0.000849946 -9.58391e-06 0.000628158 -0.000715852 -0.000465569 0.000564599 -0.00134366 0.5 0.00275357 0.00392505 0.0028149 -0.00184624 -0.00163718 0.00148648 
591 2 1.44508 1.12634 4.40551 0 0 0 0.00256388 -0.00201711 -0.00369727 -0.00231434 0.00151135 0.00331143 -0.00083058 0.000514554 0.000627039 0.5 -0.00157439 -0.00281407 -0.00238494 0.000829341 0.000338409 0.00228067 
243 1 1.20271 1.83652 5.3445 0 1 0 0.000322949 0.00175999 -0.00131082 -0.000345504 -0.00182187 0.00133147 -0.000430854 -0.000475842 0.000860712 0.5 -0.00133917 -0.0016961 -0.000914291 0.000635308 3.94726e-05 0.00211584 
646 2 3.73989 3.12425 4.10736 0 0 0 0.00277186 -0.00132309 0.00365339 -0.0024823 0.00134046 -0.00327988 -5.01835e-05 0.000329473 -0.000259523 0.5 -0.00210998 -0.00648913 -0.00447985 0.00113102 0.000508688 0.00431389 
374 1 0.580536 2.63582 4.8072 1 0 0 0.000981021 -0.000580704 -0.000762682 -0.000835215 0.000174948 0.000828292 -0.000963962 -0.000697769 -0.000439641 0.5 -0.00125986 -0.00279229 -0.00145453 -0.000846823 0.00171946 0.00213738 
418 1 0.657235 4.37182 5.37475 1 0 0 0.000885827 0.00396119 0.00287926 -0.000784611 -0.00374197 -0.00237232 -0.00196753 -0.0007172 -0.00138447 0.5 -0.00173324 -0.00637382 -0.00875513 -0.00167796 0.00101066 0.00474737 
190 1 2.16267 2.44202 6.02569 0 1 0 -0.001191 0.00276672 0.00350044 0.00111622 -0.00251587 -0.00316541 -0.000874035 -0.00121827 -0.000142306 0.5 -0.000848626 -0.00197436 -0.00355115 0.000164344 0.000806755 0.00289003 