ITEM: TIMESTEP
183000
ITEM: NUMBER OF ATOMS
1000
ITEM: BOX BOUNDS xy xz yz pp pp pp
0.0000000000000000e+00 1.0000000000000000e+01 0.0000000000000000e+00
0.0000000000000000e+00 1.0000000000000000e+01 0.0000000000000000e+00
0.0000000000000000e+00 1.0000000000000000e+01 0.0000000000000000e+00
ITEM: ATOMS id type x y z ix iy iz vx vy vz fx fy fz omegax omegay omegaz radius c_2[1] c_2[2] c_2[3] c_2[4] c_2[5] c_2[6] 
120 1 3.15852 1.54146 0.0722925 0 1 0 -2.28005e-08 5.87221e-08 4.00205e-08 2.06993e-08 -5.04542e-08 -3.50824e-08 3.52499e-08 3.5859e-09 -2.1681e-08 0.5 -2.96521e-08 -1.54678e-07 -1.40201e-08 -1.71427e-08 -6.95131e-09 -3.67018e-08 
525 2 2.11627 1.23431 1.69988 0 0 0 -4.89598e-08 -1.35426e-07 -9.91972e-08 4.04351e-08 1.15356e-07 8.74688e-08 -1.45912e-08 6.94347e-09 4.06004e-08 0.5 1.94177e-09 -9.53419e-09 5.53828e-09 1.19102e-08 6.28894e-09 -4.07031e-09 
371 1 4.95931 3.68326 1.58374 0 0 1 3.04039e-08 -5.82248e-08 8.77054e-08 -2.61117e-08 5.18815e-08 -7.70311e-08 7.01936e-09 -4.24867e-09 4.45305e-09 0.5 -1.77471e-08 -7.94803e-08 5.38711e-08 -9.31087e-09 -9.12013e-09 1.04094e-08 
18 1 1.98117 2.69195 0.532518 0 0 0 -2.42837e-08 -1.67957e-09 9.34869e-08 1.99416e-08 1.14735e-09 -8.04762e-08 5.82336e-08 -1.99646e-08 1.8226e-08 0.5 -4.4284e-08 -1.13904e-07 -6.71685e-08 9.12079e-08 4.44324e-08 -5.35439e-08 
868 2 2.87004 3.00634 0.028912 0 0 1 1.38831e-08 -1.16533e-08 8.29072e-08 -1.07238e-08 9.83338e-09 -7.22698e-08 4.97032e-08 -9.34238e-09 2.04872e-08 0.5 -7.28181e-08 -1.17325e-07 -2.46364e-08 8.70531e-08 -6.8741e-10 4.54235e-09 
25 1 1.41548 0.708705 1.0832 0 0 0 -2.04404e-08 -4.42861e-08 -1.02528e-07 1.72785e-08 3.65062e-08 9.10181e-08 4.19015e-08 -1.08928e-08 2.38259e-08 0.5 -3.7354e-08 -2.51978e-07 -1.38557e-07 8.89718e-08 7.08608e-08 -1.09303e-07 
378 1 4.61919 2.40719 0.0725815 0 0 1 4.41978e-09 3.57669e-08 6.60143e-08 -3.35022e-09 -2.95672e-08 -5.82462e-08 5.61833e-08 1.46048e-08 -1.05529e-08 0.5 -3.0973e-08 -8.19205e-08 -4.65161e-08 -1.1781e-08 -1.1514e-08 -6.57293e-08 
8 1 3.44143 2.06796 1.74253 0 0 0 -1.30461e-09 -6.45925e-08 2.7924e-08 4.77147e-10 5.61536e-08 -2.5059e-08 4.69608e-08 -1.30651e-08 8.84252e-09 0.5 1.24169e-08 7.82317e-10 2.00955e-08 1.95046e-08 2.87125e-09 1.54607e-08 
629 2 4.07713 2.6156 1.19812 0 0 1 1.70906e-08 -3.32155e-08 8.05569e-08 -1.52703e-08 2.95223e-08 -6.99562e-08 5.41275e-08 -1.32367e-08 1.05484e-09 0.5 -8.57996e-08 -2.50151e-08 -7.72422e-08 1.08747e-08 -5.3178e-08 -2.82298e-08 
5 1 2.34651 3.9005 1.05345 0 0 0 -1.13427e-08 -1.07546e-07 1.07893e-07 1.04481e-08 9.30946e-08 -9.2997e-08 3.27593e-09 7.67492e-09 2.21323e-08 0.5 -8.12415e-09 -1.28415e-08 -1.87389e-08 1.52683e-08 5.22717e-09 -4.32503e-09 
650 2 0.459129 3.43666 1.12967 0 0 0 -6.34168e-08 -1.06276e-07 1.32086e-08 5.44369e-08 8.98291e-08 -8.85402e-09 6.15882e-08 7.49552e-09 8.36544e-10 0.5 -8.78079e-08 -1.00573e-07 -1.0603e-07 7.0093e-08 7.38565e-08 -4.78155e-08 
14 1 3.29515 3.13364 1.54473 0 0 0 4.82738e-09 -5.77024e-08 8.95288e-08 -4.30494e-09 5.12545e-08 -7.76934e-08 1.70151e-08 1.08461e-08 6.83138e-09 0.5 -6.44344e-09 -2.35747e-08 -4.24125e-08 3.27498e-08 -4.04487e-09 -2.28673e-08 
264 1 3.99643 3.86789 1.37953 0 0 0 2.91838e-08 -6.60087e-08 8.80957e-08 -2.51071e-08 5.85011e-08 -7.71657e-08 2.60149e-08 6.10822e-09 3.52524e-09 0.5 -2.36141e-08 -1.03756e-09 -4.67447e-08 2.85944e-08 5.61309e-09 -6.95434e-09 
223 1 0.747634 2.47805 1.14565 0 0 1 -6.35053e-08 -1.04636e-07 1.40285e-08 5.38913e-08 8.82049e-08 -1.03132e-08 6.34858e-08 -2.50844e-08 9.44021e-09 0.5 -4.67626e-08 -1.12155e-07 -2.69821e-07 3.68778e-08 1.07898e-07 -6.67348e-08 
364 1 4.4227 4.23693 0.53984 0 0 1 6.41392e-09 2.59409e-08 1.16949e-07 -3.50684e-09 -2.17849e-08 -1.01788e-07 3.29827e-08 -2.84125e-09 1.58721e-08 0.5 1.2202e-09 9.65189e-09 -7.39407e-10 3.29386e-09 1.95439e-08 -1.48427e-08 
107 1 1.66076 1.61825 0.747451 0 0 1 -4.73384e-08 -1.8134e-08 -4.97278e-08 3.98615e-08 1.40944e-08 4.54061e-08 6.42161e-08 -4.55267e-09 6.74562e-09 0.5 4.71819e-08 -5.78446e-08 -5.67237e-08 -3.66486e-09 7.17523e-10 -3.65686e-08 
529 2 2.67265 2.1996 1.06195 0 0 0 2.35817e-09 -3.65354e-08 2.56428e-08 -3.40518e-09 3.10103e-08 -2.17363e-08 5.83361e-08 9.71614e-11 1.49777e-08 0.5 -1.68866e-08 -3.99063e-08 -4.72749e-08 2.86578e-08 -1.41567e-08 9.08534e-09 
515 2 4.38643 0.435908 1.64385 0 0 0 6.84891e-09 -6.83206e-08 -4.01553e-08 -5.5898e-09 5.9647e-08 3.31784e-08 3.51281e-08 -2.30692e-09 6.78122e-09 0.5 -1.859e-08 -3.94715e-08 -7.72706e-08 -6.80205e-08 9.24299e-09 1.61591e-08 
244 1 4.11373 0.570462 0.682724 0 1 1 8.25315e-09 1.55607e-08 -2.6404e-08 -6.79525e-09 -1.21396e-08 2.14378e-08 5.10226e-08 1.52751e-08 -2.98479e-10 0.5 -2.70667e-08 -2.36819e-08 -7.25173e-08 -6.24244e-09 1.75948e-08 1.07514e-08 
20 1 2.90179 0.570818 1.78382 0 0 0 4.2839e-09 -6.14819e-08 -5.24184e-08 -3.96976e-09 5.29893e-08 4.46346e-08 2.3083e-08 -1.55169e-08 1.15472e-08 0.5 -4.50226e-08 -1.00902e-07 -1.46076e-07 3.02436e-08 6.6774e-08 -8.36998e-08 
280 1 4.09077 1.582 1.14626 0 0 0 8.49891e-09 -2.13573e-08 4.86338e-09 -7.89106e-09 1.92633e-08 -5.59589e-09 5.37907e-08 -5.78046e-09 4.11241e-10 0.5 -2.92617e-08 -3.56014e-08 -1.01378e-07 6.11247e-09 5.96994e-08 2.00248e-08 
620 2 1.3946 4.37082 0.857654 0 0 1 -3.34606e-09 -7.07555e-08 8.00963e-08 5.50951e-09 6.08037e-08 -6.72653e-08 4.40098e-08 2.76338e-08 -2.07183e-08 0.5 -2.36263e-08 -1.09207e-07 -1.62355e-07 1.21139e-10 -1.01421e-08 1.86963e-08 
1000 2 3.60332 2.39824 0.339819 0 1 1 4.25084e-08 1.55157e-08 6.06599e-08 -3.49991e-08 -1.32851e-08 -5.36739e-08 4.00991e-08 -2.05322e-09 -2.17392e-09 0.5 -6.34071e-08 -1.17328e-07 -6.91071e-08 -8.86912e-09 -5.45163e-08 -1.82868e-08 
103 1 3.28431 3.68319 0.698946 0 0 1 1.5181e-09 -3.19619e-08 1.08438e-07 -8.95595e-10 2.77555e-08 -9.46562e-08 3.32983e-08 2.26799e-09 1.69456e-08 0.5 -2.13309e-08 -1.65361e-08 -3.13171e-08 2.14814e-08 5.87349e-09 -6.29514e-09 
622 2 0.930663 4.80385 0.0848387 0 0 1 -4.56882e-09 -2.84789e-09 1.18856e-07 6.42069e-09 1.85257e-09 -1.00835e-07 5.92147e-08 -6.01547e-09 -6.11555e-09 0.5 -1.19609e-09 1.11847e-08 -7.38996e-08 -7.57241e-09 -3.11901e-08 1.67416e-08 
506 2 0.74356 1.4513 1.18235 0 0 0 -6.94401e-08 -1.06822e-07 -8.92434e-08 5.91733e-08 9.0193e-08 7.95903e-08 5.07517e-08 -9.62319e-09 3.25212e-08 0.5 2.17209e-08 -1.47208e-07 -2.28818e-08 1.70826e-07 3.70207e-08 -9.12875e-08 
626 2 1.28815 3.41645 0.566227 0 0 1 -6.19262e-08 -4.15748e-08 1.79621e-08 5.29146e-08 3.58848e-08 -1.33883e-08 2.99042e-08 -2.10429e-08 8.81691e-09 0.5 -8.33242e-08 -1.21448e-07 -2.32263e-08 6.4839e-08 5.6772e-08 -3.61951e-08 
553 2 0.744043 0.0774005 1.56305 0 0 0 -1.15108e-08 -8.06878e-08 -1.3321e-07 9.14948e-09 6.83357e-08 1.18406e-07 4.51513e-09 -2.68592e-08 4.04938e-08 0.5 1.52734e-08 8.58213e-09 1.21994e-08 1.70455e-10 7.63035e-09 -1.99673e-08 
135 1 1.54769 3.20472 1.67709 0 0 0 2.54624e-08 -1.04442e-07 6.91892e-09 -2.27845e-08 8.92795e-08 -4.23584e-09 3.56245e-08 -5.05726e-08 -1.10618e-08 0.5 5.93488e-09 -2.26258e-07 -4.35434e-08 5.59748e-08 2.34745e-08 -1.54417e-09 
624 2 4.32461 4.92098 1.47156 0 0 1 4.03746e-08 -2.34253e-08 9.12299e-08 -3.26174e-08 2.26684e-08 -8.03104e-08 2.30223e-08 1.94438e-09 1.26212e-08 0.5 1.95645e-08 1.52576e-08 -5.98671e-08 1.80491e-08 -3.66148e-08 -4.51789e-08 
256 1 4.58719 1.36786 0.305 0 0 0 1.1674e-08 2.36327e-08 -4.74421e-09 -1.02684e-08 -1.88015e-08 2.70326e-09 5.411e-08 1.08275e-08 -1.76444e-08 0.5 -1.48126e-08 -5.00908e-08 -7.31369e-08 -3.2412e-08 1.26309e-08 -6.99776e-08 
260 1 3.31854 0.0700552 1.02517 0 0 0 1.83721e-08 -2.81458e-08 -6.67374e-08 -1.46402e-08 2.49242e-08 5.73419e-08 2.38365e-08 2.59504e-08 -2.46867e-09 0.5 -3.13518e-08 -9.42572e-08 -1.04224e-07 -2.97046e-09 1.86296e-08 -6.24609e-08 
616 2 3.19106 4.4806 1.50664 0 0 1 2.42418e-08 -8.8995e-08 8.67446e-08 -2.16074e-08 7.74848e-08 -7.62919e-08 -5.0683e-09 8.8442e-09 1.32864e-08 0.5 -4.09243e-08 -1.61176e-08 -1.81934e-08 2.47597e-08 4.9634e-09 -1.07109e-08 
106 1 1.74522 2.23558 1.52961 0 0 1 3.16078e-09 -1.10692e-07 1.78981e-08 -4.12306e-09 9.45168e-08 -1.33275e-08 4.64055e-08 -1.81946e-08 -1.1339e-08 0.5 2.4138e-08 -1.19827e-07 -3.7864e-08 3.41265e-08 3.8851e-08 -4.35231e-08 
157 1 1.3897 4.17879 1.83903 0 0 0 3.09186e-08 -1.14295e-07 7.17788e-08 -2.63204e-08 9.79963e-08 -6.01777e-08 4.35592e-08 8.21747e-09 5.11066e-09 0.5 -5.07617e-08 -1.70363e-07 -1.80676e-07 3.71228e-08 5.99088e-08 -3.38344e-08 
516 2 2.34691 0.89043 0.68796 0 0 0 -9.67312e-09 1.59328e-08 -3.09608e-08 7.58879e-09 -1.49199e-08 2.78739e-08 5.01649e-09 -1.90669e-08 -9.34536e-10 0.5 1.08924e-08 -4.41939e-08 -1.3423e-08 9.98721e-09 3.31702e-08 -4.38843e-08 
183 1 0.415258 4.58221 1.00381 0 0 0 3.13438e-09 -1.00222e-07 1.69727e-07 2.21205e-10 8.6211e-08 -1.43068e-07 8.63269e-08 4.25352e-08 5.20973e-09 0.5 2.44139e-09 -5.77277e-09 9.15658e-09 7.21449e-09 -1.2154e-08 8.83425e-09 
625 2 0.399951 3.91216 0.210014 0 0 1 -2.71022e-08 4.89211e-09 7.93638e-08 2.53466e-08 -4.58901e-09 -6.52797e-08 8.39013e-08 -6.51523e-09 -3.46355e-08 0.5 -3.86387e-09 -1.57723e-10 -1.7048e-08 -4.28759e-09 -6.69369e-09 1.55645e-08 
91 1 2.22066 4.71676 1.69645 0 0 1 2.88296e-08 -1.05042e-07 9.86379e-08 -2.53162e-08 9.08936e-08 -8.4774e-08 3.59297e-09 3.62647e-11 1.87872e-09 0.5 -4.6643e-08 -3.20682e-08 -1.32094e-08 -1.20545e-08 1.05731e-08 -1.00447e-08 
257 1 4.94043 2.69123 1.70827 0 0 0 1.81658e-08 -6.03061e-08 6.93749e-08 -1.59822e-08 5.37196e-08 -6.09536e-08 2.30589e-08 1.02087e-09 -7.53374e-09 0.5 -9.77113e-08 -6.85657e-08 -1.71696e-07 7.15806e-09 -5.57914e-08 -3.23402e-08 
4 1 3.72174 1.12777 1.95711 0 0 0 5.95285e-09 -7.42103e-08 -2.58735e-08 -5.27098e-09 6.44116e-08 2.0866e-08 3.54212e-08 -3.30972e-09 2.18375e-09 0.5 -1.66635e-08 -2.93219e-08 -1.23439e-07 -2.46349e-08 2.44925e-08 6.1451e-08 
609 2 1.99624 4.76004 0.136921 0 0 1 2.87532e-09 -3.87296e-08 1.19771e-07 -9.92287e-10 3.31982e-08 -1.03233e-07 1.86714e-08 -1.50875e-08 1.83527e-08 0.5 -1.98615e-07 -6.09156e-07 -8.81067e-08 1.68897e-07 4.77959e-08 -1.28722e-07 
117 1 3.12746 1.31374 1.15363 0 1 0 1.23656e-08 -3.6096e-08 -1.96057e-08 -1.09998e-08 3.10717e-08 1.62811e-08 4.64094e-08 -3.34169e-09 1.62437e-09 0.5 6.66385e-09 -3.3742e-08 -3.00643e-09 1.56547e-08 6.64974e-09 2.50953e-08 
511 2 1.08079 2.25054 0.230642 0 0 0 -2.34924e-08 3.95174e-08 -7.31961e-09 1.98415e-08 -3.56784e-08 8.15828e-09 8.14042e-08 -1.68024e-08 -1.67726e-08 0.5 -3.47055e-08 -1.04492e-07 -2.45899e-07 2.19215e-08 1.03811e-07 -6.43082e-08 
911 2 0.492018 0.563612 0.697613 1 0 0 -1.6055e-08 -5.64133e-08 -1.25085e-07 1.35229e-08 4.62342e-08 1.10841e-07 1.00756e-08 -1.61794e-08 2.38834e-09 0.5 2.62914e-08 -1.10766e-07 3.42437e-10 -1.13105e-08 9.55551e-09 -4.43707e-08 
668 2 0.00216516 3.81975 1.93315 0 0 0 -1.15095e-08 -1.92262e-07 8.09435e-08 8.60364e-09 1.63572e-07 -6.76786e-08 2.07132e-08 1.70107e-08 -1.64638e-08 0.5 -1.51516e-07 -3.73624e-07 -1.56682e-07 1.12678e-07 -4.00375e-08 -5.59812e-09 
90 1 2.93989 4.58015 0.420403 0 0 1 4.22964e-11 -2.51089e-08 1.32398e-07 2.13814e-09 2.22587e-08 -1.16004e-07 2.01544e-08 -5.84674e-09 2.25531e-08 0.5 -4.12385e-08 5.29539e-08 -4.81902e-09 8.0345e-08 4.54169e-08 1.96282e-08 
734 2 4.13742 3.24508 0.37494 0 1 1 2.60069e-08 2.31634e-08 1.15182e-07 -2.19811e-08 -1.90869e-08 -1.00713e-07 5.10271e-08 6.67857e-09 6.78882e-09 0.5 -3.88231e-08 -2.83446e-08 -5.06848e-09 2.20846e-08 1.6927e-08 -2.03104e-08 
672 2 0.0675425 1.98557 1.68985 0 0 0 -8.2801e-08 -1.54427e-07 -5.6811e-08 7.08165e-08 1.31499e-07 5.15168e-08 5.35872e-08 -1.02757e-08 1.83024e-08 0.5 -1.85634e-07 -3.73172e-07 -1.41976e-07 1.44297e-07 1.03623e-07 1.84254e-09 
759 2 4.95866 2.03867 0.950748 0 0 0 1.70541e-08 -2.35628e-08 3.76759e-08 -1.55235e-08 2.18128e-08 -3.34389e-08 4.72904e-08 -6.54091e-09 -1.246e-08 0.5 -1.1836e-08 -1.23532e-07 -5.58811e-08 -2.16404e-08 -8.88179e-09 -1.52888e-08 
21 1 1.84566 0.35675 2.43115 0 0 0 -2.46729e-08 -1.12021e-07 -9.42946e-08 2.15284e-08 9.63981e-08 8.24424e-08 2.21349e-08 -2.35643e-08 3.32365e-08 0.5 2.72133e-09 -6.2168e-10 -1.63017e-09 4.17375e-09 4.991e-09 -1.26842e-08 
682 2 2.73058 4.0836 2.7725 0 0 0 2.16835e-08 -7.34393e-08 7.79564e-08 -1.90989e-08 6.37742e-08 -6.76554e-08 -6.7125e-10 2.68582e-09 7.89335e-09 0.5 -1.1076e-07 -7.35717e-08 -1.77299e-08 6.38364e-08 5.35128e-08 8.53104e-08 
907 2 0.982097 4.62503 2.63573 1 0 0 1.61321e-08 -1.58414e-07 8.89903e-08 -1.49913e-08 1.34498e-07 -7.48965e-08 7.23864e-09 -1.63213e-08 8.63219e-09 0.5 -1.20956e-07 -1.50536e-07 -1.66672e-07 5.51981e-08 7.43764e-08 -5.35616e-08 
144 1 1.68507 3.60062 2.81087 0 0 0 2.72886e-08 -1.37828e-07 1.56288e-08 -2.45979e-08 1.17771e-07 -1.28584e-08 -2.79239e-09 8.4162e-09 9.08022e-10 0.5 -7.01963e-08 -2.11824e-08 -3.07703e-08 4.3206e-08 -1.33939e-08 -5.81134e-10 
675 2 2.83107 4.7385 3.54541 0 0 0 5.18842e-09 -5.11114e-08 7.93039e-08 -7.26024e-09 4.56373e-08 -6.91521e-08 -1.76705e-08 1.12576e-08 -3.19706e-09 0.5 4.97004e-09 2.44418e-08 4.8018e-08 2.30382e-08 -8.75476e-09 4.28337e-08 
502 2 4.38953 1.31124 3.26921 0 0 0 -5.06301e-09 -5.52267e-08 -2.0256e-08 2.28375e-09 4.96172e-08 1.60344e-08 8.96758e-09 2.37452e-09 -5.5593e-09 0.5 -8.54795e-08 -4.41172e-08 -5.43138e-08 -4.46114e-08 4.38659e-08 9.01502e-08 
27 1 2.60908 0.300739 3.21066 0 0 0 -1.37118e-09 -8.91831e-08 -6.25756e-08 -5.91572e-10 7.64537e-08 5.35097e-08 -1.12928e-09 -1.34294e-08 1.53676e-08 0.5 -7.84756e-08 -9.81929e-08 -1.8707e-07 3.81886e-08 6.49769e-08 1.51891e-08 
965 2 1.35576 3.65812 3.79896 1 0 0 3.80184e-08 -1.63471e-07 2.13645e-09 -3.35459e-08 1.38692e-07 -6.81039e-10 -1.01287e-08 2.63595e-08 -2.26483e-08 0.5 -3.20497e-08 -9.59961e-08 -1.07217e-07 5.55258e-08 -3.53039e-08 6.55973e-08 
61 1 1.66165 0.448609 3.51352 0 0 0 -2.54982e-08 -1.39182e-07 -1.24472e-07 2.05816e-08 1.17738e-07 1.0913e-07 2.75906e-09 -6.17687e-09 2.56862e-08 0.5 -5.56642e-08 -2.31867e-09 -1.11298e-08 1.29863e-08 3.79361e-08 -4.30686e-09 
680 2 1.1901 2.78151 3.34693 0 0 0 -3.0808e-08 -1.47964e-07 -2.26445e-09 2.53099e-08 1.25387e-07 3.17384e-09 6.53402e-09 1.44011e-08 -3.78333e-09 0.5 1.13118e-09 -3.20035e-08 -4.95576e-08 7.05085e-09 2.16095e-08 1.49414e-08 
251 1 4.71421 3.03382 3.89556 0 0 0 4.43946e-08 -6.96866e-08 6.87667e-08 -4.01487e-08 6.19547e-08 -6.06481e-08 2.76197e-08 2.07307e-08 -3.06103e-08 0.5 -9.65619e-08 -2.00243e-08 3.64918e-09 -6.87592e-08 3.10916e-08 5.79966e-08 
517 2 4.0089 2.89361 2.21821 0 0 0 2.39055e-08 -6.56104e-08 6.4456e-08 -2.04504e-08 5.8993e-08 -5.6285e-08 1.1085e-08 3.4545e-09 -5.38853e-09 0.5 -6.26992e-10 -1.10718e-09 -3.10998e-08 -1.26523e-09 -6.28672e-09 1.61385e-08 
6 1 3.42179 1.77987 2.73262 0 0 0 -9.60052e-09 -5.96139e-08 3.38336e-08 6.59122e-09 5.19054e-08 -3.01797e-08 3.34162e-08 -5.73648e-09 2.06938e-08 0.5 -1.06741e-07 1.87069e-08 1.44429e-08 4.11068e-08 5.06914e-08 3.02703e-08 
519 2 4.43345 3.61408 3.03093 0 0 0 1.58759e-08 -4.47982e-08 9.80326e-08 -1.4328e-08 4.11569e-08 -8.59932e-08 1.16218e-08 8.26123e-09 -3.78246e-09 0.5 4.80662e-09 5.37338e-08 3.59766e-08 -3.80628e-08 -1.32397e-08 2.80773e-08 
509 2 1.93621 1.51608 3.62332 0 0 0 3.19781e-08 -1.27444e-07 -1.05912e-07 -2.91661e-08 1.07334e-07 9.32757e-08 -9.25662e-09 4.42871e-08 -3.86723e-10 0.5 1.29655e-08 -1.46647e-08 -1.15105e-07 -1.42444e-08 2.46361e-08 3.25503e-08 
142 1 1.03537 1.94217 2.17003 0 0 0 -4.73923e-08 -1.23257e-07 -4.39174e-08 3.94989e-08 1.04686e-07 3.97457e-08 4.63954e-08 5.06657e-10 8.44291e-09 0.5 -1.7358e-09 -2.13536e-08 -3.00095e-08 3.19716e-08 -1.25026e-08 3.54172e-08 
941 2 0.192203 2.2584 2.77344 1 0 0 -6.74514e-08 -1.80616e-07 -3.71599e-08 5.71442e-08 1.54231e-07 3.40595e-08 2.77339e-08 3.37509e-09 6.81045e-09 0.5 -2.35847e-08 -7.48846e-08 -1.05541e-07 2.76346e-09 1.45784e-08 9.12396e-09 
919 2 0.650389 4.31552 3.53385 1 0 0 1.60818e-09 -1.7524e-07 6.97116e-08 -2.32072e-09 1.48977e-07 -5.81948e-08 2.40726e-08 8.54123e-09 -2.81297e-08 0.5 -7.28214e-08 -1.27883e-07 -7.53339e-08 7.18664e-08 -4.65325e-10 4.61648e-08 
95 1 3.53903 3.77814 2.2694 0 0 1 3.0468e-08 -6.32408e-08 8.58406e-08 -2.64457e-08 5.68095e-08 -7.51958e-08 2.02067e-09 9.99103e-10 3.61866e-09 0.5 -5.61924e-08 -1.86912e-08 -9.66952e-08 9.07715e-09 3.3287e-08 -1.21826e-08 
458 1 1.5569 4.7536 3.86468 1 0 0 1.29083e-08 -1.19488e-07 1.05899e-07 -1.28007e-08 1.01133e-07 -9.0893e-08 -2.37098e-08 4.83297e-09 6.86623e-09 0.5 -4.63127e-08 -2.82139e-08 -2.75571e-08 3.79739e-08 -7.61824e-09 -1.85525e-09 
41 1 1.14045 0.960462 2.01108 0 0 0 -3.27962e-08 -1.1439e-07 -8.71334e-08 2.71068e-08 9.69914e-08 7.74776e-08 4.04668e-08 -5.78956e-09 1.98527e-08 0.5 -3.79154e-08 -3.13081e-08 -9.13982e-08 2.11011e-08 6.0731e-08 -3.36111e-08 
814 2 0.27112 1.22753 3.40348 1 0 0 -6.46528e-09 -1.46658e-07 -7.5161e-08 3.99482e-09 1.24394e-07 6.74059e-08 2.17833e-08 -1.38528e-08 4.21509e-08 0.5 -8.19638e-08 -8.38718e-08 -9.77693e-08 3.27932e-08 6.99892e-08 1.02988e-07 
130 1 1.70518 2.6475 2.50033 0 0 0 -3.61947e-08 -1.30889e-07 -8.26281e-09 3.03794e-08 1.11524e-07 8.4731e-09 3.70209e-08 -1.49195e-08 -1.68969e-08 0.5 -2.90169e-08 -1.05127e-07 -9.27433e-08 5.04461e-08 3.6549e-08 6.62646e-08 
12 1 2.70258 1.09575 2.61132 0 0 0 1.74732e-08 -7.48734e-08 -4.07061e-08 -1.59013e-08 6.40576e-08 3.46876e-08 2.14819e-08 -2.86846e-08 2.20606e-08 0.5 -1.16778e-07 -1.4823e-07 -1.04061e-07 7.45451e-08 5.26634e-08 2.70875e-09 
512 2 3.18635 2.03167 3.78747 0 0 0 1.86407e-08 -1.77284e-08 3.86267e-08 -1.85148e-08 1.4886e-08 -3.25816e-08 2.62718e-08 -7.31673e-09 1.77178e-08 0.5 -2.78351e-08 -5.63051e-08 -4.7139e-08 9.0562e-09 -8.38243e-09 5.83961e-08 
151 1 2.47925 3.30049 3.34132 0 0 0 1.78697e-08 -8.73875e-08 5.71245e-08 -1.55096e-08 7.60745e-08 -4.91608e-08 -7.98324e-09 -9.6537e-09 6.05142e-09 0.5 -3.26924e-08 -1.42961e-07 -1.28313e-07 2.61115e-08 3.51056e-08 4.11322e-08 
667 2 0.284319 1.3208 2.4071 0 0 0 -3.32283e-08 -1.52501e-07 -7.44989e-08 2.75842e-08 1.29772e-07 6.68709e-08 2.73122e-08 8.05147e-09 2.37384e-08 0.5 -4.66682e-08 -2.1435e-07 -1.64636e-07 1.11229e-08 -7.43393e-11 2.38777e-08 
38 1 3.79042 0.738149 3.87284 0 0 0 1.11127e-08 -1.38505e-08 -2.97326e-08 -1.20145e-08 1.3026e-08 2.45333e-08 -2.88987e-08 -7.04251e-09 5.02102e-10 0.5 -8.4373e-08 -2.84057e-08 -2.06507e-07 -9.41446e-08 5.12854e-08 1.49606e-07 
936 2 0.319906 3.36948 3.50683 1 0 0 -6.17412e-08 -1.50959e-07 2.28942e-08 5.20127e-08 1.2814e-07 -1.74801e-08 2.65443e-08 -2.34882e-08 -1.55871e-08 0.5 6.81337e-09 -1.54627e-07 -6.29163e-08 2.17785e-09 7.47253e-08 1.01752e-07 
531 2 4.80013 0.808197 2.48028 0 0 0 -2.69028e-08 -9.17362e-08 -1.8172e-08 2.18648e-08 8.12414e-08 1.4384e-08 2.87548e-09 -1.59307e-09 -1.47481e-08 0.5 -2.80235e-08 1.97085e-09 -5.85498e-08 -3.49249e-08 -5.41513e-08 -2.93013e-08 
527 2 4.03024 4.31517 3.61908 0 0 0 3.01759e-08 -4.63465e-08 1.10859e-07 -2.76457e-08 4.17666e-08 -9.68487e-08 -1.37734e-08 -4.97484e-11 4.95815e-09 0.5 -2.60092e-08 5.13058e-09 3.68073e-08 -3.71463e-08 -7.09097e-09 5.70864e-08 
383 1 4.36293 4.34454 2.28892 0 0 1 1.06644e-08 -3.44084e-08 8.53354e-08 -9.21838e-09 3.17267e-08 -7.54024e-08 4.58314e-09 -6.59454e-09 2.08449e-09 0.5 -5.41302e-08 -1.07208e-08 2.68278e-08 4.20078e-08 -1.14956e-08 -2.22499e-08 
992 2 0.695682 0.439322 3.85269 1 1 0 -9.79486e-10 -1.54758e-07 -1.01444e-07 -8.09745e-10 1.30923e-07 8.93688e-08 3.99008e-09 2.44986e-08 1.60574e-08 0.5 -6.69424e-08 -1.61809e-07 -3.49904e-08 4.7918e-08 -2.24474e-08 8.26885e-08 
521 2 4.93615 4.52796 3.25037 0 0 0 1.98585e-08 -3.49192e-08 9.26142e-08 -1.87808e-08 3.16051e-08 -8.15463e-08 -1.02142e-08 7.59689e-09 6.15674e-09 0.5 4.86269e-09 -3.88057e-08 -4.49502e-08 -5.35486e-09 -5.82259e-09 5.84082e-08 
136 1 1.88498 1.67143 2.62265 0 0 0 -2.88299e-08 -1.39622e-07 -8.85126e-08 2.3465e-08 1.19036e-07 7.84074e-08 1.47294e-08 2.21394e-08 1.61827e-08 0.5 -1.35283e-07 -1.44777e-07 -9.63336e-08 9.70391e-08 -9.49386e-09 4.26002e-08 
540 2 4.51129 0.178592 3.415 0 0 0 -3.99499e-09 -5.81897e-08 -3.38055e-08 1.449e-09 5.2496e-08 2.71466e-08 -2.75603e-08 1.25698e-08 -1.74969e-08 0.5 4.20704e-08 2.77104e-08 5.16582e-09 -2.72507e-08 -1.83276e-08 2.61191e-08 
510 2 3.85504 2.56842 3.17077 0 0 0 -1.24851e-08 -6.60929e-08 5.06114e-08 8.50638e-09 5.81627e-08 -4.52646e-08 5.70979e-09 -2.09497e-09 7.79032e-10 0.5 4.22548e-08 5.83764e-08 -3.49975e-08 7.89264e-09 6.84886e-09 4.88029e-08 
19 1 4.3655 1.84749 2.40882 0 0 0 -1.80356e-08 -1.10491e-08 1.92992e-08 1.35047e-08 1.07972e-08 -1.85482e-08 1.52282e-08 4.01256e-09 8.90925e-10 0.5 -1.52037e-07 -5.9795e-09 -7.81545e-08 7.43851e-09 6.80574e-08 1.41428e-08 
543 2 1.07326 1.78713 3.19513 0 0 0 -1.78019e-09 -1.43727e-07 -4.93085e-08 -1.74549e-11 1.2164e-07 4.45507e-08 3.19559e-08 2.87388e-08 1.08114e-08 0.5 -1.46625e-08 -1.97302e-08 -9.13381e-09 -2.89754e-08 2.4377e-08 1.52958e-08 
773 2 4.78774 2.22773 3.30763 0 0 0 -6.94286e-09 -5.70755e-08 4.34951e-08 3.96839e-09 5.1199e-08 -3.9024e-08 1.28623e-08 1.48724e-08 -1.05967e-08 0.5 2.53178e-09 -1.18332e-07 -2.29144e-07 -2.38419e-08 5.18789e-08 2.28714e-07 
555 2 2.23907 2.5056 3.89852 0 0 0 1.61859e-08 -7.82102e-08 6.95148e-08 -1.59055e-08 6.87395e-08 -5.98452e-08 -8.70551e-09 -2.39775e-09 8.22438e-09 0.5 2.37775e-08 3.38643e-08 3.57834e-08 1.23886e-08 6.53959e-09 4.7586e-08 
429 1 0.306925 2.40106 3.75655 1 0 0 -4.82392e-08 -1.6539e-07 -4.15901e-08 4.03323e-08 1.40569e-07 3.79938e-08 1.73604e-08 6.70521e-09 3.14037e-08 0.5 -3.21696e-08 -2.52098e-07 -1.46718e-07 5.88455e-08 -3.75201e-08 1.40854e-07 
316 1 0.889712 0.512877 2.86992 1 0 0 -4.06561e-08 -1.51901e-07 -1.09518e-07 3.35905e-08 1.28847e-07 9.64344e-08 1.71236e-08 2.3263e-09 2.36258e-08 0.5 1.4286e-08 -3.04371e-08 -2.11606e-08 1.09711e-08 8.61842e-09 3.01395e-08 
503 2 3.61689 0.768796 2.88623 0 0 0 9.60063e-09 -7.51185e-08 -2.81022e-08 -8.82197e-09 6.52757e-08 2.27722e-08 -4.2313e-09 -4.41333e-09 1.13438e-08 0.5 -2.21888e-08 5.6685e-09 -1.54106e-07 6.53831e-09 -1.07699e-08 4.2714e-08 
896 2 0.702247 3.66501 2.63024 1 0 0 1.93279e-08 -1.59172e-07 5.73816e-08 -1.80272e-08 1.35233e-07 -4.72694e-08 1.91817e-08 7.69809e-09 -9.34536e-09 0.5 -9.86348e-08 -5.92125e-08 -1.63309e-07 2.62039e-08 -5.2621e-08 4.58878e-08 
690 2 1.93672 4.67095 2.92999 0 0 0 8.08467e-09 -9.92636e-08 1.05926e-07 -7.7879e-09 8.51744e-08 -9.05961e-08 -3.1007e-09 4.74567e-09 2.44781e-08 0.5 -1.12888e-07 -5.81436e-08 -2.24391e-08 7.44392e-08 4.65618e-11 -1.32091e-08 
641 2 3.45948 3.5005 3.22725 0 0 0 1.43375e-08 -4.792e-08 8.83434e-08 -1.28864e-08 4.30674e-08 -7.75376e-08 -9.14717e-09 -1.47702e-09 1.01738e-08 0.5 -7.13496e-09 1.78859e-08 -7.16287e-08 1.58247e-08 -3.47253e-08 9.07028e-08 
528 2 3.34275 4.80215 2.44243 0 0 0 2.91602e-08 -7.80148e-08 8.1836e-08 -2.63497e-08 6.79601e-08 -7.19614e-08 -3.95163e-10 2.82867e-09 4.29083e-09 0.5 -1.11498e-08 -2.08328e-08 -3.69225e-08 -1.92183e-08 -4.61021e-09 -6.22321e-09 
225 1 2.66658 2.37982 2.99794 0 0 1 -2.96092e-08 -9.16669e-08 4.63244e-08 2.42089e-08 7.93763e-08 -3.94715e-08 -7.22892e-09 1.86001e-08 1.07076e-08 0.5 -3.82625e-08 -9.81858e-08 -7.19852e-09 5.98559e-08 -2.71571e-08 -3.01189e-09 
119 1 0.614476 2.84343 2.06694 0 0 0 -6.74493e-08 -1.25494e-07 2.1768e-08 5.69482e-08 1.06611e-07 -1.72119e-08 4.4288e-08 4.19381e-09 -1.86758e-09 0.5 2.33961e-08 -6.5219e-08 -1.24676e-07 1.93061e-08 4.83075e-08 -4.90392e-10 
94 1 2.46189 3.50067 2.00487 0 0 1 -3.74711e-09 -9.64026e-08 1.03341e-07 2.76671e-09 8.29217e-08 -8.90245e-08 1.76731e-08 -5.32588e-09 4.73161e-09 0.5 2.42761e-08 3.11595e-08 1.20738e-08 2.86562e-08 2.54817e-08 3.97857e-08 
522 2 2.58373 2.50801 2.00903 0 0 0 -1.34085e-08 -9.79997e-08 4.41905e-08 1.09199e-08 8.42668e-08 -3.77435e-08 3.45441e-08 -1.44323e-08 1.22477e-08 0.5 -2.31379e-09 5.48826e-09 -3.52312e-08 3.36645e-08 3.78265e-08 9.97794e-09 
200 1 2.46549 0.208501 4.19599 0 1 0 4.07786e-08 -5.23628e-08 -5.29513e-08 -3.83274e-08 4.45445e-08 4.49976e-08 -3.43039e-08 -2.35903e-08 5.20431e-08 0.5 -8.18374e-08 -4.4867e-08 -1.45644e-07 2.0719e-08 5.42975e-08 3.80489e-08 
114 1 4.70709 1.00384 4.17137 0 0 0 6.55331e-09 -1.8427e-08 -1.16091e-08 -8.28939e-09 1.79567e-08 8.6826e-09 -1.19544e-08 -6.96195e-09 -1.37052e-08 0.5 -4.99356e-08 1.86711e-09 -7.24173e-09 -6.82671e-09 -3.16233e-08 -4.89955e-09 
820 2 1.30996 2.29325 4.21136 1 0 0 3.96553e-09 -1.11571e-07 1.34817e-08 -4.38257e-09 9.44104e-08 -1.02109e-08 -1.99962e-08 -1.4864e-08 3.10401e-08 0.5 5.07036e-09 2.92022e-08 -3.47542e-08 9.3813e-08 3.07235e-08 5.69298e-08 
47 1 4.65574 1.582 5.43553 0 0 0 4.14105e-08 2.45461e-09 1.39405e-08 -3.89747e-08 3.80544e-10 -1.32377e-08 4.52692e-09 2.07076e-08 8.81752e-09 0.5 -5.73003e-08 -9.25466e-08 -3.80365e-08 -2.35108e-08 -4.50907e-08 7.4402e-08 
824 2 1.64908 3.83184 5.79238 1 0 0 1.17191e-08 3.33694e-08 1.05819e-07 -1.0261e-08 -2.86879e-08 -9.01024e-08 -3.04771e-08 2.21557e-09 -1.09977e-08 0.5 -1.79548e-08 -1.49419e-08 -6.46882e-08 -5.27875e-09 5.42474e-10 2.3032e-08 
172 1 3.44268 0.338821 4.72114 0 1 0 4.87118e-09 4.22957e-08 -5.78147e-09 -7.91594e-09 -3.63217e-08 2.899e-09 -3.75963e-08 -9.7844e-09 1.54809e-08 0.5 -7.59704e-08 -7.92565e-08 -2.69871e-07 -6.7074e-08 6.68835e-08 1.13419e-07 
718 2 0.202285 2.03673 5.5128 0 1 0 -7.2053e-09 -4.17737e-08 2.37798e-08 4.40849e-09 3.37896e-08 -1.84377e-08 -2.85723e-08 -1.35259e-08 -2.00537e-09 0.5 -1.22375e-07 -2.79037e-08 -8.04026e-08 5.9323e-08 -6.16838e-08 1.69546e-07 
505 2 0.484433 3.5018 5.83385 0 0 -1 -1.27854e-08 5.17612e-08 7.95988e-08 1.09797e-08 -4.7497e-08 -6.70808e-08 6.37736e-09 -1.53474e-08 3.84205e-08 0.5 -1.67065e-09 -2.22568e-07 -1.13576e-07 1.1488e-08 -2.63953e-09 1.83109e-07 
524 2 3.99535 2.7352 5.70679 0 0 0 1.01193e-07 1.04434e-07 1.31705e-07 -9.15651e-08 -8.73703e-08 -1.16492e-07 -3.16076e-08 8.72752e-08 4.54427e-08 0.5 1.88573e-09 2.0945e-08 2.37773e-08 -1.70133e-08 -1.93199e-08 1.94684e-08 
839 2 0.579387 1.61472 4.31101 1 0 0 2.75335e-08 -1.50469e-07 -5.75378e-08 -2.47227e-08 1.28006e-07 5.2023e-08 -1.00902e-08 1.64725e-10 3.39884e-08 0.5 -1.29845e-08 -1.67701e-07 -1.00023e-07 1.10357e-07 -7.69176e-09 1.76831e-07 
937 2 2.44361 3.38654 4.3372 1 0 0 2.39664e-08 -6.5348e-08 5.41208e-08 -2.15972e-08 5.74871e-08 -4.6642e-08 -2.23103e-08 -1.51229e-08 2.46228e-08 0.5 3.33003e-08 4.51252e-08 -1.16276e-07 6.44226e-08 1.407e-08 5.71139e-08 
811 2 2.60623 3.94632 5.52498 1 0 0 1.4834e-09 2.87118e-08 6.76984e-08 -1.75649e-09 -2.35107e-08 -5.78892e-08 -2.76684e-08 -1.75227e-08 5.91187e-11 0.5 -1.24358e-08 -5.39541e-08 -1.78966e-08 -2.30711e-08 -1.84356e-08 5.49969e-08 
827 2 1.52088 3.18133 4.66349 1 0 0 2.59875e-08 -1.12559e-07 3.06394e-08 -2.23182e-08 9.52946e-08 -2.51669e-08 -3.80704e-08 -1.99896e-08 -2.21644e-09 0.5 1.66026e-08 -1.04981e-08 -9.74065e-08 4.50258e-09 1.26367e-08 7.62121e-08 
149 1 4.05563 3.93275 4.61881 0 0 0 1.0613e-08 1.2758e-08 9.53127e-08 -1.11965e-08 -8.98981e-09 -8.35026e-08 -1.25213e-08 4.99889e-09 2.2363e-08 0.5 -3.7111e-08 -4.02105e-08 3.39525e-08 1.27087e-07 -7.66302e-08 3.79966e-08 
925 2 0.623246 3.59905 4.52293 1 0 0 4.19924e-08 -8.42171e-08 1.02038e-08 -3.67828e-08 6.95869e-08 -7.2572e-09 -3.46121e-08 1.35165e-08 -7.01069e-09 0.5 2.47483e-08 -5.77279e-08 -1.69462e-08 -1.25298e-08 -1.15661e-08 3.03868e-08 
168 1 3.33522 4.60361 5.33159 0 0 0 1.26596e-08 2.41997e-08 9.82337e-08 -1.21507e-08 -1.92877e-08 -8.60927e-08 -2.21816e-08 -1.51511e-08 2.07916e-08 0.5 -7.45416e-08 -5.98977e-08 -6.38263e-08 1.79216e-08 -3.57284e-08 5.04119e-08 
928 2 1.57471 4.4088 4.9787 1 0 0 1.94327e-08 2.02955e-08 9.6911e-08 -1.68769e-08 -1.67088e-08 -8.19443e-08 -1.84038e-08 3.53074e-09 -1.8699e-08 0.5 -3.42254e-08 -4.28254e-08 -4.23994e-08 -2.30739e-08 5.61602e-09 3.59877e-08 
148 1 3.93983 3.74234 5.7457 0 0 0 -3.30197e-09 1.00749e-07 1.3474e-07 1.06659e-09 -8.41743e-08 -1.17509e-07 -3.15041e-08 -1.24534e-08 5.88429e-08 0.5 3.08733e-08 6.57191e-08 7.48072e-08 4.55684e-08 5.21122e-08 4.5423e-08 
914 2 4.69244 4.38506 5.24423 0 0 0 -2.91859e-08 5.41997e-08 1.06749e-07 2.34043e-08 -4.32317e-08 -9.47361e-08 -4.72147e-08 -1.54085e-08 -7.3447e-09 0.5 -1.6961e-09 1.68005e-08 3.01541e-08 4.35549e-09 1.0828e-08 1.91412e-08 
23 1 2.87773 1.11847 4.05716 0 0 0 -2.41569e-10 -3.59394e-08 -4.80413e-08 -2.62606e-09 3.05638e-08 4.16512e-08 1.18963e-08 -3.22948e-09 1.23077e-08 0.5 -6.51303e-08 -6.2392e-08 -5.05649e-08 -2.49654e-08 3.35178e-08 4.5901e-08 
594 2 2.05586 1.97089 4.80241 0 0 0 2.8645e-08 1.77694e-08 4.6073e-08 -2.61185e-08 -1.65133e-08 -3.75316e-08 1.29805e-08 -1.61328e-08 4.45773e-08 0.5 -3.7128e-10 -7.89419e-08 -1.59315e-08 5.67965e-08 -2.68106e-08 4.61987e-08 
539 2 3.78455 1.04074 5.46912 0 0 0 1.98353e-08 8.36849e-08 3.38677e-08 -2.00371e-08 -7.10865e-08 -3.10772e-08 -1.59268e-08 2.83481e-08 -6.8695e-09 0.5 -2.73028e-08 -2.57596e-07 -1.10044e-07 -8.45212e-08 -6.84996e-08 2.13466e-07 
730 2 0.461765 1.11568 5.16957 0 1 0 4.54312e-09 -4.59518e-08 1.10757e-10 -6.19969e-09 3.73628e-08 1.86325e-09 -1.31134e-08 -7.00949e-09 4.32869e-08 0.5 7.0884e-08 -1.44872e-08 -5.92367e-08 1.12349e-08 -1.52476e-08 1.2255e-07 
689 2 3.51933 0.103669 5.69619 0 1 0 -5.68692e-10 7.87846e-08 -9.86246e-09 -2.16605e-09 -6.69205e-08 6.67857e-09 -9.25105e-09 -1.24434e-08 -3.60173e-09 0.5 -1.07231e-07 -3.16788e-07 -2.7562e-07 -3.68831e-08 8.43814e-09 2.37047e-07 
450 1 0.619288 4.79871 4.46892 1 0 0 9.54542e-08 -6.37439e-08 6.43473e-08 -8.25453e-08 5.33371e-08 -5.3161e-08 -6.85311e-08 -1.72842e-08 1.16787e-08 0.5 -3.44268e-08 -9.56865e-08 -2.04111e-07 7.3453e-09 -3.53267e-08 1.13741e-07 
549 2 4.49944 0.500888 5.01435 0 0 0 -3.23634e-08 2.37935e-08 5.76211e-09 2.52729e-08 -1.90893e-08 -6.75897e-09 -1.13366e-08 1.21873e-08 -2.96042e-08 0.5 7.88779e-08 1.06336e-07 5.54164e-08 -4.75281e-08 -3.1303e-08 4.87789e-08 
591 2 1.44655 1.12499 4.40334 0 0 0 5.26434e-08 -1.08914e-07 -8.51752e-08 -4.689e-08 9.11912e-08 7.53714e-08 -2.1272e-08 2.12302e-08 5.91697e-09 0.5 -6.18167e-08 -9.75149e-08 -7.58629e-08 2.51311e-08 9.12697e-09 7.46785e-08 
243 1 1.20287 1.83742 5.34381 0 1 0 -1.20194e-08 3.87976e-09 -8.97296e-09 8.31207e-09 -5.50155e-09 9.27767e-09 -1.08793e-08 -9.39667e-09 2.43424e-08 0.5 -3.59189e-08 -3.92286e-08 -1.74469e-08 4.62376e-08 -1.40217e-08 5.79307e-08 