ITEM: TIMESTEP
100000
ITEM: NUMBER OF ATOMS
1000
ITEM: BOX BOUNDS xy xz yz pp pp pp
0.0000000000000000e+00 1.0000000000000000e+01 0.0000000000000000e+00
0.0000000000000000e+00 1.0000000000000000e+01 0.0000000000000000e+00
0.0000000000000000e+00 1.0000000000000000e+01 0.0000000000000000e+00
ITEM: ATOMS id type x y z ix iy iz vx vy vz fx fy fz omegax omegay omegaz radius c_2[1] c_2[2] c_2[3] c_2[4] c_2[5] c_2[6] 
120 1 3.19446 1.47198 0.0493173 0 1 0 -0.0809846 0.164719 0.0330935 -1.70607 2.82881 1.32362 0 0 0 0.5 -0.503037 -2.76927 -0.352895 -0.489941 0.234225 -0.608332 
525 2 2.12921 1.27914 1.73871 0 0 0 -0.0288768 -0.0658656 -0.0474653 0.189571 0.0252699 0.180761 0 0 0 0.5 0.0483627 -0.00517894 0.0743628 -0.00300243 0.0384269 -0.00726527 
371 1 4.96066 3.71594 1.51489 0 0 1 -0.0214096 -0.0649546 0.117614 -0.71749 7.76565 -0.795171 0 0 0 0.5 0.687355 -3.19057 0.240279 -0.117142 0.212362 0.544693 
18 1 1.99178 2.66971 0.48621 0 0 0 -0.0106349 0.0432366 0.0836122 -0.0959273 -0.0952305 -0.0217661 0 0 0 0.5 0.0149414 -0.22867 -0.0757017 0.217688 0.161655 -0.123692 
94 1 2.48369 3.54043 1.94785 0 0 1 -0.0645571 -0.0879876 0.0976829 0.584 9.49887 2.90858 0 0 0 0.5 0.124703 -2.52582 1.39572 0.699547 0.442724 1.08198 
25 1 1.40311 0.705954 1.1807 0 0 0 0.0253051 0.00740822 -0.208705 -2.2011 -8.7979 3.4374 0 0 0 0.5 -0.428385 -3.74038 -0.506828 -0.982054 0.366309 1.47873 
36 1 2.06372 0.0165512 1.62195 0 0 0 0.0410767 -0.0728533 -0.215294 0.269965 0.0328906 0.609179 0 0 0 0.5 0.0783398 0.0389463 0.146532 0.0189584 0.103112 0.00274913 
8 1 3.43788 2.08296 1.71067 0 0 0 0.0106662 0.0209917 0.0292692 -2.12919 -2.27055 2.52014 0 0 0 0.5 -0.874807 -0.46174 -0.557314 -0.622262 0.612187 0.462146 
629 2 4.07501 2.61388 1.15182 0 0 1 -0.00893347 -0.0186196 0.0247914 -0.459381 4.78818 -0.149825 0 0 0 0.5 0.602879 -0.0991829 -0.36691 -1.48987 0.161288 0.9452 
5 1 2.3721 3.8708 0.972081 0 0 0 -0.0923176 0.110153 0.114112 0.19107 -0.262431 0.0641881 0 0 0 0.5 0.0471778 0.0225744 0.0734906 -0.0308703 0.0027048 -0.0297461 
650 2 0.513322 3.50485 1.1661 0 0 0 -0.109456 -0.151573 -0.0440972 1.96254 -3.93302 -0.887563 0 0 0 0.5 0.181709 1.62477 -0.120091 -0.318326 0.0191014 -0.110738 
14 1 3.30637 3.15741 1.48965 0 0 0 -0.0386054 -0.035178 0.0864601 2.54549 -5.24937 -4.22735 0 0 0 0.5 1.26893 -0.38558 -0.898237 -1.14956 -0.841643 -0.649852 
264 1 3.99597 3.88909 1.30975 0 0 0 -0.0242558 0.0183124 0.128025 0.590693 -0.95738 -1.65338 0 0 0 0.5 0.939319 0.108071 0.110609 0.113156 0.639475 0.0899836 
223 1 0.769138 2.53592 1.16185 0 0 1 0.0337382 -0.182714 -0.0585591 -1.11291 6.30347 3.2726 0 0 0 0.5 -0.153044 1.5408 0.322093 -0.6027 0.35554 0.456401 
364 1 4.42437 4.20861 0.45461 0 0 1 0.0217941 0.0666004 0.159151 -4.70766 2.14028 -1.44102 0 0 0 0.5 1.04685 0.75847 0.518673 -0.71892 1.15994 -0.0927169 
107 1 1.67727 1.6033 0.834871 0 0 1 0.0514745 -0.0372631 -0.15066 -2.58 13.738 -3.9696 0 0 0 0.5 -0.309196 -4.0411 -0.00788675 -0.87506 1.09845 0.759462 
529 2 2.66317 2.18259 1.04493 0 0 0 0.0397314 0.0697945 0.04812 -1.41176 1.85167 -0.197392 0 0 0 0.5 -0.252783 -0.828891 0.0599993 0.422388 -0.0921685 0.141867 
515 2 4.38529 0.460861 1.66302 0 0 0 0.00585081 -0.0237112 -0.07999 1.23804 0.909604 -0.108292 0 0 0 0.5 0.281014 0.126564 0.0466799 -0.154463 0.0730894 0.129461 
244 1 4.12347 0.548728 0.689442 0 1 1 -0.114167 0.0380764 -0.0372989 12.1645 9.33043 -6.04967 0 0 0 0.5 -3.23302 0.408334 -0.710373 -1.18455 1.31134 0.279264 
20 1 2.8961 0.590556 1.81844 0 0 0 0.0109268 -0.0280367 -0.0935062 -1.85504 -4.80864 4.42218 0 0 0 0.5 -0.278765 -1.40423 -1.25612 -0.516684 0.459882 1.35138 
280 1 4.09058 1.56886 1.13062 0 0 0 0.00233105 0.0871995 -0.0056915 -6.84804 -1.86846 1.16496 0 0 0 0.5 3.06553 0.0204458 -0.688335 1.06926 0.296259 -0.144533 
620 2 1.42262 4.4021 0.863099 0 0 1 -0.00143399 -0.0636231 -0.0171661 -0.276529 0.726633 -2.90441 0 0 0 0.5 -0.1023 0.271998 -1.03677 0.0252413 0.272038 0.157492 
1000 2 3.61584 2.34745 0.298776 0 1 1 -0.0672236 0.116544 0.023623 1.2717 1.08665 0.458307 0 0 0 0.5 -0.282903 -0.572207 -0.148825 -0.0962123 -0.160641 -0.0944426 
103 1 3.30672 3.66328 0.61846 0 0 1 -0.0791593 0.0325921 0.140776 0.49457 1.225 0.994453 0 0 0 0.5 0.161116 -0.00970741 0.227241 0.188768 0.458291 0.0908441 
536 2 0.506242 1.4231 0.0338661 0 0 0 -0.0491342 0.0560685 -0.130949 -2.92492 4.92155 4.86146 0 0 0 0.5 0.311176 -2.53689 -0.828604 -0.408838 -0.523277 -1.4933 
506 2 0.756058 1.51752 1.26725 0 0 0 0.0165638 -0.132808 -0.128504 2.51833 -2.64648 -1.84333 0 0 0 0.5 -0.66061 -0.920467 -0.416927 1.04693 0.592181 -0.572771 
626 2 1.3424 3.43311 0.603282 0 0 1 -0.102656 -0.0463435 -0.0793242 -0.419021 0.436008 0.552739 0 0 0 0.5 0.099636 -0.0700594 0.0780448 0.128511 -0.0713895 -0.00905693 
553 2 0.710545 0.13029 1.69065 0 0 0 0.0869028 -0.132766 -0.203872 -0.231229 0.559316 -0.383817 0 0 0 0.5 0.140939 0.162341 0.283393 -0.0461176 -0.00505526 -0.127568 
135 1 1.54086 3.28128 1.698 0 0 0 -0.0219565 -0.150322 -0.00434811 1.20958 -5.80313 -1.11574 0 0 0 0.5 0.107246 3.57279 0.023038 -0.616651 -0.0716424 0.606928 
624 2 4.32174 4.93777 1.37076 0 0 1 0.0177677 -0.0244424 0.228469 -1.38047 1.05877 -3.10314 0 0 0 0.5 0.541161 0.192854 1.07358 -0.0339655 0.440547 -0.123475 
256 1 4.59462 1.3412 0.297403 0 0 0 -0.0286694 0.100983 -0.0119429 -4.82753 -8.67001 0.705719 0 0 0 0.5 0.758352 2.52514 -0.0326498 1.56382 1.19891 0.287477 
260 1 3.3219 0.0849355 1.06729 0 0 0 0.0344966 -0.0352432 -0.0744749 -14.497 -10.0854 1.36382 0 0 0 0.5 -2.14521 0.687112 -0.16919 -1.31267 2.85181 1.59571 
616 2 3.18874 4.51306 1.42814 0 0 1 -0.0381027 -0.0537508 0.118302 0.126199 0.237303 0.185882 0 0 0 0.5 -0.108746 -0.0259551 0.107492 0.086779 0.0388271 0.0356436 
106 1 1.71863 2.30972 1.54152 0 0 1 0.0586073 -0.1987 0.014635 1.68532 8.14977 -0.35077 0 0 0 0.5 0.237141 3.24824 -0.15464 -0.626289 0.897968 1.00452 
157 1 1.39788 4.25894 1.85332 0 0 0 -0.0196326 -0.136897 -0.0489985 -2.83686 0.0711713 5.98478 0 0 0 0.5 -0.18569 0.49039 -0.034054 -0.747745 -0.428717 1.02152 
516 2 2.33309 0.851827 0.74353 0 0 0 0.0747491 0.0474183 -0.143466 0.0936226 2.12935 0.841336 0 0 0 0.5 -1.24717 -3.8411 -0.245247 1.20319 0.110578 -0.873285 
183 1 0.469252 4.7154 1.01807 0 0 0 -0.0369779 -0.291447 -0.0815429 -0.302642 0.408316 0.138859 0 0 0 0.5 -0.155315 -0.0816724 -0.0105369 0.107547 0.041825 -0.0267072 
625 2 0.431384 3.90446 0.222241 0 0 1 -0.0560062 -0.031707 -0.0111014 -0.458011 0.782112 -1.07423 0 0 0 0.5 0.144546 0.22199 0.457117 -0.115522 0.23919 -0.242666 
91 1 2.22691 4.78363 1.65527 0 0 1 -0.0156152 -0.097271 0.139672 -0.927377 -4.05432 -3.09459 0 0 0 0.5 -0.963155 -2.28999 -0.602904 -1.15192 -0.223119 -0.929669 
257 1 4.93635 2.72645 1.65778 0 0 0 -0.0177968 -0.0120984 0.073857 -0.29891 -8.33232 -1.58964 0 0 0 0.5 0.30285 -3.30552 -0.64587 -0.184948 0.00876703 0.492684 
4 1 3.71994 1.1532 1.96124 0 0 0 -0.0262809 -0.0305677 -0.0799877 1.15002 0.34 1.7766 0 0 0 0.5 -0.147508 0.320613 -0.0707067 -0.152176 -0.224002 0.151604 
522 2 2.59071 2.54647 1.97358 0 0 0 0.00436821 -0.024131 0.0838866 -0.667362 -7.45168 -0.0821258 0 0 0 0.5 0.495566 -3.27893 0.710193 0.67524 0.425791 0.1678 
117 1 3.12674 1.3034 1.15593 0 1 0 -0.0444004 0.0456096 0.0418879 9.65476 4.4984 -4.52842 0 0 0 0.5 2.20574 -2.24557 -1.72781 0.637274 -0.0450389 1.45997 
511 2 1.09486 2.19583 0.278293 0 0 0 -0.00159851 -0.00489015 -0.120606 -4.5202 14.3112 9.3055 0 0 0 0.5 -1.22808 -6.39603 -1.72854 2.55418 2.49042 -4.17946 
911 2 0.479561 0.568605 0.800894 1 0 0 0.0369584 0.0399515 -0.215642 0.294988 -10.4874 -0.27337 0 0 0 0.5 -0.0564092 5.07429 0.25459 -0.28994 0.0181663 0.32114 
668 2 0.0175066 3.94171 1.91892 0 0 0 -0.108863 -0.338045 0.0478281 -3.02682 9.40822 -0.500157 0 0 0 0.5 0.268782 2.40186 -0.0306973 -1.29025 0.180787 -0.372938 
90 1 2.96298 4.55784 0.332311 0 0 1 -0.0449798 0.0551822 0.163228 3.58544 -0.0209514 0.771228 0 0 0 0.5 -0.9476 -0.0930361 -0.125792 0.190156 -0.302965 -0.0515719 
734 2 4.14442 3.19951 0.298593 0 1 1 -0.0919129 0.141628 0.134533 6.12462 -2.34025 -1.01571 0 0 0 0.5 2.00313 0.499787 0.848096 -0.251342 0.130579 -0.11269 
672 2 0.0874036 2.09018 1.7453 0 0 0 0.0390124 -0.224369 -0.118613 -4.43431 1.77062 3.05412 0 0 0 0.5 -0.971145 -0.190096 -0.553671 0.636345 0.877613 -0.283243 
759 2 4.94292 2.04865 0.921923 0 0 0 0.0628681 0.00876762 0.0460735 -1.32378 -5.90393 2.48286 0 0 0 0.5 0.141987 -2.78479 0.113131 -0.310883 0.0835759 0.957749 
609 2 2.00977 4.72549 0.0771512 0 0 1 -0.00576286 0.0659478 0.108944 -3.52101 1.3728 -0.466724 0 0 0 0.5 -1.56398 -2.61812 -0.257917 1.17728 0.011608 -0.382511 
622 2 0.975005 4.7615 0.0442537 0 0 1 -0.0358367 0.00894969 0.0254909 -4.78678 8.54168 4.57764 0 0 0 0.5 -1.07239 -3.47684 -0.48902 2.09706 1.0733 -1.68154 
378 1 4.64137 2.36757 0.0169592 0 0 1 -0.0092742 0.105803 0.110909 -0.963211 0.0883086 -0.488476 0 0 0 0.5 0.0488837 0.0903271 -0.36329 -0.376982 -0.279565 -0.0456219 
21 1 1.82637 0.434575 2.51629 0 0 0 0.105067 -0.163246 -0.141492 -0.247896 0.0555801 -0.10293 0 0 0 0.5 0.0508527 0.118363 0.0713803 -0.0403599 0.0246774 -0.0291164 
682 2 2.73006 4.12679 2.71956 0 0 0 0.00930763 -0.0321152 0.0802366 0.301009 -4.43861 -4.43017 0 0 0 0.5 1.04418 1.27125 1.69775 0.122956 -0.176781 0.806085 
907 2 0.971954 4.70538 2.64052 1 0 0 0.0143667 -0.123547 0.0033665 -1.299 -1.5652 -4.67779 0 0 0 0.5 -0.819585 0.395137 0.878472 -0.360503 -0.803832 0.764586 
144 1 1.66839 3.67126 2.80638 0 0 0 0.0362335 -0.11178 -0.0105231 -0.861567 -0.301088 -0.313652 0 0 0 0.5 0.312265 0.205776 0.0242524 -0.00775586 0.0552559 0.0667735 
675 2 2.79786 4.78655 3.49368 0 0 0 0.0224935 -0.10983 0.0579521 -0.475164 0.975026 0.588904 0 0 0 0.5 0.0128678 -0.359489 0.0503821 0.167307 -0.222658 -0.0301142 
502 2 4.37302 1.38363 3.26847 0 0 0 0.0126571 -0.126426 -0.0176232 -0.280744 0.303758 -0.373408 0 0 0 0.5 -0.000982907 0.068217 -0.0948263 0.104551 0.0429557 0.0884383 
27 1 2.58688 0.3541 3.24196 0 0 0 0.0325932 -0.0779378 -0.0639923 -0.89917 -1.19448 7.93388 0 0 0 0.5 0.373289 0.145509 3.98468 -0.043247 -0.707169 -0.443137 
965 2 1.30968 3.71862 3.81762 1 0 0 0.0998138 -0.0418509 -0.0557998 0.331709 -7.92772 0.211274 0 0 0 0.5 -0.0941159 2.71489 1.83208 0.389346 0.358176 0.632589 
61 1 1.64629 0.51258 3.57788 0 0 0 0.0104788 -0.129181 -0.0811101 0.0512613 0.230892 -0.266415 0 0 0 0.5 0.0608955 -0.0117185 0.11287 -0.0311109 0.176034 -0.0263038 
680 2 1.19034 2.83721 3.36023 0 0 0 0.0229016 -0.113768 -0.0155249 0.28566 7.17247 1.0413 0 0 0 0.5 -0.133349 2.22647 -0.653214 0.433444 0.281072 1.87426 
251 1 4.67509 3.12859 3.81796 0 0 0 0.0548218 -0.196453 0.163851 -0.0589256 0.579548 -0.540124 0 0 0 0.5 0.433587 0.138586 0.107169 0.0556117 -0.149295 0.0106488 
517 2 4.01968 2.95013 2.16916 0 0 0 -0.0436063 -0.0293595 0.120605 1.25441 -2.56366 -0.24848 0 0 0 0.5 -0.273535 -1.10496 0.150215 0.612384 0.0976626 -0.0934275 
6 1 3.39877 1.81711 2.69889 0 0 0 0.082466 -0.0485694 0.0523658 2.41457 -2.54898 -1.31996 0 0 0 0.5 -0.964663 -0.53902 0.0591886 0.878386 0.361425 -0.161016 
519 2 4.42401 3.68705 2.95057 0 0 0 -0.0113796 -0.177725 0.157897 1.81371 -3.43308 -1.63866 0 0 0 0.5 0.576373 0.904841 -0.149332 -0.862024 0.025325 0.346864 
509 2 1.8783 1.55534 3.69869 0 0 0 0.116141 -0.0799499 -0.203539 5.99298 -2.65614 5.24456 0 0 0 0.5 -2.60161 -0.287199 -0.895682 1.04009 -1.76668 0.430791 
142 1 1.0336 2.01686 2.20889 0 0 0 0.0329239 -0.158736 -0.0262429 -2.0644 -1.17274 1.58009 0 0 0 0.5 -0.407606 0.132166 -0.581561 -0.128716 0.554598 0.300366 
941 2 0.200224 2.37036 2.82468 1 0 0 0.0634002 -0.166146 -0.155156 -0.293419 -0.300606 0.991381 0 0 0 0.5 -0.0516821 0.110772 0.0751742 -0.0928806 0.108959 0.198155 
919 2 0.622303 4.39148 3.54348 1 0 0 0.077643 -0.0863432 -0.0825406 -1.28473 0.0592228 0.587716 0 0 0 0.5 -0.177567 0.0394863 -0.348013 0.214172 0.042805 0.172649 
95 1 3.53 3.8268 2.1983 0 0 1 0.0127749 -0.123346 0.0993799 -2.82946 7.02355 3.82496 0 0 0 0.5 0.163336 -2.12582 -1.80824 -0.0603223 -0.574028 -0.685861 
458 1 1.55269 4.84547 3.81505 1 0 0 -0.0245047 -0.204318 0.0818069 0.583481 -0.0969333 -0.275955 0 0 0 0.5 0.0675771 -0.132424 0.171177 0.0703518 0.0344713 -0.0436974 
41 1 1.12262 1.02846 2.08478 0 0 0 0.0767115 -0.143024 -0.138941 0.484951 1.61548 -2.09265 0 0 0 0.5 0.0236228 -0.121843 -0.891115 -0.195536 0.305258 0.542895 
814 2 0.249878 1.2845 3.46398 1 0 0 0.047762 -0.0613424 -0.0856332 -3.05369 -2.53199 1.1142 0 0 0 0.5 -1.09493 -0.687313 -0.111464 -0.652649 0.257454 0.272942 
130 1 1.7161 2.71116 2.51869 0 0 0 -0.000536941 -0.124581 -0.0205316 0.414586 0.172491 -0.220744 0 0 0 0.5 -0.18153 0.261341 -0.366687 0.0485879 0.219006 0.0682022 
12 1 2.66967 1.1367 2.62496 0 0 0 0.107699 -0.0665297 -0.0398333 -1.11155 0.245478 -0.394689 0 0 0 0.5 -0.2708 -0.0101096 0.0796067 0.126201 -0.024456 0.074608 
512 2 3.14123 2.04125 3.7556 0 0 0 0.117982 0.021635 0.105484 -0.437826 -0.95677 0.126062 0 0 0 0.5 -0.0858381 0.250146 -0.0217994 0.103958 -0.0667016 -0.0516873 
151 1 2.47582 3.35923 3.30855 0 0 0 0.0231487 -0.0985417 0.0167427 0.451172 -6.82552 -0.561197 0 0 0 0.5 -0.323612 3.91658 1.59855 -0.463473 -0.387851 0.693219 
667 2 0.270129 1.42068 2.47169 0 0 0 0.0378347 -0.227748 -0.109121 2.50485 7.14518 1.21187 0 0 0 0.5 -0.148906 -2.51201 -0.0253642 -0.856972 -0.243983 -0.648499 
38 1 3.75245 0.758973 3.88951 0 0 0 0.0689053 0.0403514 -0.0867521 0.0926928 -4.82258 4.80812 0 0 0 0.5 -0.0744861 0.366109 2.55247 0.822541 -0.800757 -1.44944 
936 2 0.327837 3.43265 3.52197 1 0 0 -0.0180993 -0.0735119 -0.0313916 3.29552 1.14669 2.22912 0 0 0 0.5 -0.930018 0.0995134 -1.04608 -0.11953 -0.830253 -0.307211 
531 2 4.79464 0.878714 2.4867 0 0 0 0.0156923 -0.105402 -0.0140086 -0.198175 -0.0239042 -0.360196 0 0 0 0.5 -0.0116957 -0.0263443 0.0777468 0.0332312 0.0523207 0.0388187 
527 2 3.98585 4.36198 3.54424 0 0 0 0.126963 -0.0333694 0.0842059 -4.2134 -1.17959 1.83486 0 0 0 0.5 -0.864431 -0.658092 -0.255549 -0.241728 0.369221 -0.244628 
383 1 4.35819 4.3873 2.2049 0 0 1 -0.00937435 -0.0933565 0.182284 0.310053 -0.0279376 0.168572 0 0 0 0.5 0.0109378 0.179959 -0.0506292 -0.0867744 0.0433352 0.0439886 
992 2 0.658507 0.486212 3.92117 1 1 0 0.101327 -0.0067155 -0.0534583 1.23947 -6.20948 -0.881996 0 0 0 0.5 0.00318501 2.87984 1.94394 -0.412201 -0.156388 -1.18844 
521 2 4.88952 4.58133 3.15622 0 0 0 0.068904 -0.117142 0.225557 3.21633 -3.27341 -4.78936 0 0 0 0.5 -0.536305 0.621058 0.891932 -0.537832 -0.0650933 0.988093 
136 1 1.87085 1.73593 2.67803 0 0 0 0.0643013 -0.122432 -0.0603282 -0.199296 0.372896 -0.357177 0 0 0 0.5 0.0817767 0.0520865 -0.262995 0.0242132 -0.0466926 0.0538778 
540 2 4.48806 0.243752 3.42027 0 0 0 0.0775683 -0.114625 0.0131443 -0.220188 -0.0248287 0.295211 0 0 0 0.5 -0.00917096 0.121606 0.204039 -0.2518 0.077712 -0.0228937 
510 2 3.82827 2.61914 3.11397 0 0 0 0.054372 -0.0825808 0.149193 0.401867 0.559938 -0.452867 0 0 0 0.5 0.462876 0.416802 0.0419238 -0.270283 0.0233967 0.0469974 
19 1 4.34423 1.87378 2.37762 0 0 0 0.0666457 -0.0312326 0.0101053 -0.0136548 -0.398414 -0.108132 0 0 0 0.5 0.113757 0.10631 0.107247 0.0289692 -0.00230947 0.0335041 
543 2 1.04382 1.84589 3.22969 0 0 0 0.0785824 -0.139051 -0.0335256 -3.48122 4.75894 -4.72002 0 0 0 0.5 -3.79823 -0.838583 -0.987309 0.12992 -1.25705 0.835025 
773 2 4.76645 2.303 3.26098 0 0 0 0.0532868 -0.142051 0.0799569 -2.34584 -4.29649 4.55711 0 0 0 0.5 0.117947 -1.4442 -1.07314 -0.93333 0.80135 1.49652 
555 2 2.19865 2.5641 3.8486 0 0 0 0.0538975 -0.0438952 0.131667 2.14042 1.19538 -2.57546 0 0 0 0.5 -0.354082 0.443137 0.633202 -0.0502038 -0.125775 -0.137841 
429 1 0.316145 2.47392 3.81266 1 0 0 0.0226288 -0.109367 -0.152161 0.184578 -0.928582 0.465851 0 0 0 0.5 -0.0120972 0.286196 0.353581 -0.106271 0.150806 -0.14783 
316 1 0.867654 0.588899 2.94606 1 0 0 0.0417847 -0.0871291 -0.146881 -0.740178 -3.72628 6.75135 0 0 0 0.5 0.161698 0.757505 0.82173 -0.278856 0.145515 -0.0550537 
503 2 3.59563 0.825938 2.90099 0 0 0 0.00223148 -0.144285 -0.101704 1.14109 1.04231 0.36309 0 0 0 0.5 -0.252191 -0.0403002 0.451813 0.110078 -0.0482538 0.0153809 
896 2 0.684328 3.74762 2.63848 1 0 0 0.0313377 -0.129737 -0.0345255 0.67633 -4.9383 -2.35132 0 0 0 0.5 0.263248 1.98863 0.746953 0.233751 -0.0591375 1.39285 
690 2 1.94072 4.71697 2.88897 0 0 0 -0.0176422 -0.0505962 0.0304331 2.81238 -0.177917 0.953642 0 0 0 0.5 -1.21023 0.0298987 0.0554582 -0.0173692 -0.374343 0.0132967 
641 2 3.45469 3.55152 3.15701 0 0 0 -0.0439822 -0.0803931 0.0942856 2.30661 -0.330352 1.92229 0 0 0 0.5 -0.0367275 0.473197 -0.368017 -0.232184 0.0961187 0.349552 
528 2 3.32834 4.84421 2.36242 0 0 0 0.000425217 -0.0120648 0.100446 -0.0556922 -0.505695 0.311162 0 0 0 0.5 0.0776592 0.0197214 0.145657 0.0391746 0.0896424 0.184016 
225 1 2.65985 2.43755 2.96524 0 0 1 0.0118001 -0.190476 0.0734779 -4.57633 10.1621 3.55009 0 0 0 0.5 -0.684265 2.45302 1.28167 0.203023 -0.153826 0.914037 
119 1 0.634501 2.92382 2.07376 0 0 0 -0.0160599 -0.181677 -0.0405812 0.973376 3.92268 0.223411 0 0 0 0.5 0.0359972 2.13156 1.92653 0.0210275 0.0588392 1.96106 
200 1 2.42068 0.232444 4.22057 0 1 0 0.00747017 -0.0215304 0.00925616 1.75322 1.43996 -8.12496 0 0 0 0.5 0.267625 0.334569 4.01507 0.206123 -0.612099 -0.577707 
114 1 4.66533 1.05417 4.17207 0 0 0 0.126335 -0.135496 -0.0728409 -0.504549 0.216369 1.7826 0 0 0 0.5 0.371096 0.583926 0.483779 0.337698 -0.0486393 -0.247232 
820 2 1.29144 2.32551 4.21388 1 0 0 0.078402 -0.0499138 -0.0113587 0.569651 -0.0250301 2.73079 0 0 0 0.5 -1.06737 -0.827196 -1.08129 -0.657026 0.227903 0.871967 
47 1 4.58218 1.62694 5.41173 0 0 0 0.152427 -0.0345817 0.0652039 -0.0949075 -4.6627 2.89519 0 0 0 0.5 -0.00432744 -1.9617 -0.788116 0.00252696 -0.0452049 1.29398 
824 2 1.60853 3.78784 5.73348 1 0 0 0.113006 0.142732 0.0699356 -0.739244 -4.05531 6.5031 0 0 0 0.5 0.332513 -1.2106 -1.21929 0.115177 -0.581576 1.43857 
172 1 3.40302 0.316275 4.71677 0 1 0 0.0680118 0.0799935 0.0209653 2.28213 2.92387 -6.0233 0 0 0 0.5 0.437611 0.69475 2.3245 0.562934 -1.03988 -1.27809 
718 2 0.195044 2.01484 5.52217 0 1 0 -0.00315837 -0.0144423 0.0451883 3.98894 7.84175 -8.38826 0 0 0 0.5 0.895604 2.48039 3.02448 1.31019 -1.44959 -2.44438 
505 2 0.46457 3.40514 5.81397 0 0 -1 0.146257 0.28067 -0.0565863 -2.2212 -15.1317 8.12373 0 0 0 0.5 0.0680402 0.791581 0.657691 -0.6764 0.479856 -0.762259 
524 2 3.92176 2.72911 5.62151 0 0 0 0.112775 -0.0226016 0.0908505 -0.227768 0.195127 0.147722 0 0 0 0.5 -0.0464463 0.0685353 -0.0614998 0.0119572 0.0449941 0.00447301 
839 2 0.542752 1.67509 4.37 1 0 0 0.164927 -0.0589769 -0.1218 -1.85902 -5.67934 6.31439 0 0 0 0.5 -0.0213187 1.26847 2.67387 -0.751564 0.0228179 -1.94573 
937 2 2.40898 3.43394 4.30412 1 0 0 0.127204 0.00164418 0.0298406 -3.68404 -4.12773 1.52063 0 0 0 0.5 -0.74047 -0.108532 1.36762 -0.694352 0.297647 -0.0887366 
811 2 2.56312 3.94241 5.47647 1 0 0 0.108955 0.139775 0.0472017 -0.622163 -2.97565 0.934687 0 0 0 0.5 -0.157416 0.110345 0.180774 -0.778787 0.147177 -0.0830815 
827 2 1.50129 3.21607 4.66276 1 0 0 0.119312 -0.0443811 -0.00374491 -3.72481 -3.18938 8.21276 0 0 0 0.5 1.15097 1.75486 6.32192 0.275456 -0.929188 -3.19573 
149 1 4.01841 3.95845 4.54435 0 0 0 0.0473305 -0.0749977 0.169756 -0.303409 0.483613 -0.45806 0 0 0 0.5 0.34872 0.0626561 0.180567 0.12075 0.0397046 -0.0112734 
925 2 0.585736 3.59864 4.53838 1 0 0 0.140572 0.0335336 0.00296361 1.04972 -1.02311 0.185886 0 0 0 0.5 0.357371 0.231901 0.022027 -0.175924 0.0270097 -0.0463931 
168 1 3.27284 4.61394 5.25384 0 0 0 0.223074 -0.0137894 0.0904676 0.333699 1.4321 0.14989 0 0 0 0.5 -0.410118 -0.359913 -0.230661 -0.558796 0.380233 0.163528 
928 2 1.56012 4.40058 4.94325 1 0 0 0.00645665 0.0360814 0.0692609 -0.732875 3.43658 -4.64494 0 0 0 0.5 0.17417 -1.36376 -1.97114 0.0500179 -0.115833 1.53256 
148 1 3.90565 3.73569 5.64382 0 0 0 0.0575875 -0.016639 0.155039 -0.00418617 0.0789868 0.300521 0 0 0 0.5 0.245197 0.26709 0.546895 0.195378 0.374459 0.226285 
914 2 4.66455 4.42661 5.14711 0 0 0 0.0643695 -0.130191 0.197244 -0.108809 0.466527 -0.372811 0 0 0 0.5 0.0848023 -0.10409 0.231388 0.00500227 -0.00133644 0.0437947 
23 1 2.83857 1.14013 4.06998 0 0 0 0.178645 -0.0326404 0.0307594 -4.36245 0.233723 1.42181 0 0 0 0.5 -1.01007 0.315688 0.702223 0.389008 -0.584456 -0.363213 
594 2 2.01397 1.94964 4.81071 0 0 0 0.16114 -0.0147297 -0.0838255 -3.67326 5.51203 -0.273218 0 0 0 0.5 -0.146086 -2.49213 0.076918 1.2018 -0.389176 0.411889 
539 2 3.71908 1.01853 5.43278 0 0 0 0.212122 0.0420278 0.104748 -1.03805 -0.254798 -1.16863 0 0 0 0.5 0.363709 0.157439 0.417878 -0.101274 -0.37021 0.0524162 
730 2 0.448201 1.10145 5.18417 0 1 0 -0.0258778 -0.000982537 -0.0246032 2.12823 3.20048 -6.61787 0 0 0 0.5 -0.208857 1.79717 2.52942 0.228932 -0.331064 -1.63658 
689 2 3.50594 0.0749705 5.69601 0 1 0 0.0113297 0.0555398 -0.00126926 0.664697 -0.662775 1.37131 0 0 0 0.5 0.43185 0.351747 0.204384 0.0649718 0.129611 -0.185028 
450 1 0.548044 4.81384 4.50272 1 0 0 0.112428 -0.0559456 -0.091395 -0.207985 -0.10699 0.332947 0 0 0 0.5 0.0169789 0.0455296 0.20175 -0.0104499 0.0514594 -0.126217 
549 2 4.4788 0.5282 5.00358 0 0 0 0.0883639 -0.0635502 -0.0122586 -0.36376 1.21232 -0.0614686 0 0 0 0.5 0.351141 0.42815 1.15517 -0.137516 -0.362728 -0.235702 
591 2 1.3824 1.13916 4.46264 0 0 0 0.212764 -0.00183123 -0.0849204 -1.37426 1.23867 -0.928255 0 0 0 0.5 0.603763 0.176477 0.299886 -0.236636 -0.11029 -0.198806 
243 1 1.20454 1.80249 5.40493 0 1 0 -0.0572887 0.00763894 -0.169933 0.895048 2.62214 -1.54899 0 0 0 0.5 -0.210907 0.441758 -0.403987 0.260775 -0.194762 0.457484 
646 2 3.70001 3.15054 4.03976 0 0 0 0.0391454 -0.0248281 0.0981395 -0.204597 0.557706 -0.139913 0 0 0 0.5 0.513882 0.816409 0.139283 -0.505025 -0.0156778 -0.0593374 
374 1 0.56418 2.63488 4.82919 1 0 0 0.0526322 -0.00161786 -0.0574392 -4.10313 -7.1525 8.08266 0 0 0 0.5 0.904766 2.44605 2.9422 1.29052 -1.57795 -2.54836 
418 1 0.655693 4.27893 5.35584 1 0 0 -0.0205724 0.0148471 0.0175559 1.93577 6.8156 -3.69602 0 0 0 0.5 0.0510503 -2.73242 -0.495075 -0.600875 0.264794 1.34902 
190 1 2.18382 2.37868 5.96778 0 1 0 -0.0155891 0.134667 0.165315 -0.923736 1.83805 -2.37997 0 0 0 0.5 0.251478 0.77722 0.650046 0.57813 -0.728641 0.098432 
507 2 3.64717 1.50957 4.55981 0 0 0 0.0312108 -0.127093 -0.000994758 1.62821 1.55023 1.51642 0 0 0 0.5 -0.399607 -0.0783397 0.0456146 -0.103428 -0.279213 -0.467757 
155 1 4.82851 3.44114 4.8243 0 0 0 0.100636 -0.00223411 0.143531 0.00910002 -2.51427 -1.13312 0 0 0 0.5 0.201508 1.10957 -0.112467 0.167328 -0.186058 -0.00828241 
573 2 2.44351 2.8468 5.115 0 0 0 0.24612 -0.0613822 0.0168595 -1.70426 0.233798 0.621273 0 0 0 0.5 -0.248996 0.41214 1.58346 -0.108656 0.0424009 -0.693788 
766 2 4.99216 3.00053 5.70786 0 0 0 0.119158 -0.0285718 0.121258 -0.103741 -0.784519 2.14129 0 0 0 0.5 0.416816 0.420595 0.300614 -0.0298804 -0.148925 0.036075 
513 2 3.42662 2.47159 4.72124 0 0 0 0.10571 -0.115615 0.0369242 -0.834037 0.508962 0.938115 0 0 0 0.5 -0.150171 0.289638 -0.0172071 0.102439 0.117266 -0.109496 
180 1 2.35376 4.46818 4.33852 0 0 0 0.0835608 -0.0213594 0.165211 0.430936 0.110669 -1.35579 0 0 0 0.5 0.345825 0.0360535 0.300314 -0.0714096 -0.129533 -0.0422149 
154 1 3.2579 3.44224 4.93961 0 0 0 0.0794411 -0.12612 0.17156 1.23678 1.37812 0.0144802 0 0 0 0.5 -0.00550831 0.153816 0.270031 -0.221353 0.111864 0.260183 
740 2 1.30274 2.78848 5.54458 0 1 0 -0.0618895 -0.0129202 0.0614465 2.78687 4.4036 -10.9999 0 0 0 0.5 0.265704 1.83076 5.59249 0.625687 -1.02697 -2.25079 
657 2 4.04878 4.71385 5.88216 0 0 0 0.133235 -0.00568579 0.207686 -0.249048 -0.302098 -0.600256 0 0 0 0.5 0.154285 0.150946 0.121078 0.0706298 -0.0333308 -0.0216565 
187 1 2.42005 1.04831 4.98002 0 1 0 -0.057728 0.0823195 0.0466929 3.87905 -5.62323 -1.34805 0 0 0 0.5 -0.35891 -2.53542 0.622853 1.18048 -0.507809 0.26762 
127 1 3.19058 1.8697 5.48476 0 0 0 0.0483456 -0.0569277 0.070313 -1.96071 0.60789 6.97557 0 0 0 0.5 0.362275 0.0350376 3.67597 -0.000206574 -1.05263 -0.0976257 
708 2 1.33883 0.744394 5.46691 0 1 0 0.0929302 0.153936 -0.20141 -0.939953 -1.60613 0.754988 0 0 0 0.5 0.293961 0.162077 0.075837 0.00744988 -0.0559618 -0.188952 
204 1 1.50982 0.160824 4.62706 0 1 0 -0.0285488 -0.0291928 -0.0716938 0.447996 -0.503428 0.271834 0 0 0 0.5 0.0196591 0.0384461 0.091394 0.0785549 0.0473433 -0.103436 
694 2 2.19726 0.262065 5.65818 0 1 0 0.0553824 0.102794 -0.0894908 0.00409272 0.572087 0.634532 0 0 0 0.5 0.440422 0.372846 0.193323 0.0859165 0.228128 0.0599583 
28 1 4.57748 2.47218 4.87581 0 0 0 0.0997846 -0.0431268 0.139139 2.68575 7.22966 -4.02856 0 0 0 0.5 0.981714 -0.917343 -0.778062 0.539979 -0.278952 1.12648 
671 2 3.65772 4.87713 4.34771 0 0 0 0.035535 -0.0829786 0.115211 0.620541 0.436359 -0.71927 0 0 0 0.5 0.224395 0.186391 -0.0786723 -0.0802849 0.0293559 0.215709 
741 2 0.595498 0.110952 5.18196 0 1 0 0.146308 0.0111062 -0.240556 -0.242189 7.22235 -2.51682 0 0 0 0.5 0.142623 -1.71038 -0.648166 -0.275383 0.309298 1.30599 
396 1 4.921 4.19013 4.16747 0 0 0 0.0156269 -0.0411012 0.0805066 0.176681 -1.57097 0.540049 0 0 0 0.5 0.310697 -0.156807 0.318664 -0.148681 -0.142282 -0.232736 
727 2 1.99534 1.4003 5.86659 0 1 0 -0.028834 0.153291 -0.114345 1.34961 0.371799 1.81884 0 0 0 0.5 -0.485324 0.294761 -0.201045 0.271362 -0.142018 0.0528409 
546 2 2.86016 3.1262 5.98455 0 0 0 0.171519 0.0680227 0.0335419 -1.75279 0.127124 -0.873974 0 0 0 0.5 0.406566 0.772819 0.526764 0.126453 0.135136 -0.237266 
647 2 4.09789 2.21781 4.00687 0 0 0 0.114706 -0.0446561 0.129066 -0.104693 -0.350375 -0.0901693 0 0 0 0.5 -0.243068 0.272943 -0.27729 0.0422504 0.165313 -0.113827 
678 2 3.17561 4.00367 4.00804 0 0 0 0.0965316 0.0404361 0.096622 4.26969 -0.267773 -1.01886 0 0 0 0.5 -0.427338 -0.127688 0.134407 -1.16647 0.227152 0.587334 
722 2 3.53098 1.20115 7.66642 0 1 0 -0.0619688 0.239823 0.0196189 -0.0069847 -0.616464 0.0421682 0 0 0 0.5 -0.0127463 -0.135759 0.000894325 0.0329298 0.0095369 -0.0157003 
649 2 0.253025 3.32206 6.96372 0 1 -1 0.00229286 0.221557 0.0622605 5.26842 -6.68488 -4.15406 0 0 0 0.5 -2.84561 -4.47717 -0.987853 0.677481 0.895062 -0.412506 
73 1 1.76664 4.96835 7.07354 0 0 0 0.0184707 0.180334 0.045656 -1.24814 1.12161 2.03127 0 0 0 0.5 -0.172838 0.319258 0.634985 -0.435271 0.113968 0.354356 
199 1 4.46 0.110232 6.94632 0 1 0 -0.0708786 0.0835809 0.0916331 0.275747 0.42759 2.01326 0 0 0 0.5 0.240785 0.379456 0.581188 -0.0467282 0.037171 0.301015 
206 1 1.4538 2.77861 6.53392 0 1 0 -0.126594 0.214288 0.0819273 1.46905 -0.358589 -1.62417 0 0 0 0.5 0.226823 0.16233 0.677491 -0.28926 -0.0294396 0.19354 
198 1 1.10068 3.71195 6.59942 0 1 0 -0.00981025 0.257453 0.132496 0.273685 2.54789 -3.84011 0 0 0 0.5 0.123736 0.874433 0.58071 -0.95709 -0.0231863 -0.278385 
217 1 2.50596 3.01162 6.94884 0 1 0 -0.0387533 0.285765 0.0628698 0.559994 -0.582214 -0.207727 0 0 0 0.5 -0.0191642 -0.0887585 0.179091 0.0768951 0.0590922 -0.0598478 
116 1 3.29449 4.43268 6.50942 0 0 0 0.0184238 0.117497 0.172903 -0.752799 1.04484 -0.376384 0 0 0 0.5 0.158281 -0.00727528 -0.0975482 -0.0270552 -0.302179 0.221562 
203 1 2.91481 1.87564 6.44683 0 1 0 -0.0851485 0.21081 0.0975411 3.66082 -0.667707 -6.44921 0 0 0 0.5 -0.178827 -0.433147 3.44755 0.207145 -1.33991 0.412006 
80 1 2.56064 4.29532 7.2031 0 0 0 0.0209622 0.165427 0.249265 1.54442 -0.0694961 -2.96035 0 0 0 0.5 -0.237517 -0.3528 -0.572192 -0.072799 0.214572 -0.776992 
713 2 4.51677 1.52925 7.9167 0 1 0 -0.0493796 0.129365 0.089962 1.23206 8.95427 -9.75625 0 0 0 0.5 0.750333 2.08612 3.28961 0.207806 -0.44448 -2.07063 
233 1 0.784345 3.14868 7.80347 0 1 0 -0.119997 0.209292 0.0323092 0.777832 -0.3204 0.995419 0 0 0 0.5 -0.195489 -0.0400738 -0.426455 0.065671 -0.267445 0.0843937 
662 2 4.29053 4.64227 7.22772 0 0 0 0.0658094 0.114604 0.138108 -7.60316 1.11645 5.2688 0 0 0 0.5 -3.06996 -0.0951269 -1.32311 0.129432 2.04525 -0.234415 
229 1 0.480606 2.54875 6.33017 0 1 0 -0.0767825 0.196544 -0.0281243 -1.12282 9.36076 -7.6381 0 0 0 0.5 -0.306803 3.58633 0.411905 0.115979 -0.389369 -1.60743 
736 2 4.37506 0.540466 7.84576 0 1 0 -0.122193 0.141658 0.0732249 0.269144 -1.11898 -1.755 0 0 0 0.5 0.318259 0.22376 0.525 0.210465 -0.118445 0.379651 
86 1 4.61172 2.12069 7.1161 0 0 0 0.145948 0.107356 0.00475678 -11.3232 -1.45708 16.1695 0 0 0 0.5 -3.07231 -2.68214 2.53862 3.79078 0.477054 -2.86148 
703 2 3.92189 1.59218 6.24099 0 1 0 -0.038396 0.131676 0.112301 0.33876 -0.336905 0.105302 0 0 0 0.5 0.0268354 0.0569171 0.104956 -0.026022 0.0604729 -0.0451578 
480 1 0.862042 2.22987 7.19865 1 1 0 -0.0895353 0.297267 -0.0135317 4.62177 -5.73427 6.39302 0 0 0 0.5 0.712878 1.25909 -0.116436 -0.827461 0.505942 -0.672339 
240 1 1.74929 2.62707 7.47756 0 1 0 -0.0150552 0.219253 0.0501922 2.9628 2.80887 -9.89774 0 0 0 0.5 -0.384547 -0.280404 -4.0953 -0.400723 1.79357 1.28844 
838 2 0.508916 4.47263 6.3325 1 0 0 -0.0116136 0.238184 -0.0157415 -0.605024 -7.10579 2.50682 0 0 0 0.5 -0.0820874 -0.913516 0.213367 -1.77098 0.686888 0.184382 
129 1 0.396225 1.21416 7.84873 0 1 -1 -0.0856636 0.222158 -0.114815 -2.30678 -1.82301 -1.81449 0 0 0 0.5 0.0544739 0.160147 0.852471 0.198648 0.694876 0.48226 
544 2 3.69033 3.83636 7.20985 0 0 0 -0.01412 0.187019 0.233768 0.837078 -1.68486 0.164698 0 0 0 0.5 0.303606 -0.104453 0.00766181 0.0868562 -0.3362 0.00948042 
234 1 2.63807 2.07333 7.38815 0 1 0 -0.108405 0.276559 0.0814382 0.235867 -0.516524 -0.700486 0 0 0 0.5 0.0135297 -0.0230295 0.13368 -0.0131936 -0.0626721 -0.00831985 
997 2 0.134692 4.86105 7.88908 1 1 0 -0.137135 0.226119 0.0565004 4.66758 -4.20564 -12.5401 0 0 0 0.5 -1.86613 1.43326 -0.290806 -0.128626 2.70331 2.40995 
606 2 3.22057 3.08059 7.66747 0 0 0 -0.0761167 0.166873 0.148298 -5.45432 -3.24336 8.19403 0 0 0 0.5 1.29374 1.24034 0.768259 1.58481 -1.11503 -2.15939 
66 1 4.46368 2.93733 6.55633 0 0 0 0.0323777 0.0951191 0.0958767 -0.41833 4.86243 -3.22316 0 0 0 0.5 0.787436 -1.0805 -0.273757 0.426623 -0.558026 1.13617 
583 2 4.52283 3.40683 7.58494 0 0 0 0.0932526 0.22765 0.129384 -0.372877 -0.679149 -0.0216593 0 0 0 0.5 0.463358 0.21456 0.372768 -0.10007 -0.234343 -0.181959 