ITEM: TIMESTEP
232000
ITEM: NUMBER OF ATOMS
1000
ITEM: BOX BOUNDS xy xz yz pp pp pp
0.0000000000000000e+00 1.0000000000000000e+01 0.0000000000000000e+00
0.0000000000000000e+00 1.0000000000000000e+01 0.0000000000000000e+00
0.0000000000000000e+00 1.0000000000000000e+01 0.0000000000000000e+00
ITEM: ATOMS id type x y z ix iy iz vx vy vz fx fy fz omegax omegay omegaz radius c_2[1] c_2[2] c_2[3] c_2[4] c_2[5] c_2[6] 
120 1 3.15852 1.54146 0.0722925 0 1 0 -4.13693e-12 1.91859e-11 1.12357e-11 1.42278e-12 -1.95575e-11 -8.97602e-12 1.05655e-11 4.16785e-12 -6.3444e-12 0.5 -8.04675e-12 -4.03932e-11 -4.71059e-12 -4.87612e-12 -2.37377e-12 -1.17151e-11 
525 2 2.11627 1.23431 1.69988 0 0 0 -2.00436e-11 -4.58807e-11 -2.67631e-11 1.72303e-11 3.8999e-11 2.26248e-11 -3.74705e-12 5.01876e-12 1.56247e-11 0.5 1.17605e-12 -2.96248e-12 1.55937e-12 3.78073e-12 1.18566e-12 -6.35918e-13 
371 1 4.95931 3.68326 1.58374 0 0 1 1.0092e-11 -1.38589e-11 2.33224e-11 -7.57342e-12 2.4275e-11 -2.51536e-11 1.67383e-12 -2.27376e-12 9.2589e-13 0.5 -5.61164e-12 -2.59794e-11 1.53343e-11 -1.52851e-12 -4.93211e-12 2.97811e-12 
18 1 1.98117 2.69195 0.532518 0 0 0 -1.09146e-11 -5.87392e-14 3.13306e-11 5.92956e-12 1.9098e-12 -2.77233e-11 1.97565e-11 -6.64531e-12 6.64959e-12 0.5 -2.02634e-11 -4.08048e-11 -2.58538e-11 3.44504e-11 1.13562e-11 -1.66753e-11 
868 2 2.87004 3.00634 0.0289121 0 0 1 7.29134e-12 -2.58372e-12 2.39745e-11 -4.61224e-12 -5.38089e-12 -2.06488e-11 1.61022e-11 -2.72318e-12 6.75194e-12 0.5 -2.92485e-11 -4.45289e-11 -1.29327e-11 3.18522e-11 -3.90899e-12 3.11101e-12 
25 1 1.41548 0.708705 1.0832 0 0 0 -7.77068e-12 -1.82087e-11 -2.58877e-11 8.34438e-12 1.40542e-11 2.0221e-11 1.26101e-11 -3.18978e-12 9.81137e-12 0.5 -9.23725e-12 -6.45123e-11 -3.70435e-11 2.75631e-11 1.77046e-11 -3.16578e-11 
378 1 4.61919 2.40719 0.0725816 0 0 1 2.9439e-12 1.47393e-11 1.74528e-11 -3.48843e-12 -1.32795e-11 -1.50406e-11 1.76041e-11 4.14762e-12 -3.98006e-12 0.5 -1.05089e-11 -2.86621e-11 -1.29918e-11 -2.54902e-13 -1.04464e-12 -2.1617e-11 
8 1 3.44143 2.06796 1.74253 0 0 0 -2.06606e-12 -1.89412e-11 6.00295e-12 -2.01214e-12 1.87232e-11 -4.27927e-12 1.54839e-11 -3.42576e-12 3.8917e-12 0.5 1.44554e-11 8.47386e-12 1.02334e-11 4.62945e-12 -6.4444e-12 5.46343e-12 
629 2 4.07713 2.6156 1.19812 0 0 1 4.0632e-12 -8.23135e-12 2.35982e-11 -7.99828e-12 7.76724e-12 -2.22934e-11 1.71078e-11 -5.66233e-12 8.64873e-13 0.5 -3.07487e-11 -6.47475e-12 -2.46213e-11 6.53407e-12 -2.25377e-11 -1.33319e-11 
5 1 2.34651 3.9005 1.05345 0 0 0 -1.65003e-12 -3.28694e-11 3.36286e-11 1.50462e-12 2.84962e-11 -2.90329e-11 1.72151e-12 2.10907e-12 6.90726e-12 0.5 -1.66824e-12 -3.30408e-12 -4.48002e-12 4.50703e-12 4.67038e-13 -7.54834e-13 
650 2 0.459129 3.43666 1.12967 0 0 0 -2.16586e-11 -3.77166e-11 9.70261e-12 1.88823e-11 2.80853e-11 -1.00781e-11 2.15064e-11 9.94085e-13 1.75074e-13 0.5 -2.90354e-11 -3.0165e-11 -3.60506e-11 2.38907e-11 2.46897e-11 -1.59269e-11 
14 1 3.29515 3.13364 1.54473 0 0 0 6.39826e-13 -1.51997e-11 2.55147e-11 2.8341e-13 1.66937e-11 -1.73102e-11 3.89756e-12 3.10367e-12 3.02314e-12 0.5 -2.1629e-12 -7.35248e-12 -1.60403e-11 1.38116e-11 -2.0819e-12 -6.2342e-12 
264 1 3.99643 3.86789 1.37953 0 0 0 9.39315e-12 -1.68705e-11 2.45161e-11 -1.15426e-11 1.29103e-11 -1.50971e-11 6.94281e-12 7.97435e-13 1.65099e-12 0.5 -4.17639e-12 1.99705e-12 -7.24006e-12 1.23454e-11 -5.7811e-12 -4.86134e-12 
223 1 0.747634 2.47805 1.14565 0 0 1 -2.32693e-11 -3.7731e-11 9.14225e-12 1.69503e-11 2.60902e-11 -6.92876e-12 1.98303e-11 -7.51854e-12 3.03818e-12 0.5 -9.03182e-12 -2.75772e-11 -5.84537e-11 1.25276e-11 2.37496e-11 -1.684e-11 
364 1 4.4227 4.23693 0.53984 0 0 1 7.55349e-12 1.03562e-11 3.43799e-11 4.06383e-12 -1.22304e-11 -2.03439e-11 9.74273e-12 -2.04878e-12 3.91278e-12 0.5 -1.34033e-12 5.20377e-12 2.11811e-12 3.81001e-12 -1.62281e-12 -5.94337e-12 
107 1 1.66076 1.61825 0.747451 0 0 1 -1.89247e-11 -9.30591e-12 -9.70395e-12 1.39188e-11 8.51226e-12 9.69771e-12 2.01172e-11 -1.14972e-12 3.3415e-12 0.5 1.31923e-11 -1.18782e-11 -1.45714e-11 1.69484e-13 1.12138e-12 -1.31144e-11 
529 2 2.67265 2.1996 1.06195 0 0 0 -2.83405e-12 -1.28119e-11 8.46258e-12 5.74645e-12 5.06427e-12 -2.93267e-11 1.87597e-11 1.87199e-12 5.57601e-12 0.5 -8.10186e-12 -1.90776e-11 -3.1661e-11 1.3798e-11 -9.75076e-12 1.65966e-12 
515 2 4.38643 0.435908 1.64385 0 0 0 2.60318e-12 -1.98018e-11 -1.70278e-11 -5.5001e-13 1.55294e-11 1.27541e-11 1.16594e-11 -1.8166e-12 3.72916e-12 0.5 1.02034e-11 -8.36517e-12 -1.82496e-11 -2.33422e-11 -1.41383e-12 4.64404e-12 
244 1 4.11373 0.570462 0.682724 0 1 1 3.64928e-12 9.34163e-12 -1.29882e-11 2.30496e-12 -7.19604e-12 2.03277e-11 1.61908e-11 5.51785e-12 1.64729e-12 0.5 -4.30084e-12 -1.3197e-12 -2.00748e-11 1.69879e-12 3.49529e-12 1.09411e-12 
20 1 2.90179 0.570818 1.78382 0 0 0 5.47992e-13 -1.92122e-11 -1.87033e-11 4.11743e-12 1.18279e-11 7.84062e-12 7.83331e-12 -4.39525e-12 5.48532e-12 0.5 -8.96792e-12 -2.56744e-11 -4.09459e-11 1.41132e-11 1.553e-11 -2.75106e-11 
280 1 4.09077 1.582 1.14626 0 0 0 1.22797e-12 -3.74489e-12 -2.77389e-12 1.86302e-12 -1.5474e-12 1.04387e-11 1.82327e-11 -1.81205e-12 1.44134e-12 0.5 5.68093e-12 -7.55733e-12 -2.14659e-11 7.93525e-12 1.14502e-11 4.48319e-12 
620 2 1.3946 4.37082 0.857654 0 0 1 5.3955e-12 -2.21301e-11 2.84406e-11 -6.17229e-12 1.76171e-11 -1.87261e-11 1.40398e-11 9.65822e-12 -8.64072e-12 0.5 -7.64798e-12 -3.59617e-11 -5.34054e-11 1.74578e-12 -6.74965e-12 5.89015e-12 
1000 2 3.60332 2.39824 0.339819 0 1 1 1.69364e-11 6.17305e-12 1.5225e-11 -1.18706e-11 -1.00485e-11 -1.46294e-11 1.23452e-11 -1.35644e-12 1.51344e-13 0.5 -2.33323e-11 -3.46457e-11 -2.51195e-11 2.05531e-12 -2.04429e-11 -4.82276e-12 
103 1 3.28431 3.68319 0.698947 0 0 1 1.79041e-12 -9.07108e-12 3.07169e-11 -1.16663e-13 4.86929e-12 -2.5206e-11 9.27982e-12 1.93108e-13 4.83473e-12 0.5 -1.17137e-11 -1.48535e-11 -1.5211e-11 1.02111e-11 -1.84657e-12 3.15207e-14 
622 2 0.930663 4.80385 0.0848388 0 0 1 4.43193e-12 -1.44955e-12 4.10946e-11 -6.39323e-12 4.86369e-12 -3.80946e-11 1.7949e-11 -7.29878e-13 -3.34271e-12 0.5 -1.26076e-12 3.05057e-12 -2.57654e-11 -5.73601e-13 -1.1461e-11 5.77838e-12 
506 2 0.74356 1.4513 1.18235 0 0 0 -2.46111e-11 -3.88359e-11 -2.1347e-11 2.87293e-11 1.96922e-11 8.23033e-12 1.50951e-11 -2.31442e-12 1.12884e-11 0.5 3.47443e-12 -4.59013e-11 -1.13169e-11 5.7439e-11 1.27765e-11 -3.00482e-11 
626 2 1.28815 3.41645 0.566227 0 0 1 -2.18656e-11 -1.22386e-11 1.01094e-11 1.79726e-11 1.0679e-11 -1.02451e-11 1.11774e-11 -4.89003e-12 1.34851e-12 0.5 -2.94892e-11 -4.22666e-11 -7.8171e-12 2.42489e-11 1.78237e-11 -1.24294e-11 
553 2 0.744043 0.0774004 1.56305 0 0 0 -5.31981e-12 -2.81371e-11 -3.24451e-11 4.24961e-12 2.11796e-11 2.7129e-11 1.57617e-12 -7.21657e-12 1.28977e-11 0.5 4.7809e-12 1.65427e-12 4.20578e-12 1.39498e-12 1.09243e-12 -5.91867e-12 
135 1 1.54769 3.20472 1.67709 0 0 0 5.99107e-12 -3.49966e-11 5.99752e-12 -3.73509e-12 2.4188e-11 -8.11104e-12 1.10531e-11 -1.39915e-11 -4.62897e-12 0.5 1.43099e-12 -7.09489e-11 -1.51455e-11 1.79161e-11 6.45294e-12 5.28147e-14 
624 2 4.32461 4.92098 1.47156 0 0 1 1.83494e-11 -6.35084e-13 2.4201e-11 -1.30395e-11 1.1815e-12 -2.04437e-11 6.84153e-12 -1.8629e-12 5.15276e-12 0.5 7.8439e-12 5.20645e-12 -1.63026e-11 9.13408e-12 -1.4766e-11 -1.46632e-11 
256 1 4.58719 1.36786 0.305 0 0 0 4.44068e-12 1.29034e-11 -4.79597e-12 -1.32893e-12 -9.1727e-12 4.64096e-12 1.74327e-11 2.8921e-12 -4.10005e-12 0.5 -1.20111e-11 -3.00087e-11 -3.58477e-11 -1.88439e-11 -1.83853e-11 -4.16532e-11 
260 1 3.31854 0.0700552 1.02517 0 0 0 9.30745e-12 -6.07972e-12 -2.27494e-11 -9.4175e-12 9.19839e-12 2.57997e-11 6.6856e-12 9.37784e-12 2.82907e-12 0.5 -6.67952e-12 -2.45883e-11 -2.91087e-11 1.5209e-13 9.07531e-13 -1.80944e-11 
616 2 3.19106 4.4806 1.50664 0 0 1 6.1437e-12 -2.60693e-11 2.32111e-11 -7.1549e-12 2.10182e-11 -2.48652e-11 -1.20909e-12 3.38047e-12 5.85951e-12 0.5 -1.28662e-11 -5.62869e-12 -7.9442e-12 7.62374e-12 4.61223e-13 -4.0435e-12 
106 1 1.74522 2.23558 1.52961 0 0 1 -2.91826e-12 -3.69302e-11 1.00049e-11 5.69438e-13 2.52046e-11 -2.10976e-12 1.40287e-11 -4.23479e-12 -3.11893e-12 0.5 1.79746e-11 -3.34072e-11 -6.47988e-12 1.3957e-11 7.45161e-12 -1.41117e-11 
157 1 1.3897 4.17879 1.83903 0 0 0 1.14543e-11 -3.83461e-11 2.71158e-11 -2.94788e-12 2.8824e-11 -3.8275e-11 1.43569e-11 1.93655e-12 2.13883e-12 0.5 -1.67417e-11 -5.64463e-11 -6.41213e-11 1.5839e-11 2.07536e-11 -1.48796e-11 
516 2 2.34691 0.89043 0.68796 0 0 0 -5.50516e-12 3.25449e-12 -7.00749e-12 3.68062e-12 -2.58995e-13 7.70766e-12 1.9483e-12 -2.54931e-12 2.68051e-12 0.5 3.78453e-12 -1.93715e-11 -4.55897e-12 4.82905e-12 7.6112e-12 -1.4428e-11 
183 1 0.415258 4.58221 1.00381 0 0 0 8.02882e-12 -3.19064e-11 6.10004e-11 -5.04495e-12 2.75963e-11 -5.21858e-11 2.73228e-11 1.55865e-11 1.54418e-12 0.5 5.01888e-13 -1.67133e-12 3.45834e-12 2.76598e-12 -4.57248e-12 3.33498e-12 
625 2 0.399951 3.91216 0.210014 0 0 1 -3.4863e-12 1.10372e-12 3.21541e-11 3.46392e-12 -4.63548e-13 -2.72396e-11 2.57608e-11 -3.03316e-12 -1.23419e-11 0.5 -8.99651e-13 1.16019e-12 -4.57961e-12 -6.7085e-13 -2.13965e-12 4.50321e-12 
91 1 2.22066 4.71676 1.69645 0 0 1 8.16856e-12 -3.238e-11 3.15792e-11 -4.69694e-12 2.85628e-11 -2.71036e-11 -1.10964e-13 3.04344e-12 2.52506e-12 0.5 -1.38472e-11 -6.22624e-12 -3.40575e-12 -1.46891e-12 1.0449e-12 -3.42678e-12 
257 1 4.94043 2.69123 1.70827 0 0 0 4.4022e-12 -1.44206e-11 1.88871e-11 -4.488e-12 1.22349e-11 -2.66835e-11 6.77403e-12 -8.94584e-13 -3.15498e-12 0.5 -3.45282e-11 -3.27429e-11 -8.47781e-11 1.48086e-12 -2.29321e-11 -2.30803e-11 
4 1 3.72174 1.12777 1.95711 0 0 0 1.32852e-12 -2.21821e-11 -1.2165e-11 4.15448e-12 2.4505e-11 -4.13665e-13 1.16217e-11 -8.34243e-13 1.74067e-12 0.5 -1.60688e-12 -1.91204e-12 -3.76672e-11 -5.82353e-12 1.86144e-12 1.76344e-11 
609 2 1.99624 4.76004 0.136921 0 0 1 5.0445e-12 -1.33169e-11 3.7554e-11 -5.49295e-12 2.1931e-12 -3.14328e-11 5.61727e-12 -1.88164e-12 6.81128e-12 0.5 -6.98337e-11 -2.12012e-10 -2.7481e-11 6.19866e-11 9.43158e-12 -4.26405e-11 
117 1 3.12746 1.31374 1.15363 0 1 0 3.13979e-12 -1.11475e-11 -8.20986e-12 -5.58845e-13 8.25693e-12 4.4402e-12 1.46702e-11 9.17246e-13 2.17796e-12 0.5 4.28287e-12 -1.17598e-11 -4.56073e-12 9.91792e-12 -3.60562e-12 8.12148e-12 
511 2 1.08079 2.25054 0.230642 0 0 0 -9.62889e-12 9.11434e-12 1.82021e-12 4.70792e-12 -7.38438e-12 2.33185e-12 2.49361e-11 -6.33404e-12 -4.71748e-12 0.5 -4.68779e-12 -2.34279e-11 -4.81808e-11 8.47947e-12 2.42302e-11 -2.31584e-11 
911 2 0.492018 0.563612 0.697612 1 0 0 -6.11127e-12 -2.41735e-11 -3.18084e-11 2.60681e-12 1.80598e-11 2.85683e-11 2.11306e-12 -5.40338e-12 3.14973e-12 0.5 6.3396e-12 -3.39825e-11 -4.05831e-13 -3.55558e-12 1.95497e-12 -1.40863e-11 
668 2 0.00216515 3.81975 1.93315 0 0 0 -7.51742e-12 -6.65101e-11 3.05309e-11 -1.70607e-12 6.83779e-11 -4.21587e-11 6.41187e-12 4.4653e-12 -6.72896e-12 0.5 -6.94202e-11 -1.5379e-10 -6.65225e-11 4.11605e-11 -2.88058e-11 1.7632e-12 
90 1 2.93989 4.58015 0.420403 0 0 1 5.96464e-12 -5.73663e-12 3.68717e-11 -5.05485e-12 -4.17801e-13 -3.30485e-11 4.96229e-12 -7.67031e-13 6.7387e-12 0.5 -2.33489e-11 -7.89919e-13 -1.06501e-11 3.1244e-11 1.33111e-11 4.31323e-13 
734 2 4.13742 3.24508 0.37494 0 1 1 9.70868e-12 9.97417e-12 3.27695e-11 -9.03928e-12 -1.02729e-11 -3.0857e-11 1.62979e-11 1.67326e-12 2.46537e-12 0.5 -1.47126e-11 -7.27166e-12 1.69327e-12 1.34273e-11 3.50251e-12 -8.77429e-12 
672 2 0.0675425 1.98557 1.68985 0 0 0 -2.75174e-11 -5.40861e-11 -1.12252e-11 3.17774e-11 8.26709e-12 2.86327e-12 1.58607e-11 -2.78118e-12 6.52107e-12 0.5 -5.64988e-11 -1.80874e-10 -5.02862e-11 7.19427e-11 2.47044e-11 -7.167e-12 
759 2 4.95866 2.03867 0.950748 0 0 0 4.02317e-12 -3.34962e-12 9.99919e-12 -1.69804e-12 1.84012e-12 -1.8047e-11 1.48752e-11 -3.85478e-12 -4.22901e-12 0.5 -3.94006e-13 -5.53746e-11 -3.7186e-11 -7.82686e-12 -8.43541e-12 -1.94823e-11 
21 1 1.84566 0.35675 2.43115 0 0 0 -7.49754e-12 -3.57157e-11 -2.7184e-11 6.57839e-12 3.23491e-11 2.32108e-11 7.09438e-12 -4.39387e-12 1.15391e-11 0.5 -8.79636e-13 -4.87693e-12 -5.2117e-13 3.37899e-12 -8.89561e-14 -1.61543e-12 
682 2 2.73058 4.0836 2.7725 0 0 0 5.21702e-12 -2.19371e-11 2.31495e-11 -5.35325e-12 1.74422e-11 -1.72311e-11 -8.49193e-13 2.34692e-12 4.33335e-12 0.5 -4.30753e-11 -1.84992e-11 -1.98965e-12 3.24013e-11 1.37244e-11 2.32731e-11 
907 2 0.982097 4.62503 2.63573 1 0 0 2.57903e-12 -5.53198e-11 3.27708e-11 -5.91014e-12 4.60636e-11 -1.29875e-11 2.4272e-12 -4.86616e-12 3.19312e-12 0.5 -5.24838e-11 -4.13146e-11 -6.2253e-11 2.35636e-11 2.23033e-11 -1.9318e-11 
144 1 1.68507 3.60062 2.81087 0 0 0 5.78811e-12 -4.62649e-11 5.60388e-12 5.77797e-12 4.07453e-11 -4.51058e-12 -2.12665e-12 5.20739e-12 2.554e-12 0.5 -4.46725e-11 -6.13304e-12 -1.18676e-11 1.93547e-11 -1.43846e-11 2.2818e-12 
675 2 2.83107 4.7385 3.54541 0 0 0 -4.99226e-12 -1.20043e-11 2.25606e-11 1.47776e-12 1.81799e-11 -1.88028e-11 -6.08892e-12 5.68862e-12 -7.98554e-14 0.5 2.2435e-12 9.20849e-12 1.8479e-11 1.04801e-11 -5.26423e-12 1.67107e-11 
502 2 4.38953 1.31124 3.26921 0 0 0 -7.59816e-12 -1.39043e-11 -1.02175e-11 4.17382e-12 9.49256e-12 6.24245e-12 2.604e-12 -5.20565e-13 -7.30319e-13 0.5 -2.7034e-11 -1.57181e-11 -1.88324e-11 -1.42304e-11 9.29507e-12 2.72278e-11 
27 1 2.60908 0.300739 3.21066 0 0 0 -4.99975e-12 -3.03566e-11 -2.1013e-11 3.67686e-12 2.44674e-11 1.62546e-11 8.60603e-13 -3.62521e-12 6.71879e-12 0.5 -2.51905e-11 -3.94395e-11 -7.38706e-11 1.32511e-11 1.90852e-11 8.01835e-12 
965 2 1.35576 3.65812 3.79896 1 0 0 9.66976e-12 -5.71605e-11 3.08269e-12 -1.09722e-11 5.13103e-11 -3.47008e-13 -3.22524e-12 1.01575e-11 -7.07227e-12 0.5 -8.34838e-12 -3.05118e-11 -3.03017e-11 1.69569e-11 -1.18144e-11 1.93516e-11 
61 1 1.66165 0.448609 3.51352 0 0 0 -1.14161e-11 -4.9501e-11 -3.48356e-11 9.46729e-12 4.27355e-11 2.82622e-11 2.63946e-12 -2.65774e-13 9.45438e-12 0.5 -1.6801e-11 -7.84133e-13 -2.98147e-12 3.65442e-12 1.01381e-11 -1.07935e-12 
680 2 1.1901 2.78151 3.34693 0 0 0 -1.39889e-11 -5.21476e-11 2.2199e-12 1.22737e-11 4.70596e-11 -2.25021e-12 1.57016e-12 5.06164e-12 -1.08016e-12 0.5 1.79781e-12 -1.32237e-11 -1.64867e-11 2.78958e-12 5.37778e-12 3.81971e-12 
251 1 4.71421 3.03382 3.89556 0 0 0 1.22254e-11 -1.90446e-11 1.86663e-11 4.62316e-12 1.06013e-11 -1.58131e-11 9.64148e-12 7.48639e-12 -1.03935e-11 0.5 -5.27479e-11 -9.49644e-12 -2.29751e-12 -2.09428e-11 1.62964e-11 1.74198e-11 
517 2 4.0089 2.89361 2.21821 0 0 0 7.28484e-12 -1.48337e-11 1.78429e-11 -4.44269e-12 3.9282e-12 -1.66652e-11 3.73756e-12 -1.30028e-12 1.93589e-13 0.5 -9.52137e-13 -4.15781e-12 -1.04463e-11 2.16898e-12 -2.11008e-12 4.8465e-12 
6 1 3.42179 1.77987 2.73262 0 0 0 -7.83938e-12 -1.68e-11 8.30608e-12 4.26868e-12 1.28254e-11 -6.7575e-12 1.07215e-11 -6.43111e-13 8.0256e-12 0.5 -4.16076e-11 5.84355e-12 4.64792e-12 1.15399e-11 1.52804e-11 9.03262e-12 
519 2 4.43345 3.61408 3.03093 0 0 0 3.18085e-12 -8.31106e-12 2.68607e-11 -4.29119e-12 1.42494e-11 -2.11218e-11 3.55491e-12 1.82819e-12 -1.7577e-12 0.5 -2.03944e-12 1.79161e-11 1.28588e-11 -1.10734e-11 -4.37477e-12 7.95609e-12 
509 2 1.93621 1.51608 3.62332 0 0 0 5.71136e-12 -4.6073e-11 -2.87934e-11 -3.69944e-12 3.89813e-11 2.40947e-11 -2.04091e-12 1.38232e-11 -1.34296e-13 0.5 3.25533e-12 -4.6183e-12 -3.61869e-11 -4.55082e-12 7.77143e-12 1.05856e-11 
142 1 1.03537 1.94217 2.17003 0 0 0 -1.88185e-11 -4.27546e-11 -1.00592e-11 4.45661e-12 3.51204e-11 7.40849e-12 1.41706e-11 6.47769e-13 3.15131e-12 0.5 4.51974e-12 1.42209e-12 -4.01109e-12 1.99237e-11 -1.20158e-11 8.20026e-12 
941 2 0.192203 2.2584 2.77344 1 0 0 -2.44348e-11 -6.04162e-11 -6.48747e-12 2.15506e-11 4.38072e-11 9.80521e-12 8.92134e-12 1.35039e-12 3.15409e-12 0.5 -6.50552e-12 -1.87135e-11 -2.74818e-11 9.64475e-13 3.71402e-12 3.7092e-12 
919 2 0.650389 4.31552 3.53385 1 0 0 -1.96374e-12 -6.09264e-11 2.6457e-11 -2.58491e-12 5.22042e-11 -1.55948e-11 7.75651e-12 4.0301e-12 -9.72446e-12 0.5 -2.06859e-11 -3.50071e-11 -2.47158e-11 2.01649e-11 -3.61558e-13 1.55254e-11 
95 1 3.53903 3.77814 2.2694 0 0 1 7.27023e-12 -1.53761e-11 2.32055e-11 -2.23267e-13 1.0116e-11 -1.27084e-11 8.75906e-14 2.84768e-13 2.6203e-12 0.5 -2.1485e-11 -9.90919e-12 -1.42997e-11 6.4732e-12 7.20772e-12 -8.89383e-12 
458 1 1.5569 4.7536 3.86468 1 0 0 1.64031e-13 -4.25793e-11 3.40879e-11 -1.02579e-12 3.66361e-11 -2.75132e-11 -6.43943e-12 1.95241e-12 3.02502e-12 0.5 -1.9391e-11 -1.23731e-11 -1.22121e-11 1.62106e-11 -3.14851e-12 -4.33429e-14 
41 1 1.14045 0.960462 2.01108 0 0 0 -1.36523e-11 -4.01757e-11 -2.21669e-11 1.52802e-11 3.36008e-11 1.7289e-11 1.27054e-11 -1.66294e-12 7.27446e-12 0.5 -1.36823e-11 -9.61107e-12 -2.82141e-11 9.06359e-12 1.60296e-11 -8.13869e-12 
814 2 0.27112 1.22753 3.40348 1 0 0 -7.12672e-12 -4.97524e-11 -1.67391e-11 7.38264e-12 5.01156e-11 2.14342e-11 7.05078e-12 -4.14969e-12 1.30131e-11 0.5 -3.84836e-11 -4.02804e-11 -4.21634e-11 2.05586e-11 1.25351e-11 4.10589e-11 
130 1 1.70518 2.6475 2.50033 0 0 0 -1.34379e-11 -4.48088e-11 4.47344e-14 7.64251e-12 4.03002e-11 2.41095e-12 1.15155e-11 -4.7235e-12 -4.68985e-12 0.5 -5.05576e-12 -3.1601e-11 -2.87586e-11 1.79847e-11 1.0079e-11 2.14876e-11 
12 1 2.70258 1.09575 2.61132 0 0 0 2.22083e-12 -2.51439e-11 -1.52175e-11 1.33864e-14 2.46238e-11 7.54593e-12 7.91347e-12 -7.86229e-12 8.72051e-12 0.5 -4.96609e-11 -5.81314e-11 -3.69508e-11 2.81741e-11 1.31977e-11 5.4844e-12 
512 2 3.18635 2.03167 3.78747 0 0 0 -8.43759e-13 -6.0391e-12 1.33991e-11 -1.43843e-13 6.45941e-12 -1.18625e-11 8.95146e-12 -1.56036e-12 5.94621e-12 0.5 -9.4601e-12 -1.75014e-11 -1.69471e-11 4.61763e-12 -5.15085e-12 1.92065e-11 
151 1 2.47925 3.30049 3.34132 0 0 0 5.03818e-12 -2.53508e-11 1.77797e-11 8.05004e-13 1.95916e-11 -1.05346e-11 -3.93524e-12 -2.36354e-12 1.75055e-12 0.5 -1.71487e-11 -3.90911e-11 -4.19185e-11 1.62357e-11 3.22472e-12 6.85707e-12 
667 2 0.284319 1.3208 2.4071 0 0 0 -1.31615e-11 -5.30175e-11 -1.65419e-11 1.68471e-11 2.57183e-11 1.76778e-11 7.58933e-12 2.8561e-12 7.73889e-12 0.5 -1.01315e-11 -5.48651e-11 -6.26103e-11 1.39368e-11 -3.92268e-12 1.6127e-11 
38 1 3.79042 0.738149 3.87284 0 0 0 -3.89009e-12 -2.46287e-12 -1.28859e-11 5.37246e-12 3.31912e-12 1.26534e-11 -8.54649e-12 -2.99141e-12 1.51389e-12 0.5 -2.12555e-11 -6.28764e-12 -6.1789e-11 -2.63558e-11 1.13757e-11 4.36337e-11 
936 2 0.319906 3.36948 3.50683 1 0 0 -2.30354e-11 -5.29934e-11 1.28605e-11 2.03407e-11 4.58149e-11 -3.87076e-12 8.22342e-12 -6.32269e-12 -5.4607e-12 0.5 1.42188e-12 -4.91117e-11 -2.43912e-11 1.22949e-12 2.51636e-11 3.1903e-11 
531 2 4.80013 0.808197 2.48028 0 0 0 -1.19852e-11 -2.4061e-11 -9.48034e-12 8.85437e-12 1.7813e-11 5.51669e-12 1.23974e-12 -2.5978e-12 -3.8659e-12 0.5 -8.84519e-12 1.43558e-12 -1.78091e-11 -1.13542e-11 -1.7813e-11 -8.44116e-12 
527 2 4.03024 4.31517 3.61908 0 0 0 5.8962e-12 -1.03586e-11 3.16024e-11 -5.46612e-12 1.23861e-11 -2.34538e-11 -4.63845e-12 -2.08682e-13 1.47144e-12 0.5 1.06483e-11 7.99492e-12 1.67823e-11 -2.44209e-12 -1.02983e-11 1.82774e-11 
383 1 4.36293 4.34454 2.28892 0 0 1 3.02198e-12 -4.31855e-12 2.24717e-11 -1.15489e-12 -1.11728e-12 -2.16808e-11 1.48341e-12 -3.63137e-12 -6.42963e-13 0.5 -2.21968e-11 -1.01125e-11 8.81986e-12 1.37851e-11 -5.29597e-12 -7.41812e-12 
992 2 0.695682 0.439322 3.85269 1 1 0 -3.91718e-12 -5.22317e-11 -2.74376e-11 1.49835e-11 1.5786e-11 4.07825e-11 2.7897e-12 8.06655e-12 4.46601e-12 0.5 -2.36041e-11 -6.57149e-11 -1.78663e-11 2.09303e-11 -1.1059e-11 3.61947e-11 
521 2 4.93615 4.52796 3.25037 0 0 0 2.35527e-12 -6.75905e-12 2.47926e-11 -3.29376e-12 6.07313e-12 -2.4028e-11 -2.99459e-12 1.22785e-12 8.25178e-13 0.5 7.00581e-12 -2.16354e-11 -2.43945e-11 4.93963e-12 1.00652e-13 1.18642e-11 
136 1 1.88498 1.67143 2.62265 0 0 0 -1.22117e-11 -4.6954e-11 -2.31482e-11 1.8333e-12 3.94333e-11 2.56819e-11 5.67995e-12 7.59723e-12 5.81122e-12 0.5 -5.38821e-11 -5.12846e-11 -2.99586e-11 3.84766e-11 -8.76347e-12 1.47453e-11 
540 2 4.51129 0.178592 3.415 0 0 0 -6.55818e-12 -1.29149e-11 -1.57455e-11 5.19339e-12 1.19894e-11 1.23853e-11 -4.68545e-12 3.88078e-12 -4.73889e-12 0.5 1.58773e-11 9.05251e-12 3.1633e-12 -8.54056e-12 -5.92608e-12 8.66021e-12 
510 2 3.85504 2.56842 3.17077 0 0 0 -9.45851e-12 -1.7483e-11 1.18167e-11 9.91553e-12 1.56271e-11 -1.0095e-11 1.56679e-12 -1.66005e-12 -1.82637e-13 0.5 1.08616e-11 1.60597e-11 -1.21232e-11 4.18477e-12 1.16645e-12 1.48349e-11 
19 1 4.3655 1.84749 2.40882 0 0 0 -1.17182e-11 9.70229e-14 2.22054e-12 1.19699e-11 2.66271e-12 4.69533e-14 3.79613e-12 1.02719e-12 1.98593e-12 0.5 -5.54181e-11 -1.86834e-12 -2.63581e-11 2.74203e-12 2.48048e-11 3.93345e-12 
543 2 1.07326 1.78713 3.19513 0 0 0 -5.03457e-12 -5.08175e-11 -1.04588e-11 1.06343e-11 4.68408e-11 8.15967e-13 9.99684e-12 9.3609e-12 3.62752e-12 0.5 -4.56045e-12 -9.00085e-12 3.97628e-13 -1.07486e-11 5.91897e-12 3.83885e-12 
773 2 4.78774 2.22773 3.30763 0 0 0 -7.88875e-12 -1.47766e-11 9.92904e-12 7.57549e-12 9.06578e-12 -1.10241e-11 4.05076e-12 4.20815e-12 -4.03548e-12 0.5 4.03878e-12 -4.62282e-11 -7.68103e-11 -7.2819e-12 1.08085e-11 7.58966e-11 
555 2 2.23907 2.5056 3.89852 0 0 0 -8.18543e-13 -2.07457e-11 2.17008e-11 5.61626e-13 2.25147e-11 -1.81617e-11 -3.40617e-12 -7.11777e-13 2.56739e-12 0.5 1.52124e-11 1.7463e-11 1.55343e-11 9.38234e-12 -2.26472e-12 1.23369e-11 
429 1 0.306925 2.40106 3.75655 1 0 0 -1.88705e-11 -5.73156e-11 -6.66146e-12 1.50606e-11 4.66015e-11 -1.47482e-12 5.38826e-12 2.52272e-12 9.8922e-12 0.5 -8.29628e-12 -8.05629e-11 -4.16247e-11 1.89052e-11 -1.17167e-11 4.41207e-11 
316 1 0.889712 0.512877 2.86992 1 0 0 -1.62344e-11 -5.34088e-11 -2.99684e-11 1.40266e-11 4.66385e-11 2.54824e-11 5.87002e-12 1.32972e-12 8.57e-12 0.5 4.30956e-12 -8.68844e-12 -7.86056e-12 3.52262e-12 2.12959e-12 8.6197e-12 
503 2 3.61689 0.768796 2.88623 0 0 0 5.18782e-13 -2.26731e-11 -1.31965e-11 -4.44375e-12 2.15608e-11 7.68442e-12 -7.01644e-13 -3.11058e-12 5.4084e-12 0.5 -1.31133e-11 -1.74593e-13 -5.21672e-11 1.79263e-12 -6.22205e-12 1.45514e-11 
896 2 0.702247 3.66501 2.63024 1 0 0 2.56358e-12 -5.53187e-11 2.39073e-11 1.23919e-11 4.03931e-11 -7.11048e-12 6.24184e-12 3.63212e-12 -2.43389e-12 0.5 -6.07787e-11 -5.8645e-12 -6.58111e-11 1.59066e-11 -3.36858e-11 2.39617e-11 
690 2 1.93672 4.67095 2.92999 0 0 0 1.10736e-12 -3.18413e-11 3.52359e-11 8.94546e-14 3.14191e-11 -2.82789e-11 -5.89789e-14 2.9586e-12 9.90034e-12 0.5 -4.75614e-11 -2.11299e-11 -1.0615e-11 2.89681e-11 -1.86667e-12 -4.84853e-12 
641 2 3.45948 3.5005 3.22725 0 0 0 3.00508e-12 -1.07716e-11 2.42113e-11 -5.85528e-12 1.01875e-11 -2.18495e-11 -2.97536e-12 -7.3507e-13 3.42467e-12 0.5 -9.11423e-12 4.63271e-12 -4.716e-12 8.12532e-12 -1.20195e-11 2.35577e-11 
528 2 3.34275 4.80215 2.44243 0 0 0 6.19377e-12 -2.32975e-11 2.20874e-11 -1.09643e-11 1.62387e-11 -2.3124e-11 -8.81195e-13 5.99934e-13 1.49995e-12 0.5 -1.97667e-12 -3.35679e-12 -1.49803e-11 -4.07193e-12 -5.72604e-12 -8.07273e-12 
225 1 2.66658 2.37982 2.99794 0 0 1 -1.375e-11 -2.78131e-11 1.53951e-11 1.07562e-11 2.18957e-11 -6.35773e-12 -2.68874e-12 5.66169e-12 1.77239e-12 0.5 -1.3617e-11 -3.34615e-11 -9.59476e-12 1.98543e-11 -1.11417e-11 5.15433e-13 
119 1 0.614476 2.84343 2.06694 0 0 0 -2.50852e-11 -4.34025e-11 1.07733e-11 1.13337e-11 3.81718e-11 -9.48749e-12 1.38958e-11 2.27885e-12 -1.16531e-14 0.5 1.42909e-11 -1.09628e-11 -2.49222e-11 6.16168e-12 1.36043e-11 7.57274e-12 
94 1 2.46189 3.50067 2.00487 0 0 1 -2.28149e-12 -3.09471e-11 3.22919e-11 1.40453e-12 2.9105e-11 -2.71665e-11 4.99951e-12 -7.80602e-13 2.04819e-12 0.5 7.45806e-12 1.1266e-11 4.83614e-12 1.02681e-11 7.02381e-12 1.24748e-11 
522 2 2.58373 2.50801 2.00903 0 0 0 -6.1278e-12 -3.15575e-11 1.44025e-11 3.66901e-12 3.05394e-11 -8.99409e-13 1.04039e-11 -3.13085e-12 4.70894e-12 0.5 1.11218e-11 2.81188e-12 -2.95843e-11 9.01657e-12 8.40156e-12 1.26364e-12 
200 1 2.46549 0.208501 4.19599 0 1 0 6.66137e-12 -1.80982e-11 -1.88671e-11 -1.82547e-12 1.6936e-11 2.17606e-11 -1.00838e-11 -7.01068e-12 1.85515e-11 0.5 -3.3092e-11 -1.62116e-11 -6.00285e-11 8.23489e-12 1.80954e-11 1.61648e-11 
114 1 4.70709 1.00384 4.17137 0 0 0 -4.4406e-12 -1.47177e-12 -7.40031e-12 -1.75003e-12 1.33636e-12 4.23496e-12 -3.87521e-12 -2.96848e-12 -3.33062e-12 0.5 -1.70676e-11 1.88562e-13 -9.68741e-12 -1.00801e-12 -1.26612e-11 5.71772e-13 
820 2 1.30996 2.29325 4.21136 1 0 0 -2.07715e-12 -3.91474e-11 7.68503e-12 1.51133e-12 3.40969e-11 -5.99863e-12 -6.85555e-12 -3.62262e-12 1.14704e-11 0.5 8.72546e-12 1.15533e-11 -1.0722e-11 3.82529e-11 4.05646e-12 1.78883e-11 
47 1 4.65574 1.582 5.43553 0 0 0 4.52026e-12 6.15832e-12 1.10922e-12 -3.24141e-12 -7.14746e-12 -1.26705e-12 8.08752e-13 5.92015e-12 3.00174e-12 0.5 -1.73611e-11 -3.05207e-11 -1.22915e-11 -6.67849e-12 -1.4203e-11 2.49896e-11 
824 2 1.64908 3.83184 5.79238 1 0 0 2.87349e-12 1.18013e-11 3.61361e-11 -2.7231e-12 -1.01985e-11 -2.89307e-11 -7.18974e-12 1.61073e-12 -2.29535e-12 0.5 -4.11266e-12 -4.19569e-12 -1.68085e-11 -6.6431e-14 -1.99407e-12 6.42949e-12 
172 1 3.44268 0.338821 4.72114 0 1 0 -7.85518e-12 1.41009e-11 -7.82141e-12 5.95002e-12 -1.32576e-11 7.5114e-12 -1.23972e-11 -2.97665e-12 7.14766e-12 0.5 -2.08449e-11 -2.19544e-11 -7.76236e-11 -1.82254e-11 1.85054e-11 3.20015e-11 
718 2 0.202285 2.03673 5.5128 0 1 0 -6.95937e-12 -1.838e-11 1.33014e-11 5.34537e-12 1.66997e-11 -9.1013e-12 -8.66305e-12 -2.72582e-12 -2.19927e-12 0.5 -4.57989e-11 -1.33564e-11 -2.8445e-11 2.33943e-11 -2.44625e-11 5.55038e-11 
505 2 0.484433 3.5018 5.83385 0 0 -1 -3.53842e-12 1.10999e-11 2.97657e-11 1.58938e-11 -1.94087e-13 -2.11025e-11 1.33084e-12 -4.18588e-12 1.19669e-11 0.5 -5.2185e-12 -7.64222e-11 -4.19724e-11 5.90758e-12 -6.1349e-12 6.1893e-11 
524 2 3.99535 2.7352 5.70679 0 0 0 2.1407e-11 4.02801e-11 3.42036e-11 -1.85516e-11 -3.47456e-11 -3.10805e-11 -8.41739e-12 2.41685e-11 1.06879e-11 0.5 1.1817e-12 5.90992e-12 7.77644e-12 -5.67931e-12 -6.33969e-12 7.22583e-12 
839 2 0.579387 1.61472 4.31101 1 0 0 5.28215e-12 -5.11563e-11 -1.17563e-11 -6.38117e-12 4.60706e-11 1.01407e-11 -3.24471e-12 9.85533e-13 9.54034e-12 0.5 -2.45085e-12 -5.01028e-11 -3.03734e-11 3.74873e-11 -4.19461e-12 5.41592e-11 
937 2 2.44361 3.38654 4.3372 1 0 0 4.99929e-12 -1.71293e-11 1.6608e-11 -2.93306e-12 1.73088e-11 -1.22275e-11 -6.84909e-12 -3.3263e-12 9.64748e-12 0.5 2.68006e-11 2.27559e-11 -3.57211e-11 3.16115e-11 -3.30793e-12 1.43958e-11 
811 2 2.60623 3.94632 5.52498 1 0 0 -1.34914e-12 1.26129e-11 2.14709e-11 -3.86282e-13 -1.07784e-11 -1.88676e-11 -8.20919e-12 -3.07899e-12 1.10348e-14 0.5 -2.69468e-12 -1.33595e-11 -4.37416e-12 -5.34891e-12 -7.90518e-12 1.50903e-11 
827 2 1.52088 3.18133 4.66349 1 0 0 8.29729e-12 -3.95857e-11 1.24803e-11 -5.90554e-12 3.49323e-11 -1.07807e-11 -1.2234e-11 -5.42025e-12 2.1003e-12 0.5 1.63424e-11 -3.83751e-13 -2.18344e-11 6.47973e-12 -7.75238e-13 2.0181e-11 
149 1 4.05563 3.93275 4.61881 0 0 0 -1.84673e-12 9.15745e-12 2.63485e-11 -1.14178e-12 -1.02859e-11 -3.11959e-11 -5.30089e-12 2.32535e-12 7.41752e-12 0.5 -1.55652e-11 -1.0417e-11 1.33055e-11 5.41459e-11 -3.15231e-11 1.62828e-11 
925 2 0.623246 3.59905 4.52293 1 0 0 1.16194e-11 -3.40778e-11 6.56396e-12 -9.91172e-12 2.88019e-11 -3.62254e-12 -1.13538e-11 5.28362e-12 -1.50298e-12 0.5 1.21819e-11 -1.80691e-11 -4.89993e-12 -4.56376e-12 -3.42725e-12 9.0372e-12 
168 1 3.33522 4.60361 5.33159 0 0 0 6.79615e-13 1.17027e-11 2.69073e-11 2.33394e-12 -1.49655e-11 -2.10587e-11 -7.74183e-12 -3.75475e-12 6.82414e-12 0.5 -2.33828e-11 -1.93086e-11 -1.86143e-11 1.02391e-11 -1.52386e-11 1.60439e-11 
928 2 1.57471 4.4088 4.9787 1 0 0 6.0781e-12 8.91862e-12 3.41063e-11 -6.58695e-12 -8.94006e-12 -2.76147e-11 -4.64975e-12 2.66875e-12 -3.84697e-12 0.5 -1.10589e-11 -1.0192e-11 -1.17073e-11 -3.78215e-12 8.72303e-13 1.00611e-11 
148 1 3.93983 3.74234 5.7457 0 0 0 -5.92331e-12 3.9152e-11 3.89102e-11 6.26813e-12 -3.31359e-11 -3.06915e-11 -1.04021e-11 -2.99086e-12 1.72167e-11 0.5 1.20846e-11 2.00095e-11 3.03683e-11 1.6721e-11 2.04429e-11 1.71498e-11 
914 2 4.69244 4.38506 5.24423 0 0 0 -1.36858e-11 2.57685e-11 2.67669e-11 5.13221e-12 -2.44961e-11 -2.77081e-11 -1.59088e-11 -2.04479e-12 4.88417e-13 0.5 1.01873e-12 6.30833e-12 1.0895e-11 3.19773e-12 4.03555e-12 6.93249e-12 
23 1 2.87773 1.11847 4.05716 0 0 0 -8.03989e-12 -1.18823e-11 -1.56643e-11 7.15368e-12 1.12497e-11 1.28477e-11 5.19738e-12 1.29553e-12 4.93025e-12 0.5 -1.88979e-11 -1.90614e-11 -1.4789e-11 -6.92616e-12 7.78259e-12 1.49383e-11 
594 2 2.05586 1.97089 4.80241 0 0 0 4.40143e-12 3.42272e-12 2.01556e-11 -3.7386e-12 -2.98771e-12 -1.64541e-11 4.50114e-12 -4.57055e-12 1.44385e-11 0.5 4.3968e-13 -2.34547e-11 -5.54249e-12 2.09666e-11 -1.10412e-11 1.53092e-11 
539 2 3.78455 1.04074 5.46912 0 0 0 -1.12919e-12 2.981e-11 5.44938e-12 8.03746e-12 -9.45924e-12 -6.16511e-12 -4.64654e-12 8.68035e-12 -1.18998e-12 0.5 -1.10795e-11 -9.56894e-11 -3.99818e-11 -2.78499e-11 -2.17142e-11 7.33066e-11 
730 2 0.461765 1.11568 5.16957 0 1 0 -4.79519e-12 -1.91666e-11 4.75594e-12 3.11268e-12 2.58635e-11 -2.79202e-12 -3.54763e-12 -1.91231e-12 1.40031e-11 0.5 2.52749e-11 -1.04496e-11 -1.79256e-11 5.64916e-12 -5.53954e-12 3.71561e-11 
689 2 3.51933 0.103669 5.69619 0 1 0 -6.52237e-12 2.69924e-11 -8.65438e-12 -3.18858e-12 -4.00543e-11 5.89639e-12 -3.18337e-12 -1.93227e-12 8.87262e-13 0.5 -3.46802e-11 -1.12036e-10 -8.43088e-11 -1.32284e-11 3.53175e-12 7.76788e-11 
450 1 0.619288 4.79871 4.46892 1 0 0 3.08625e-11 -2.39778e-11 2.56347e-11 -2.72528e-11 2.01517e-11 -2.23549e-11 -2.12557e-11 -4.97315e-12 4.09055e-12 0.5 -9.61748e-12 -2.76218e-11 -6.08386e-11 3.05133e-12 -1.09303e-11 3.33709e-11 
549 2 4.49944 0.500888 5.01435 0 0 0 -1.73304e-11 1.07136e-11 -2.9243e-12 1.39228e-11 -7.91594e-12 2.43948e-12 -3.28842e-12 2.52306e-12 -8.58894e-12 0.5 2.6438e-11 3.32695e-11 1.27936e-11 -1.66614e-11 -7.82589e-12 1.69928e-11 
591 2 1.44655 1.12499 4.40334 0 0 0 1.18851e-11 -4.07544e-11 -2.2752e-11 -1.21104e-11 3.66097e-11 1.78128e-11 -5.79847e-12 7.47534e-12 -6.68829e-15 0.5 -2.12819e-11 -3.20489e-11 -2.78241e-11 7.88633e-12 2.77322e-12 2.55526e-11 
243 1 1.20287 1.83742 5.34381 0 1 0 -9.87757e-12 -3.318e-12 1.64127e-12 9.19402e-12 3.60876e-12 -4.82723e-13 -3.80189e-12 -1.80097e-12 7.43183e-12 0.5 -1.27827e-11 -1.18608e-11 -2.63062e-12 1.92123e-11 -8.79404e-12 1.69998e-11 