ITEM: TIMESTEP
113000
ITEM: NUMBER OF ATOMS
1000
ITEM: BOX BOUNDS xy xz yz pp pp pp
0.0000000000000000e+00 1.0000000000000000e+01 0.0000000000000000e+00
0.0000000000000000e+00 1.0000000000000000e+01 0.0000000000000000e+00
0.0000000000000000e+00 1.0000000000000000e+01 0.0000000000000000e+00
ITEM: ATOMS id type x y z ix iy iz vx vy vz fx fy fz omegax omegay omegaz radius c_2[1] c_2[2] c_2[3] c_2[4] c_2[5] c_2[6] 
120 1 3.16063 1.53582 0.0698158 0 1 0 -0.00391074 0.0103138 0.00419302 0.00411848 -0.0100667 -0.00402383 0.00427303 -0.00154925 -0.003031 0.5 -0.00404996 -0.0158012 -0.000819029 -0.00134238 -0.000271654 -0.00282167 
525 2 2.11769 1.24108 1.70778 0 0 0 -0.00210503 -0.0106638 -0.0127754 0.00164576 0.00856542 0.0100845 -0.00171154 -0.000453292 0.00282408 0.5 -0.000392287 -0.00145688 -0.00020657 0.00146948 0.00127143 -0.00122973 
371 1 4.95778 3.68764 1.57667 0 0 1 0.00222399 -0.00698011 0.0120514 -0.0013467 0.00561421 -0.0108693 0.00207925 0.000514291 0.000382283 0.5 0.000204268 -0.0066895 0.00840324 -0.000853431 -0.00118166 -0.000295775 
18 1 1.982 2.69068 0.526739 0 0 0 -0.00126989 0.00284917 0.00951325 0.0010532 -0.00325107 -0.00817218 0.00606269 -0.00355393 0.00254631 0.5 0.00077816 -0.0118437 -0.00629858 0.00880541 0.00967452 -0.00877186 
94 1 2.46263 3.50615 1.99833 0 0 1 -0.00196776 -0.00875098 0.011462 0.00268797 0.00769403 -0.0115252 0.0045541 -0.00196708 0.000684782 0.5 0.00400821 0.00508591 0.00248702 0.00291179 0.00409374 0.00436165 
25 1 1.41579 0.709503 1.09296 0 0 0 8.88077e-05 -0.000954598 -0.017159 -0.00096317 0.000424406 0.0158777 0.00551967 -0.000292217 0.00243748 0.5 -0.00781843 -0.0361294 -0.0158791 0.0147569 0.00998412 -0.0155722 
378 1 4.61967 2.40433 0.0667668 0 0 1 -0.00179386 0.00557062 0.0100869 0.00285963 -0.00582207 -0.00930828 0.00694302 0.00164941 -0.00108944 0.5 -0.00277786 -0.0070104 -0.00194968 -0.00590718 -0.00219593 -0.00909499 
8 1 3.44107 2.07158 1.73946 0 0 0 0.00042859 -0.00555484 0.0056751 -0.000402253 0.00429769 -0.00544537 0.00550859 -0.00222955 0.000867338 0.5 -0.00279247 -0.00138022 0.00192101 0.00305877 0.00565933 -0.0018876 
629 2 4.07576 2.61724 1.19188 0 0 1 0.00176669 -0.00191806 0.0108424 -0.00104119 0.000733258 -0.00969215 0.00671951 -0.000926539 5.35771e-05 0.5 -0.00528563 -0.00401542 -0.00617784 0.00101011 -0.00169649 -0.00234587 
5 1 2.34787 3.9057 1.04647 0 0 0 -0.000751247 -0.000415947 0.015055 0.000931739 -0.0307172 -0.0338294 0.00567016 -0.000161163 -0.00226359 0.5 -0.00243616 -0.0124022 -0.00942318 0.00230303 0.00254591 -0.0104741 
650 2 0.464227 3.44244 1.13341 0 0 0 -0.00894047 -0.00978486 -0.00804582 0.00820149 0.00905794 0.00864561 0.00493352 0.00233404 0.00148513 0.5 -0.0103791 -0.0111049 -0.00666875 0.0072659 0.00807101 -0.00789342 
14 1 3.29534 3.13763 1.53849 0 0 0 -0.00102988 -0.00607476 0.0107896 0.00176643 0.0049547 -0.00975847 0.00445123 0.000377103 2.09361e-05 0.5 0.000816058 -0.0029188 -0.00391348 0.00204249 0.00118331 -0.00523578 
264 1 3.99496 3.87226 1.37217 0 0 0 0.00206823 -0.00690193 0.0128382 -0.00128771 0.00594746 -0.0111899 0.00532138 0.00117954 -0.000445487 0.5 -0.000577792 0.000226179 -0.0034086 0.00285932 0.0014442 -0.000799623 
223 1 0.751635 2.48334 1.14696 0 0 1 -0.00675567 -0.00885419 -0.00279194 0.00589661 0.0081201 0.00321587 0.00685591 -0.00191288 0.00309277 0.5 -0.00805695 -0.0148864 -0.0467749 0.00523813 0.0181084 -0.0136081 
364 1 4.42387 4.23428 0.530695 0 0 1 -0.00201838 0.00518666 0.01588 0.00151335 -0.00551253 -0.0144065 0.00422364 0.000201927 0.00232378 0.5 0.00207124 -0.000621707 0.00184885 3.75236e-05 0.001011 -0.00181194 
107 1 1.66324 1.61737 0.754183 0 0 1 -0.00400222 0.0018707 -0.0124495 0.00333106 -0.00204569 0.0124106 0.00784766 0.000277564 0.00112872 0.5 0.00727317 -0.00498098 -0.00377401 -0.00179855 0.0014181 -0.00569238 
529 2 2.67135 2.20042 1.06081 0 0 0 0.00228639 -0.000582396 0.00190094 -0.00226696 -0.000451976 -0.00153799 0.00704711 -0.00187973 0.00178308 0.5 0.000754304 -0.000679632 -0.00199284 -1.18834e-05 0.00409819 -0.00159061 
515 2 4.38622 0.440313 1.64561 0 0 0 0.00032316 -0.00689307 -0.0029984 -0.000314154 0.00539018 0.00270155 0.00462064 0.000802065 -0.000620816 0.5 -0.0122016 -0.00836994 -0.0154915 -0.014758 0.00624272 0.00541417 
244 1 4.11357 0.569477 0.683538 0 1 1 -5.85346e-05 0.0021736 -0.00125477 0.000342288 -0.00260599 0.000947824 0.00607444 0.00151085 -0.00131671 0.5 -0.00771671 -0.00720912 -0.0114892 -0.0044107 0.00494774 0.00383425 
20 1 2.90105 0.573976 1.7868 0 0 0 0.00132146 -0.004794 -0.00482634 -0.00120361 0.00356912 0.00406865 0.00345482 -0.00186975 0.000661896 0.5 -0.0101013 -0.0158464 -0.0216385 -2.11614e-05 0.0115675 -0.0116141 
280 1 4.08987 1.58275 1.14449 0 0 0 0.0013473 -0.000525286 0.00342355 -0.00105076 -0.000160253 -0.00350435 0.0059748 -0.000556315 -0.000614091 0.5 -0.0123114 -0.00763303 -0.020618 -0.0013486 0.0128787 0.00159516 
620 2 1.39911 4.37491 0.85592 0 0 1 -0.00846667 -0.00631344 0.00147222 0.00781072 0.00481486 0.000295488 0.00651359 0.0021669 0.00123446 0.5 -0.00231373 -0.0129923 -0.026415 -0.00101857 0.000862923 0.00537873 
1000 2 3.60218 2.3954 0.334325 0 1 1 0.00112838 0.00573583 0.00962613 -0.000163992 -0.00621606 -0.00863945 0.00498828 -0.000936202 -0.00111969 0.5 -0.00499821 -0.0132503 -0.00419774 -0.00355616 -0.00265151 -0.0018564 
103 1 3.28481 3.68379 0.690568 0 0 1 -0.0017546 0.00032313 0.0148099 0.00513053 -0.00231909 -0.015308 0.00468267 0.000577129 0.000510564 0.5 0.000345925 0.00206084 -7.43643e-05 -5.82511e-05 0.00258307 -0.00124293 
622 2 0.935835 4.80249 0.0796791 0 0 1 -0.0100386 0.00347368 0.00779702 0.00960444 -0.00480145 -0.00597204 0.00955466 -0.00265932 0.0039261 0.5 0.000781483 0.00271146 -0.0142517 -0.000862553 -0.00429658 0.00259525 
506 2 0.747153 1.45683 1.19123 0 0 0 -0.00550446 -0.00942052 -0.0156324 0.00409504 0.00879258 0.0144812 0.00637786 -8.02749e-05 0.00470934 0.5 -0.00200633 -0.0214502 -0.0021662 0.0249148 0.00749651 -0.0136061 
626 2 1.29285 3.41885 0.569149 0 0 1 -0.00812362 -0.00349723 -0.00648852 0.00742705 0.00242026 0.00723256 0.00147394 -0.00511084 0.00369572 0.5 -0.00859607 -0.0134476 -0.00291192 0.00614112 0.00809099 -0.00533848 
553 2 0.742929 0.0818576 1.57577 0 0 0 0.00294117 -0.00793288 -0.0223075 -0.00423119 0.00771086 0.0205234 0.00133927 -0.0025399 0.00461145 0.5 0.00178738 0.00177855 0.000994918 -0.000339417 0.00103102 -0.00205516 
135 1 1.54574 3.21125 1.67904 0 0 0 0.00308851 -0.0114014 -0.00396987 -0.00239468 0.0105703 0.00435938 0.00298484 -0.00820409 0.000496632 0.5 0.00138967 -0.0327368 -0.00413798 0.00826384 0.00416225 -0.00265271 
624 2 4.32403 4.92431 1.46321 0 0 1 0.000701704 -0.00557658 0.0149318 -0.000613302 0.00455214 -0.0141753 0.00408239 0.00204402 0.000916512 0.5 0.00144356 0.00193644 -0.00915967 0.000630673 -0.00244609 -0.00645154 
256 1 4.58659 1.36635 0.303996 0 0 0 0.000468768 0.00320879 0.00193694 0.000158979 -0.0036868 -0.00187528 0.00656334 0.00170307 -0.00296424 0.5 -0.00657027 -0.0103834 -0.0229093 -0.00749407 0.0103093 -0.00527267 
260 1 3.31851 0.071446 1.02972 0 0 0 -0.000318846 -0.00187898 -0.00767398 0.00067153 0.00101219 0.00682437 0.00341468 0.00277557 -0.00238834 0.5 -0.00869885 -0.0169368 -0.0154578 -0.00277422 0.00541386 -0.00849892 
616 2 3.18954 4.48585 1.49895 0 0 1 0.00301776 -0.00775198 0.0134583 -0.0068369 0.00655904 -0.0119733 0.00159154 -0.000933027 0.000706542 0.5 -0.00216368 -0.00169054 -0.00188579 0.00255038 0.00171971 -0.00126374 
106 1 1.74376 2.24236 1.53065 0 0 1 0.00261623 -0.0117823 -0.00214518 -0.00250133 0.0108083 0.00246924 0.00598297 -0.0028441 -0.000420496 0.5 -0.0003356 -0.0179871 -0.00355101 0.00492724 0.00789566 -0.00413292 
157 1 1.38907 4.18605 1.83787 0 0 0 0.000496627 -0.0125194 0.000375798 -0.000788679 0.0113392 0.00138882 0.00453806 0.00194892 0.000978369 0.5 -0.0094167 -0.0248637 -0.0280548 0.00393403 0.0101243 -0.00620888 
516 2 2.34647 0.887068 0.691836 0 0 0 0.00120699 0.00625136 -0.00730256 -0.00158723 -0.00589745 0.0075432 0.000201448 -0.00516562 -0.00152432 0.5 0.00105025 -0.00267976 -0.00105452 0.000716585 0.00694318 -0.00517393 
183 1 0.420272 4.59023 0.998369 0 0 0 -0.00982588 -0.0147947 0.00715143 0.00963096 0.0150332 -0.00416507 0.0118057 0.00174135 0.00442631 0.5 0.00167219 -0.00181944 -0.000520657 0.000843252 -0.00070791 -0.000300396 
625 2 0.404567 3.91218 0.210757 0 0 1 -0.00792163 -0.000181537 -0.00395976 0.00482756 0.00119055 0.00607894 0.0131569 -0.000470841 0.000658474 0.5 -3.84555e-05 0.000956456 -0.000881765 -0.000793337 -0.000542864 -0.00012682 
91 1 2.21978 4.72345 1.69133 0 0 1 0.000836115 -0.0115254 0.00674783 -0.00403529 0.0178804 0.00556549 0.00229047 -0.00389491 0.000246714 0.5 -0.00636205 -0.0267945 -0.011908 -0.00508579 0.00310861 -0.0147845 
257 1 4.93893 2.69576 1.70243 0 0 0 0.00223681 -0.0072347 0.0100554 -0.00165187 0.00584659 -0.00906105 0.00407474 0.000833784 -0.000599091 0.5 -0.00441604 -0.00828772 -0.0245063 -0.00110769 -0.00410241 -0.00624097 
4 1 3.72111 1.13211 1.95747 0 0 0 0.00102434 -0.0068024 -0.000197473 -0.000866533 0.00544147 -0.000346324 0.0051018 -0.000347014 -0.000158276 0.5 -0.00251689 -0.00232419 -0.0130519 -0.00733108 0.00578801 0.00750161 
522 2 2.58448 2.51353 2.00655 0 0 0 -0.00158946 -0.00879057 0.00426386 0.00171088 0.00764353 -0.00390585 0.00472625 -0.0030012 0.00205921 0.5 -0.00579064 0.000619008 -0.00119575 0.00602116 0.00999291 -0.000387844 
117 1 3.12646 1.3149 1.15417 0 1 0 0.00150724 -0.00124804 -0.000608515 -0.00113643 0.000335661 0.000341344 0.00575069 -0.00205631 -0.000413654 0.5 0.000446517 -0.00244464 0.00337381 -0.00103585 0.00540655 0.00149578 
511 2 1.08226 2.24555 0.233654 0 0 0 -0.00241348 0.00901959 -0.00588789 0.00209051 -0.00861271 0.00641077 0.0106707 -0.000661193 -0.00183255 0.5 -0.00415346 -0.016405 -0.0437674 0.00509345 0.020178 -0.0100546 
911 2 0.492051 0.5654 0.709074 1 0 0 0.000469134 -0.00309077 -0.0197354 -0.00105265 0.00263401 0.0174304 0.00148553 -0.000804893 -0.0010765 0.5 0.00415121 -0.012285 -6.55665e-05 -0.0007975 0.00174124 -0.00532588 
668 2 0.00170044 3.83146 1.931 0 0 0 0.000948607 -0.0200946 0.00244376 -0.000666923 0.0184317 -0.00105682 0.00124835 0.00388003 -7.79396e-05 0.5 -0.0118916 -0.0364382 -0.0109143 0.0108392 -0.000865516 -0.00205613 
90 1 2.94239 4.58089 0.410111 0 0 1 -0.00461861 -3.20387e-06 0.0171 0.00426713 -0.00226157 -0.0143453 0.00417788 -0.00298197 0.00245764 0.5 0.00146538 0.0147893 0.00579483 0.00876548 0.00738089 0.00829168 
734 2 4.13617 3.24255 0.36557 0 1 1 0.0011897 0.00529249 0.0160316 0.000340573 -0.00619392 -0.0144194 0.0058541 0.000679656 -0.000513195 0.5 -0.00170932 -0.00345759 -0.00124079 -0.00310158 0.00154802 -0.000936432 
672 2 0.0720999 1.99508 1.69579 0 0 0 -0.00709707 -0.0164528 -0.0102414 0.00532949 0.0153291 0.00906165 0.00646664 -0.00022606 0.00260172 0.5 -0.030078 -0.039044 -0.018053 0.0168946 0.0176265 0.000528284 
759 2 4.95683 2.04044 0.94729 0 0 0 0.00293178 -0.00245054 0.00591473 -0.00234357 0.00150177 -0.00528036 0.00618001 0.000730305 -0.00117614 0.5 -0.00297027 -0.015342 -0.00266083 -0.00593883 0.000983839 -0.00690842 
609 2 1.99793 4.76113 0.129327 0 0 1 -0.00322781 -0.000839401 0.012302 0.00318577 -0.000528276 -0.0103387 0.0042364 -0.00470606 0.00206445 0.5 -0.0268525 -0.0931807 -0.0149743 0.0243748 0.0113087 -0.0177543 
868 2 2.87011 3.00501 0.0232121 0 0 1 -0.000328383 0.00350697 0.00919553 0.000534958 -0.00449025 -0.00732676 0.00511264 -0.00163708 0.0019594 0.5 -0.00459856 -0.0119424 0.00111381 0.00908378 0.00274895 -0.00079881 
21 1 1.84689 0.364173 2.43897 0 0 0 -0.00162673 -0.0127298 -0.0136833 0.000831884 0.0116315 0.0128851 0.00318063 -0.00496871 0.00398473 0.5 -0.000379504 0.00130591 -0.000279105 0.000630005 0.00137407 -0.0029107 
682 2 2.72933 4.08875 2.76682 0 0 0 0.00159326 -0.00824163 0.00996012 -0.0013172 0.00686157 -0.00944321 0.00118147 -0.00088882 -0.00106768 0.5 -0.0103332 -0.0121427 -0.0072982 -0.000222293 0.0129695 0.00962137 
907 2 0.980349 4.63379 2.63314 1 0 0 0.00294001 -0.0146028 0.00281138 -0.00205863 0.0128849 -8.96851e-05 0.000105794 -0.00192405 0.00119174 0.5 -0.016688 -0.0279508 -0.0228094 0.0051271 0.0145485 -0.00946874 
144 1 1.68243 3.60854 2.81079 0 0 0 0.00444732 -0.0129397 -0.000113931 -0.00360902 0.0109485 0.000336238 -7.04487e-05 -0.00109902 -0.00140702 0.5 0.0025857 -0.00387924 -0.00259421 0.00157271 0.00539868 -0.00193398 
675 2 2.82737 4.74376 3.53929 0 0 0 0.0071428 -0.0089509 0.0104641 -0.00714619 0.00776531 -0.00893546 -0.00106091 -0.000551569 -0.00225193 0.5 -0.000234872 -0.000423664 0.000210096 0.000410096 0.00124688 0.00235094 
502 2 4.38793 1.31742 3.26928 0 0 0 0.00296308 -0.0112022 0.000104266 -0.00296514 0.0109769 -0.000122164 0.00249736 0.000818894 -0.00141324 0.5 -0.0113408 -0.00861811 -0.0076552 -0.00696281 0.00706297 0.0108913 
27 1 2.6069 0.306503 3.21445 0 0 0 0.00414536 -0.00991917 -0.00629088 -0.00403209 0.00912393 0.00542012 -2.48392e-05 -0.00135354 0.000376099 0.5 -0.0132251 -0.0118745 -0.0228885 0.00416675 0.0100716 0.00214287 
965 2 1.35204 3.66622 3.80044 1 0 0 0.00665763 -0.0130461 -0.00306225 -0.00631941 0.0110044 0.00333875 -0.00221957 0.00153803 -0.00371432 0.5 -0.0048538 -0.011706 -0.0147987 0.00647063 -0.00271819 0.00706702 
61 1 1.66102 0.455635 3.52271 0 0 0 0.00181134 -0.0115251 -0.0149796 -0.00232663 0.00999187 0.0125558 -0.00229402 -0.00195961 0.00150299 0.5 -0.0112432 -0.000288851 -0.00174018 0.00115517 0.00682732 -0.000803824 
680 2 1.19122 2.78864 3.34851 0 0 0 -0.00238001 -0.0114234 -0.00293383 0.00297523 0.00964009 0.00288598 0.000184374 0.00161066 -0.000932513 0.5 -0.000312968 -0.00475223 -0.00561393 0.000374425 0.00306242 0.00139409 
251 1 4.70948 3.0411 3.88926 0 0 0 0.00804385 -0.0131635 0.0111932 -0.00690822 0.0128333 -0.010443 0.00290068 0.00192423 -0.00361989 0.5 -0.0114511 -0.00477552 8.42887e-06 -0.00998664 0.00458482 0.00706933 
517 2 4.00848 2.90014 2.21333 0 0 0 -0.000192788 -0.0108856 0.00852509 0.00132858 0.00990244 -0.00753253 0.00141717 0.00290417 -0.00287857 0.5 0.000198076 -0.000441871 -0.000786821 -0.000676099 0.000349592 0.000979282 
6 1 3.42073 1.78414 2.72927 0 0 0 0.0021354 -0.00716888 0.00606192 -0.00244058 0.00646281 -0.00566709 0.00410263 -0.0017341 0.00106434 0.5 -0.0170985 -0.00135794 0.000713712 0.00130277 0.00815588 0.00117029 
519 2 4.432 3.62003 3.02296 0 0 0 0.00236368 -0.0108146 0.0136718 -0.00185295 0.0105403 -0.0125281 0.00213854 0.00151311 -0.00103009 0.5 -0.000176334 0.00366236 0.00176164 -0.00254468 0.00115691 0.00023533 
509 2 1.93244 1.52058 3.63149 0 0 0 0.00681685 -0.00606489 -0.0133572 -0.00677069 0.00395609 0.010957 -0.00252476 0.00360136 0.00221965 0.5 0.00168696 -0.0018142 -0.0132994 -0.00097278 0.00286161 0.00380837 
142 1 1.03703 1.94943 2.17476 0 0 0 -0.00242242 -0.0125487 -0.00807496 0.00150683 0.0114761 0.00714676 0.00473439 -0.000338189 0.00193836 0.5 0.000297981 -0.00297614 -0.00332093 0.00115898 0.000524165 0.00448574 
941 2 0.195747 2.26962 2.77789 1 0 0 -0.00583468 -0.0193938 -0.00812536 0.00526224 0.0177181 0.00903138 0.00188142 -0.000639748 0.000543925 0.5 -0.00298148 -0.00598617 -0.0114075 -0.000665296 0.00207293 0.00287882 
919 2 0.649002 4.32487 3.53227 1 0 0 0.00300035 -0.0151224 0.00141219 -0.00307907 0.013212 0.000406918 0.00125873 0.000572724 -0.0020373 0.5 -0.00972653 -0.0202929 -0.00982036 0.00933076 0.00107645 0.00484347 
95 1 3.53709 3.78402 2.26219 0 0 1 0.0027711 -0.00955853 0.0126353 -0.00205838 0.00825389 -0.0114479 0.00200434 -7.26131e-06 -0.00123278 0.5 -0.012094 -0.0056333 -0.0118087 -0.000769139 0.00547384 -0.00349317 
458 1 1.55503 4.76073 3.85824 1 0 0 0.00244646 -0.0127924 0.0103991 -0.000540106 0.0128833 -0.00830129 -0.00278386 -0.000221519 0.000966688 0.5 -0.000553759 -5.75007e-05 -0.00109594 0.00103268 0.000735077 -0.00114481 
41 1 1.14107 0.967022 2.01935 0 0 0 -0.000397618 -0.0112887 -0.0144276 -0.000480489 0.0103308 0.0132059 0.00483168 0.000135108 0.00252735 0.5 -0.0035032 -0.002603 -0.00429437 0.00162744 0.00674526 -0.00560957 
814 2 0.269829 1.23498 3.41059 1 0 0 0.00249113 -0.0122007 -0.0122507 -0.00236198 0.0104807 0.0107878 0.000991503 -0.00132513 0.00492139 0.5 -0.0146928 -0.0136579 -0.0112641 0.00518824 0.00429172 0.0137619 
130 1 1.70732 2.65469 2.50253 0 0 0 -0.00393663 -0.011776 -0.00382763 0.00384351 0.00994702 0.00340021 0.00295085 -0.0017718 -0.00123851 0.5 -0.00748077 -0.0156367 -0.0114056 0.00519569 0.00617604 0.00663862 
12 1 2.70059 1.10009 2.61325 0 0 0 0.00355795 -0.00717312 -0.00276371 -0.00339132 0.00627275 0.00179608 0.00288693 -0.00359645 0.00136092 0.5 -0.0120978 -0.0186649 -0.0140539 0.00323355 0.00807805 -0.00142911 
512 2 3.18274 2.03296 3.78609 0 0 0 0.00639477 -0.00228431 0.00232988 -0.00581331 0.00203277 -0.00250613 0.00316928 -0.00164834 0.00126226 0.5 -0.00159444 -0.00614352 -0.003226 -0.000342499 0.00176355 0.0060382 
151 1 2.47838 3.30702 3.33771 0 0 0 0.00117576 -0.010904 0.00614281 -0.000570632 0.00972373 -0.0052159 0.000515737 -0.00149249 0.000812501 0.5 0.00229829 -0.0213178 -0.0137929 -0.00226513 0.00985107 0.00833988 
667 2 0.285046 1.33013 2.41432 0 0 0 -0.000699897 -0.0163812 -0.0125626 -0.000306022 0.0153755 0.0112023 0.00276665 0.000705149 0.00361684 0.5 -0.00455283 -0.0194035 -0.0144628 0.0012221 0.000854619 0.0047971 
38 1 3.78748 0.740776 3.87424 0 0 0 0.00529826 -0.0048894 -0.0022451 -0.00520322 0.00465569 0.00173306 -0.00295579 -0.000464699 -0.00132968 0.5 -0.0118141 -0.00492306 -0.0270441 -0.0140103 0.00930504 0.0195105 
936 2 0.322511 3.37729 3.50796 1 0 0 -0.0037913 -0.0124671 -0.00243509 0.00237108 0.0115803 0.00236395 0.00135879 -0.0027367 -0.00231216 0.5 -0.000485364 -0.020374 -0.00672163 -0.00120057 0.00604709 0.011663 
531 2 4.80049 0.816285 2.48054 0 0 0 -0.000260541 -0.0139233 -0.000420237 -0.000430065 0.0125293 0.000568353 0.00203077 0.000832629 -0.00191758 0.5 -0.00422133 -0.00191848 -0.0101772 -0.00491354 -0.00713389 -0.00564804 
527 2 4.02605 4.32052 3.60993 0 0 0 0.00774573 -0.00963925 0.015992 -0.00759387 0.00908267 -0.0147834 -0.000638892 0.000362821 -6.84573e-05 0.5 -0.0200867 -0.00756189 -0.00219097 -0.0101128 0.00750705 0.00681301 
383 1 4.36219 4.34868 2.28111 0 0 1 0.0012808 -0.00741239 0.0136886 -0.000974689 0.00670538 -0.0127628 0.00174189 0.000623691 0.000179609 0.5 -0.0104276 -0.0019771 0.0042795 0.000649557 -0.000726262 -0.00402575 
992 2 0.693254 0.446552 3.86108 1 1 0 0.00483684 -0.0114559 -0.014339 -0.00520088 0.00931639 0.0127825 -0.00189677 0.00213353 0.00169974 0.5 -0.00979013 -0.0236563 -0.00346613 0.00714561 -0.00294153 0.0111501 
521 2 4.93266 4.53214 3.24207 0 0 0 0.00658573 -0.0077001 0.0146252 -0.00655841 0.00732842 -0.0136676 -0.000491311 0.0024389 0.00128661 0.5 -0.00580755 -0.0028417 -0.00505359 -0.00371933 0.000226738 0.00987957 
136 1 1.88535 1.67896 2.62997 0 0 0 -0.000181059 -0.0121651 -0.0120227 -0.00044428 0.0100595 0.0098812 -0.000409852 0.00196208 0.00216286 0.5 -0.0132192 -0.0161318 -0.0117679 0.00881351 0.00285576 0.00336647 
540 2 4.5098 0.185312 3.41587 0 0 0 0.0028102 -0.0117906 -0.00134433 -0.00304611 0.0106634 0.000994627 -0.00264995 0.00121425 -0.00243845 0.5 0.00336308 0.00273243 0.00113225 -0.00336398 -0.00174126 0.00241754 
510 2 3.85337 2.57393 3.16567 0 0 0 0.00337285 -0.00941993 0.00908357 -0.00337664 0.00841315 -0.00844185 0.00118297 0.000871533 -0.000398395 0.5 0.00742146 0.00657565 -0.00266878 -0.00256361 0.00105628 0.00406704 
19 1 4.36455 1.84915 2.40527 0 0 0 0.00202843 -0.00299317 0.00657461 -0.00243091 0.00299532 -0.00629263 0.00451145 0.000538943 -0.00179156 0.5 -0.0223543 -0.000583866 -0.0103594 0.000854767 0.0103668 0.0016468 
543 2 1.07186 1.79393 3.20008 0 0 0 0.00264967 -0.0109132 -0.00823264 -0.00275912 0.00953556 0.0066803 0.00180291 0.00238695 0.00228592 0.5 -0.00535963 -0.0044219 -0.00241052 -0.00413971 0.00487802 0.00255312 
773 2 4.78616 2.23409 3.30311 0 0 0 0.00301302 -0.0115163 0.00809257 -0.00280562 0.0111399 -0.00742004 0.00185396 0.00188238 -0.00146882 0.5 -0.00445345 -0.0171613 -0.0312614 -0.00764036 0.0136788 0.0265404 
555 2 2.23641 2.5122 3.89423 0 0 0 0.00477254 -0.0112649 0.0071972 -0.00515113 0.0102217 -0.00650395 -2.19947e-05 3.81801e-05 -7.06258e-05 0.5 -0.00228158 -0.000161349 0.000973369 -0.00239892 0.00370593 0.00668173 
429 1 0.308986 2.40972 3.76153 1 0 0 -0.00488972 -0.0138892 -0.00901378 0.018501 0.0127963 0.00803222 0.000554134 0.000294968 0.00268522 0.5 -0.0104188 -0.0308711 -0.0179183 0.00774346 -0.00683391 0.0184625 
316 1 0.889486 0.521341 2.87894 1 0 0 0.00169919 -0.0143039 -0.0153848 -0.00293158 0.0129774 0.0138042 -0.000137458 -0.00026158 0.00245933 0.5 0.00122542 -0.00180061 0.00272794 0.000899684 0.000864616 0.000871589 
503 2 3.61565 0.774478 2.8872 0 0 0 0.00224322 -0.00983615 -0.00147813 -0.00220704 0.00898556 0.00104523 0.000847897 0.000687815 -1.23166e-05 0.5 0.00036662 0.00402214 -0.0162494 -0.000486291 -0.000313425 0.00323759 
896 2 0.699811 3.67396 2.62945 1 0 0 0.00419494 -0.0149613 0.000357998 -0.00338388 0.0132944 0.000456949 0.00022656 0.000153204 -0.000943037 0.5 -0.00157126 -0.0129353 -0.0144167 0.000412502 8.69993e-05 0.000826996 
690 2 1.93613 4.67707 2.92402 0 0 0 0.000633208 -0.00944347 0.00962602 0.000402789 0.00870299 -0.00768472 0.000954021 -0.00229936 0.00233208 0.5 -0.00889883 -0.00261859 -0.000502688 0.00540819 0.00220446 -0.000511252 
641 2 3.45827 3.5056 3.2199 0 0 0 0.00192109 -0.00890572 0.0127094 -0.0013377 0.00826768 -0.011355 -0.000334542 0.000355379 0.000389896 0.5 0.00784336 0.00558545 -0.00209136 -0.00269319 -5.44683e-05 0.0064698 
528 2 3.33991 4.80777 2.43485 0 0 0 0.00487051 -0.00942235 0.0137076 -0.00458609 0.0081713 -0.0129224 0.00242895 0.000787614 -0.00106869 0.5 -0.00185868 -0.00509938 -0.00476252 -0.00407547 0.000907502 0.00155219 
225 1 2.66741 2.38615 2.99553 0 0 1 -0.0010335 -0.0104342 0.00405363 0.00036601 0.00922016 -0.00362889 -6.0354e-05 0.00203649 0.00246114 0.5 -0.00358396 -0.0110327 0.00207282 0.00684119 0.000168364 -0.00262692 
119 1 0.617946 2.85102 2.06725 0 0 0 -0.00551286 -0.0131463 -0.000888707 0.00427105 0.0119767 0.00140377 0.00448302 0.000781814 8.06182e-05 0.5 0.00210168 -0.0106983 -0.0223468 0.00133252 0.00728404 -0.00458557 
200 1 2.45981 0.211843 4.19903 0 1 0 0.00977647 -0.00566117 -0.00503693 -0.00881787 0.00503543 0.00426583 -0.0048857 -0.00282994 0.00297272 0.5 -0.0102772 -0.006822 -0.017422 -0.00113618 0.00754885 0.00399622 
114 1 4.70428 1.00793 4.17107 0 0 0 0.00514957 -0.00759647 0.000656719 -0.00500412 0.00677844 -0.000799655 -0.000627508 -0.000355061 -0.00225164 0.5 -0.00583447 0.000777412 0.000351955 -0.000952087 -0.00345398 -0.000994847 
820 2 1.30924 2.29818 4.21195 1 0 0 0.00121312 -0.00759584 -0.00124795 -0.00182095 0.00551736 0.00116908 -0.00262213 -0.00211193 0.00152648 0.5 -0.00336929 0.000292784 -0.00433463 0.0030021 0.00669401 0.00645958 
47 1 4.64972 1.58558 5.43359 0 0 0 0.0113147 -0.00723333 0.00365734 -0.0113904 0.00719442 -0.00319665 0.00138118 0.00242023 0.000187929 0.5 -0.00859555 -0.00950621 -0.0045712 -0.00498843 -0.00467505 0.00600083 
824 2 1.64723 3.82995 5.78631 1 0 0 0.0042033 0.00335096 0.0100792 -0.00439057 -0.00369944 -0.00832244 -0.00678833 -0.000976281 -0.00371848 0.5 -0.00340307 -0.00237204 -0.0107826 -0.00361161 0.00324485 0.00339262 
172 1 3.43883 0.337078 4.72023 0 1 0 0.00706984 0.0023323 0.00140128 -0.0068575 -0.00133677 -0.00138777 -0.00408012 -0.000982463 -0.000226791 0.5 -0.0116446 -0.0116478 -0.0357049 -0.0102866 0.00936996 0.0155402 
718 2 0.201514 2.03575 5.51345 0 1 0 0.00151207 0.003269 -0.00126056 -0.00210768 -0.00514999 0.000541641 -0.00330438 -0.000860406 0.00117366 0.5 -0.0121338 0.000197202 -0.0077558 0.00659035 -0.00861975 0.0205553 
505 2 0.485071 3.49384 5.82951 0 0 -1 -0.000896986 0.0155661 0.00761041 0.000165526 -0.0173849 -0.00661145 -0.000373551 -0.00427072 0.00375056 0.5 -0.00265905 -0.0300485 -0.0144886 -0.00011245 -0.000238386 0.0231984 
524 2 3.98471 2.73207 5.69558 0 0 0 0.0171554 0.00383701 0.0187798 -0.0134716 -0.00195172 -0.0162097 -0.00327558 0.00970104 0.00501608 0.5 0.000228669 0.00395484 0.00273464 -0.00203245 -0.00257634 0.00219061 
839 2 0.576887 1.62244 4.31687 1 0 0 0.00374817 -0.0118723 -0.0103481 -0.00198868 0.00706439 0.010936 -0.00214822 -0.000341388 0.00496313 0.5 -0.00346779 -0.0243339 -0.0151854 0.0104336 -0.000365451 0.0230771 
937 2 2.4408 3.39241 4.33366 1 0 0 0.00507713 -0.0101856 0.00610693 -0.00448203 0.00898799 -0.00520696 -0.00224274 -0.00248888 8.74412e-05 0.5 -0.0108941 -0.00139611 -0.0134282 -0.00184738 0.00879654 0.00905418 
811 2 2.60442 3.94688 5.52004 1 0 0 0.00497965 -0.00289835 0.0102646 -0.0053795 0.00282828 -0.0091284 -0.00282034 -0.00338539 -0.00109411 0.5 -0.00428459 -0.0087352 -0.00312712 -0.00526373 0.000899272 0.00677491 
827 2 1.51934 3.18643 4.66302 1 0 0 0.00250824 -0.00788775 0.000368899 -0.00196424 0.00622139 2.71152e-05 -0.00499818 -0.00366528 -0.00377814 0.5 -0.0108972 -0.00516724 -0.0184292 -0.00318627 0.00575058 0.011625 
149 1 4.05237 3.93478 4.61111 0 0 0 0.00614241 -0.00409807 0.0130805 -0.00582164 0.00398901 -0.0113338 0.000213234 0.000812549 0.00154614 0.5 -0.000824465 -0.00347566 0.00576539 0.00765347 -9.00847e-05 0.00596765 
925 2 0.619677 3.60041 4.52436 1 0 0 0.00618326 -0.00108083 -0.00316481 -0.00539389 -3.99338e-05 0.00384884 -0.00453407 0.000432872 -0.00247667 0.5 -0.0068198 -0.00612857 -0.00276405 0.00096381 -0.0029457 0.00398439 
168 1 3.33222 4.60463 5.32323 0 0 0 0.00580005 -0.00275942 0.0145421 -0.00629426 0.00289204 -0.0130691 -0.0019251 -0.00144358 0.00271821 0.5 -0.0121413 -0.00820943 -0.0112136 -0.00121523 -0.0035499 0.00625965 
928 2 1.57304 4.40887 4.97392 1 0 0 0.00299144 -0.000238064 0.00777388 -0.00261696 -0.000149354 -0.00607559 -0.00365436 -0.000511145 -0.00465432 0.5 -0.0107175 -0.00958771 -0.00859339 -0.00677458 0.00591947 0.00568836 
148 1 3.93727 3.73933 5.73492 0 0 0 0.00536679 0.00376366 0.0185674 -0.00564077 -0.00199165 -0.0167217 -0.00409181 -0.00264541 0.00607099 0.5 0.0019498 0.0101185 0.00509433 0.00456356 0.00389221 0.00434824 
914 2 4.69178 4.3864 5.23429 0 0 0 0.00229592 -0.00384572 0.0169991 -0.00387001 0.0062049 -0.015116 -0.00561527 -0.00297348 -0.00323995 0.5 0.00178067 0.00158724 0.00573895 0.000163112 0.00287444 0.00299931 
23 1 2.87519 1.12098 4.0613 0 0 0 0.00469884 -0.00437866 -0.00690532 -0.00479944 0.00402396 0.0053995 0.0001948 -0.00231003 7.78347e-05 0.5 -0.00956764 -0.00940975 -0.00639554 -0.00620665 0.00437711 0.00459205 
594 2 2.05289 1.96825 4.80198 0 0 0 0.00533504 0.00490644 8.28882e-05 -0.00544258 -0.00454125 0.000578317 0.00159689 -0.00191087 0.00362722 0.5 0.000488705 -0.00867865 -0.00140113 0.00355592 -0.00115613 0.00518722 
539 2 3.7806 1.03701 5.46549 0 0 0 0.00746684 0.0055833 0.00637412 -0.00767849 -0.00406809 -0.00602707 -0.00205957 0.00315089 -0.00178947 0.5 -0.00232148 -0.0333594 -0.0153731 -0.0135209 -0.00865887 0.027276 
730 2 0.45956 1.11541 5.17077 0 1 0 0.00395608 0.00179801 -0.00220628 -0.00384198 -0.00367698 0.00448831 -0.00218155 0.000544089 0.00430809 0.5 0.00739129 -0.00125581 -0.00863177 -0.00195872 -0.00197262 0.0158436 
689 2 3.51746 0.100151 5.69581 0 1 0 0.00326382 0.00528219 0.000396538 -0.00293464 -0.00387871 -3.45331e-05 -0.00184493 -0.00371134 -0.00264695 0.5 -0.0135162 -0.0433784 -0.0359435 -0.00639404 0.0019991 0.0311065 
450 1 0.613262 4.80198 4.46826 1 0 0 0.0102016 -0.00552307 -0.000451527 -0.00964604 0.00487781 0.00292337 -0.00984687 -0.00143353 0.000126054 0.5 -0.00540329 -0.0144719 -0.0276994 4.65983e-05 -0.00433612 0.0165103 
549 2 4.49952 0.501853 5.01272 0 0 0 0.000437791 -0.00252489 0.00282494 -0.00113028 0.00299629 -0.00232881 -0.00128841 0.00208609 -0.00461652 0.5 0.00950214 0.0125843 0.00817095 -0.0064837 -0.00555659 0.00534377 
591 2 1.4417 1.12868 4.41051 0 0 0 0.00781964 -0.004888 -0.0123019 -0.00489612 0.00229335 0.0113851 -0.00243163 0.00104763 0.00230343 0.5 -0.00562797 -0.00932894 -0.00884587 0.00296972 0.00143111 0.00788731 
243 1 1.20226 1.83384 5.34654 0 1 0 0.00111672 0.00707674 -0.00560157 -0.000957215 -0.0071591 0.00662063 -0.00100373 -0.00131284 0.0026161 0.5 -0.00457624 -0.00678379 -0.00337515 0.000872396 5.92256e-05 0.00698391 
646 2 3.73617 3.12619 4.10241 0 0 0 0.00897364 -0.00498067 0.0121783 -0.00768965 0.0047798 -0.0108842 -6.22066e-05 0.00118414 -0.00111865 0.5 -0.0065196 -0.0196123 -0.0129122 0.00364554 0.00207674 0.013258 
374 1 0.579266 2.63622 4.80839 1 0 0 0.0030539 -0.000309538 -0.00325987 -0.00271645 -0.000787976 0.00374749 -0.00362204 -0.00231961 -0.00158668 0.5 -0.00409752 -0.00880956 -0.00457746 -0.00299106 0.00534963 0.00667818 
418 1 0.656081 4.36615 5.37111 1 0 0 0.00268718 0.014897 0.00841116 -0.00206458 -0.0165287 -0.00650695 -0.00735853 -0.00217972 -0.00517989 0.5 -0.0065636 -0.0215652 -0.0293687 -0.00601247 0.00411645 0.0150886 
190 1 2.16435 2.43825 6.02088 0 1 0 -0.00422548 0.00931855 0.0117476 0.00394557 -0.00849277 -0.010097 -0.00208761 -0.0045072 -0.00180079 0.5 -0.00308248 -0.00985166 -0.0131601 -0.000714845 0.00287306 0.0104974 
507 2 3.66632 1.47649 4.57376 0 0 0 -0.00140662 -0.00602553 0.00217995 0.000471293 0.00578985 -0.00246652 0.000853375 -0.00160972 -0.000787342 0.5 -0.00973198 -0.00870917 -0.0179453 -0.0119893 0.00383577 0.0289816 
155 1 4.86725 3.4158 4.87252 0 0 0 0.00646501 -0.00497063 0.00977965 -0.00598105 0.00457734 -0.00917861 -0.00141648 0.000515054 -0.000819734 0.5 -0.00931941 -0.0214993 -0.0260656 0.000864494 -0.00414324 0.0207753 
573 2 2.49507 2.82926 5.15923 0 0 0 0.00690604 -0.00147528 0.0117424 -0.00652955 0.00141498 -0.0101348 -0.00403959 -0.00485284 -0.00268594 0.5 -0.00162564 -0.0115953 -0.0108711 -0.0056814 0.00772717 0.0118996 
678 2 3.20943 3.97688 4.07366 0 0 0 0.00546251 -0.00729858 0.0137223 -0.00503624 0.00655238 -0.0121725 -0.000221619 -0.00160127 0.000420644 0.5 -0.0165669 -0.0107354 0.00047628 -0.000392587 0.0137195 0.00971957 
513 2 3.45966 2.4358 4.77091 0 0 0 0.00460614 -0.00602486 0.00930101 -0.00461038 0.00574942 -0.00860332 0.00190731 0.000282493 -0.00447614 0.5 -0.00171452 0.00136017 -0.0171739 -0.00814702 0.00564399 0.0248232 