ITEM: TIMESTEP
126000
ITEM: NUMBER OF ATOMS
1000
ITEM: BOX BOUNDS xy xz yz pp pp pp
0.0000000000000000e+00 1.0000000000000000e+01 0.0000000000000000e+00
0.0000000000000000e+00 1.0000000000000000e+01 0.0000000000000000e+00
0.0000000000000000e+00 1.0000000000000000e+01 0.0000000000000000e+00
ITEM: ATOMS id type x y z ix iy iz vx vy vz fx fy fz omegax omegay omegaz radius c_2[1] c_2[2] c_2[3] c_2[4] c_2[5] c_2[6] 
120 1 3.15874 1.54092 0.0719942 0 1 0 -0.000354943 0.000964837 0.000463457 0.000330727 -0.00090819 -0.000410791 0.000475861 -0.000149401 -0.000352108 0.5 -0.000334872 -0.00191377 -0.000137752 -0.000231255 -3.72772e-05 -0.000381054 
525 2 2.11648 1.23516 1.70078 0 0 0 -0.000304264 -0.00136947 -0.00152143 0.000236085 0.00114636 0.00134404 -0.000204064 -7.9572e-05 0.000345131 0.5 -1.44764e-05 -0.000128757 5.75266e-05 0.000147333 0.00012891 -9.881e-05 
371 1 4.95909 3.6838 1.58297 0 0 1 0.000344853 -0.000883098 0.00130305 -0.000277355 0.000752561 -0.00116353 0.000150702 -1.17308e-05 6.20585e-05 0.5 -1.524e-05 -0.000809272 0.000858184 -0.000109873 -9.99176e-05 3.85958e-05 
18 1 1.98128 2.69189 0.531838 0 0 0 -0.000170702 0.000149298 0.00112024 0.000147604 -0.000177668 -0.000968052 0.000719217 -0.000327523 0.00026313 0.5 -7.52926e-05 -0.00131134 -0.000729765 0.000979733 0.000891102 -0.000846996 
94 1 2.46191 3.50136 2.00412 0 0 1 -6.16633e-05 -0.0011111 0.00123852 8.68675e-05 0.000940268 -0.00107117 0.000276182 -0.000128912 4.55455e-05 0.5 0.000396794 0.000315347 0.000243038 0.000311013 0.000412713 0.000560422 
25 1 1.41557 0.708859 1.08421 0 0 0 -0.000121273 -0.000202728 -0.00174645 7.51333e-05 0.000124872 0.00158608 0.000577925 -9.8304e-05 0.00024254 0.5 -0.000739184 -0.00374107 -0.0017922 0.00136718 0.0010777 -0.00153402 
378 1 4.61919 2.40694 0.0719644 0 0 1 -4.81712e-06 0.000465831 0.00106623 2.54111e-05 -0.000444251 -0.000962144 0.000764515 0.000207234 -0.000131908 0.5 -0.000397926 -0.000930305 -0.000457516 -0.000506982 -0.000263047 -0.000998956 
8 1 3.44138 2.06843 1.74224 0 0 0 8.40843e-05 -0.000760532 0.000524342 -7.49642e-05 0.00062886 -0.00048417 0.000586008 -0.000238893 6.97266e-05 0.5 -0.00027683 -0.000291432 0.000166058 0.000330627 0.000502259 -4.8588e-05 
629 2 4.07695 2.61586 1.19745 0 0 1 0.000305546 -0.000407688 0.00113853 -0.000262269 0.000314873 -0.00101858 0.000737574 -0.000132502 -1.32383e-05 0.5 -0.00090386 -0.000528709 -0.00093312 8.77492e-05 -0.000346088 -0.000230361 
5 1 2.34668 3.90133 1.05268 0 0 0 -0.00032459 -0.00136684 0.00126682 0.000319962 0.00115943 -0.00108636 -5.6918e-06 5.91679e-05 0.000365363 0.5 -0.000147053 -0.000230491 -0.000307787 0.000231684 0.000153919 -0.000134353 
650 2 0.45965 3.43733 1.12989 0 0 0 -0.000902444 -0.00109531 -0.000468649 0.00083151 0.00095163 0.000534166 0.000607023 0.000217861 7.37096e-05 0.5 -0.00116724 -0.00139361 -0.00118008 0.000844589 0.00095555 -0.000718515 
14 1 3.29512 3.13415 1.54403 0 0 0 2.93267e-05 -0.000845627 0.00117093 -6.34127e-07 0.000713569 -0.00102554 0.00039566 6.87844e-05 3.58445e-05 0.5 2.57169e-05 -0.000342832 -0.000439077 0.000281327 9.7133e-05 -0.000505406 
264 1 3.99622 3.86846 1.37875 0 0 0 0.000331948 -0.000926173 0.00132567 -0.000266899 0.000770829 -0.00119364 0.000511363 0.000109749 2.09993e-05 0.5 -0.000137633 -2.24122e-06 -0.000640191 0.000273459 0.000254759 -3.60593e-05 
223 1 0.748074 2.47867 1.14573 0 0 1 -0.00074025 -0.00101822 -0.000167872 0.000658531 0.00087316 0.000195505 0.000787429 -0.00027039 0.000227473 0.5 -0.000847911 -0.00175084 -0.00479059 0.000533587 0.00187744 -0.00122757 
364 1 4.42281 4.2367 0.538858 0 0 1 -0.00019924 0.000424532 0.00167063 0.000193771 -0.00041356 -0.00149341 0.000451218 3.21973e-05 0.000301051 0.5 0.000104502 -4.43447e-05 -2.17257e-05 -1.90529e-05 0.000279021 -0.00016607 
107 1 1.66106 1.61822 0.748091 0 0 1 -0.000479224 0.000108038 -0.00114631 0.000412836 -0.000143811 0.00108384 0.000837569 -5.21341e-06 7.69101e-05 0.5 0.000762207 -0.000724587 -0.000617697 -0.000133261 7.10821e-05 -0.000545791 
529 2 2.67252 2.19979 1.0618 0 0 0 0.000232674 -0.000262551 0.000219722 -0.000215383 0.00017698 -0.000176256 0.000753338 -0.000125253 0.000168418 0.5 3.86589e-05 -0.000198599 -0.000347828 8.00075e-05 0.000266583 -9.01845e-05 
515 2 4.3864 0.43645 1.64406 0 0 0 4.99652e-05 -0.000890438 -0.00032634 -4.62021e-05 0.000760261 0.000279221 0.000460558 4.86815e-05 -5.74541e-05 0.5 -0.00113052 -0.000819578 -0.00127947 -0.0012767 0.000614235 0.000462224 
244 1 4.11369 0.570393 0.682831 0 1 1 6.26003e-05 0.000123334 -0.000162886 -5.13123e-05 -0.000134611 0.000130278 0.000659036 0.000158905 -0.000155934 0.5 -0.00062923 -0.000571928 -0.00095714 -0.000319192 0.000459298 0.000273961 
20 1 2.90172 0.571233 1.78418 0 0 0 0.00012724 -0.000661689 -0.000580959 -0.000124006 0.000544482 0.000502044 0.000318073 -0.000226907 6.44915e-05 0.5 -0.000924725 -0.00162477 -0.00221818 5.99578e-05 0.00118103 -0.00120603 
280 1 4.09066 1.58217 1.1461 0 0 0 0.000194402 -0.000239544 0.000290003 -0.000168356 0.000164611 -0.000276323 0.000652623 -9.2451e-05 -7.1521e-05 0.5 -0.00102106 -0.000751164 -0.00202171 -6.07684e-05 0.00124895 0.000199074 
620 2 1.39496 4.37132 0.857291 0 0 1 -0.000706354 -0.000823325 0.000510103 0.000732167 0.000704145 -0.000343631 0.000620807 0.000281558 -6.29544e-05 0.5 -0.000250057 -0.00144176 -0.00253557 -0.000118393 7.9609e-05 0.000468829 
1000 2 3.60311 2.39803 0.339246 0 1 1 0.00031115 0.000420965 0.000984169 -0.00022393 -0.000439364 -0.000894427 0.000592271 -3.90179e-05 -9.20308e-05 0.5 -0.000592232 -0.00154634 -0.000629514 -0.000365054 -0.000436517 -0.000226149 
103 1 3.28433 3.68337 0.698033 0 0 1 -5.46045e-05 -0.000260142 0.00154928 6.4693e-05 0.000170867 -0.00137685 0.000571529 -1.08259e-05 0.00027565 0.5 2.30498e-05 0.000161296 -0.000181786 0.000109678 0.000265361 -0.000200687 
622 2 0.931039 4.80379 0.0841475 0 0 1 -0.000765413 0.000142406 0.00108538 0.000813434 -0.000172271 -0.000881402 0.000918732 -0.00025971 0.000215425 0.5 2.95262e-05 0.000182061 -0.0011769 -0.000120379 -0.000406548 0.00023649 
506 2 0.744011 1.45195 1.18326 0 0 0 -0.000732335 -0.00104514 -0.00158495 0.00062021 0.000896926 0.0014485 0.000697739 -7.96599e-05 0.000454309 0.5 7.4673e-05 -0.00219158 -0.000240873 0.00251149 0.000677371 -0.00135786 
626 2 1.28864 3.41676 0.566364 0 0 1 -0.00084129 -0.000503355 -0.000335375 0.000777434 0.000426404 0.000416881 0.000205081 -0.000449842 0.00030303 0.5 -0.000969042 -0.00146332 -0.000309491 0.000669341 0.000842787 -0.000518607 
553 2 0.744012 0.0778938 1.56437 0 0 0 9.96574e-05 -0.000805637 -0.00227814 -0.000139046 0.000699902 0.00207848 5.9906e-05 -0.000350611 0.000524328 0.5 0.000199615 0.000191886 0.000162483 -7.9679e-05 0.000159327 -0.000267611 
135 1 1.54745 3.20545 1.67722 0 0 0 0.00039255 -0.00120739 -0.000273597 -0.000331756 0.00105646 0.000299866 0.000424375 -0.00078244 -3.15603e-05 0.5 0.000124404 -0.00335548 -0.00049813 0.000804519 0.000393761 -0.000148914 
624 2 4.32449 4.92134 1.47071 0 0 1 0.000155468 -0.0006214 0.00147829 -0.000105145 0.00056261 -0.00135308 0.000364158 0.00018943 7.11769e-05 0.5 0.000182313 0.0001502 -0.00106095 5.62323e-05 -0.000321308 -0.000608729 
256 1 4.58709 1.36774 0.304923 0 0 0 0.000168096 0.000203085 0.000161039 -0.000138197 -0.000210064 -0.000162343 0.000716219 0.000165062 -0.000329206 0.5 -0.0005251 -0.000847866 -0.0019465 -0.000577285 0.000830378 -0.000610275 
260 1 3.31851 0.0702587 1.02568 0 0 0 3.67123e-05 -0.000314595 -0.000860853 -1.85305e-05 0.000245322 0.000758522 0.000373964 0.000311081 -0.000256236 0.5 -0.00069447 -0.00164366 -0.00157153 -0.000198402 0.000481669 -0.000888274 
616 2 3.19085 4.48129 1.50584 0 0 1 0.000336701 -0.00112379 0.0013711 -0.000268709 0.000939739 -0.00125249 -2.19209e-06 4.32998e-05 7.96481e-05 0.5 -0.000423082 -0.000176255 -0.000224315 0.000293818 0.000140984 -0.000143357 
106 1 1.74508 2.23634 1.52967 0 0 1 0.000247856 -0.00125709 -0.000144482 -0.000233557 0.00109678 0.000169806 0.000651 -0.000297226 -0.000138468 0.5 9.21368e-06 -0.00183925 -0.000520291 0.000421671 0.00076405 -0.000505412 
157 1 1.38955 4.1796 1.83873 0 0 0 0.000209996 -0.00135009 0.00041273 -0.000130777 0.00118026 -0.000256549 0.000520785 0.000194849 7.403e-05 0.5 -0.000836594 -0.00252132 -0.00277793 0.000455216 0.00100614 -0.000552768 
516 2 2.34691 0.890139 0.688327 0 0 0 3.64194e-05 0.00054897 -0.000651687 -5.65669e-05 -0.000543365 0.000613042 3.87043e-05 -0.000473074 -0.000164135 0.5 0.000142361 -0.000388436 -0.000144549 7.06273e-05 0.000657706 -0.000593844 
183 1 0.415622 4.58302 1.00296 0 0 0 -0.000746782 -0.00138506 0.00127562 0.000795775 0.00126741 -0.000966998 0.00112895 0.000293048 0.000233285 0.5 0.000162837 -0.000121408 1.45814e-05 6.60165e-05 -0.000107592 2.37448e-05 
625 2 0.400361 3.91215 0.209821 0 0 1 -0.000747692 3.71977e-06 0.000175981 0.000722028 2.05298e-05 2.23632e-06 0.00122175 -0.000133689 -0.000215505 0.5 -9.36145e-05 -2.38295e-05 -0.000323985 -7.24245e-05 -0.000119855 0.000171444 
91 1 2.22047 4.71756 1.6958 0 0 1 0.000288903 -0.00132217 0.00104644 -0.000198591 0.00113448 -0.00087886 0.000140959 -0.000254889 -6.82159e-05 0.5 -0.000626908 -0.000673854 -0.000245087 -0.000291494 0.000326509 -0.000133681 
257 1 4.94025 2.69178 1.70764 0 0 0 0.000306278 -0.000910855 0.0010773 -0.000270456 0.000777446 -0.000965373 0.00038145 5.61091e-05 -7.25573e-05 0.5 -0.000958634 -0.000833332 -0.00247101 -3.19248e-06 -0.000588606 -0.000489056 
4 1 3.72167 1.12831 1.95719 0 0 0 0.000120191 -0.000887942 -0.00010602 -0.000111684 0.000744165 7.28994e-05 0.000491981 -5.82514e-05 -3.32159e-05 0.5 -0.00033697 -0.000481006 -0.00155579 -0.000602245 0.000577163 0.000841238 
522 2 2.5838 2.5087 2.00875 0 0 0 -0.000109627 -0.00112108 0.000467866 0.000106459 0.000946689 -0.000397846 0.000489877 -0.000302346 0.000146454 0.5 -0.000603012 -9.46981e-05 -0.000329259 0.000609141 0.00092274 2.18967e-05 
117 1 3.12733 1.31396 1.15373 0 1 0 0.000210843 -0.000310973 -0.000137975 -0.000181634 0.000223508 0.000103653 0.000610495 -0.000175869 -6.32372e-05 0.5 0.000100703 -0.000355965 0.000225413 -5.08018e-05 0.000432093 0.00019641 
511 2 1.08095 2.25006 0.23089 0 0 0 -0.000274688 0.000867609 -0.000471107 0.000250433 -0.000812069 0.000471479 0.00112745 -0.000131627 -0.000234554 0.5 -0.000507012 -0.00173578 -0.00451864 0.000446329 0.00197162 -0.000905268 
911 2 0.492076 0.563836 0.698821 1 0 0 -6.54852e-05 -0.000341831 -0.00208595 2.46335e-05 0.000274343 0.00189526 0.000148979 -0.000176848 -0.000100798 0.5 0.000419329 -0.00142152 4.76247e-05 -0.000132684 0.000182991 -0.000599184 
668 2 0.00214574 3.82105 1.93277 0 0 0 5.42226e-05 -0.00216753 0.000554369 -6.75495e-05 0.00190776 -0.000407355 0.000202327 0.00033864 -0.000115856 0.5 -0.00154778 -0.00435192 -0.00163959 0.00128192 -0.000183611 -0.000246428 
90 1 2.94009 4.58033 0.419249 0 0 1 -0.000405748 -0.0002633 0.00195112 0.000416554 0.000193842 -0.00172369 0.000395782 -0.0001892 0.000319474 0.5 -2.60513e-05 0.00144525 0.000427913 0.00081172 0.000674207 0.000635083 
734 2 4.13723 3.24488 0.373921 0 1 1 0.000308098 0.000376795 0.00174593 -0.000254031 -0.000379009 -0.00156049 0.000673447 7.87333e-05 1.00142e-05 0.5 -0.000308686 -0.000459133 -0.000244846 -0.000195912 0.000310439 -0.00011586 
672 2 0.0681014 1.98663 1.69047 0 0 0 -0.000913211 -0.0017533 -0.00107771 0.000780036 0.00154291 0.000978306 0.000706417 -7.77608e-05 0.000257111 0.5 -0.00297439 -0.00470855 -0.00199592 0.00186036 0.00172787 9.07367e-05 
759 2 4.95846 2.03892 0.950381 0 0 0 0.000354572 -0.00039606 0.000634289 -0.00031879 0.000322598 -0.000573744 0.000655088 2.37938e-06 -0.000160746 0.5 -0.000257097 -0.00139541 -0.00039092 -0.000460145 3.3152e-05 -0.00042169 
609 2 1.99637 4.76026 0.136023 0 0 1 -0.000264891 -0.000320793 0.00148804 0.000277421 0.000204741 -0.00128799 0.000359508 -0.000446748 0.000183056 0.5 -0.00262907 -0.00858676 -0.00144389 0.00221604 0.001101 -0.00170548 
868 2 2.87002 3.00633 0.028244 0 0 1 1.5056e-05 9.72028e-05 0.00111197 1.00399e-05 -0.000174649 -0.000968312 0.000608268 -0.000147398 0.000259461 0.5 -0.000584556 -0.00131221 -6.81781e-05 0.000941649 0.000175606 -7.05538e-05 
21 1 1.84583 0.357581 2.43198 0 0 0 -0.000279109 -0.00138401 -0.00141826 0.000224827 0.00121297 0.00127661 0.000300645 -0.000492131 0.000410679 0.5 9.92093e-05 0.000221342 -1.69785e-05 -3.10369e-05 0.000161571 -0.000314369 
682 2 2.7304 4.08419 2.77188 0 0 0 0.000295892 -0.000991984 0.00103659 -0.000243585 0.00087489 -0.000918686 7.442e-05 -6.25974e-05 -5.47636e-05 0.5 -0.00156615 -0.0014531 -0.00062145 0.000371575 0.00133427 0.00122956 
907 2 0.981899 4.62606 2.63528 1 0 0 0.000336456 -0.0016795 0.000663116 -0.000293675 0.00144971 -0.000492244 6.35365e-05 -0.000232718 7.64718e-05 0.5 -0.00186449 -0.00262306 -0.00235628 0.000536163 0.00134779 -0.000911734 
144 1 1.68478 3.60156 2.81083 0 0 0 0.000486983 -0.00153835 4.73963e-05 -0.000437749 0.00132195 -2.15745e-05 1.82432e-05 -5.17183e-05 -0.000131382 0.5 -8.78461e-05 -0.000355931 -0.000308304 0.000268576 0.000310754 -0.000131051 
675 2 2.83076 4.73904 3.54475 0 0 0 0.000589637 -0.000947292 0.00112212 -0.000585485 0.000873587 -0.0010024 -0.000170894 -6.17513e-06 -0.000157511 0.5 1.03573e-05 0.000184167 0.000341504 0.000165664 4.72758e-05 0.000420356 
502 2 4.38939 1.31186 3.26924 0 0 0 0.00027505 -0.0010839 -3.5551e-05 -0.000267352 0.00100468 1.19387e-05 0.000208971 9.06245e-05 -0.000145391 0.5 -0.00120587 -0.000810438 -0.000706441 -0.000728277 0.000847951 0.00122165 
27 1 2.6089 0.301382 3.2111 0 0 0 0.000346481 -0.00107252 -0.000724265 -0.000354661 0.000941312 0.00062972 -5.01844e-05 -0.000165238 8.64e-05 0.5 -0.00121332 -0.00130141 -0.00265095 0.000427022 0.00110348 0.00016796 
965 2 1.3554 3.65913 3.79907 1 0 0 0.00063754 -0.00162647 -0.000221822 -0.000598411 0.00135982 0.000223173 -0.000184121 0.00021119 -0.000327759 0.5 -0.000449608 -0.00119265 -0.00148219 0.0006662 -0.000344822 0.000797234 
61 1 1.66167 0.449458 3.51459 0 0 0 2.28923e-05 -0.00137078 -0.00178402 -8.14594e-05 0.00115937 0.0015629 -0.000156076 -0.000169642 0.000212936 0.5 -0.000964377 -2.46217e-05 -0.00016643 0.000131188 0.000695271 -7.84487e-05 
680 2 1.19024 2.78241 3.34707 0 0 0 -0.000212227 -0.00143969 -0.000268079 0.000166322 0.00119438 0.000260195 6.233e-05 0.000161919 -7.26982e-05 0.5 -9.43947e-05 -0.000409053 -0.000653206 4.33586e-05 0.000356585 0.000211473 
251 1 4.71371 3.03454 3.89491 0 0 0 0.000868707 -0.0012681 0.00111919 -0.00079073 0.00117734 -0.00102071 0.000320455 0.000244072 -0.000389205 0.5 -0.00116906 -0.000364948 3.2941e-05 -0.000982713 0.000442022 0.000744694 
517 2 4.00877 2.89431 2.21768 0 0 0 0.000181863 -0.00122286 0.00089724 -0.000114128 0.00111034 -0.000791245 0.000128097 0.000222579 -0.000224219 0.5 3.13566e-05 -4.19977e-05 -0.00017124 -6.16939e-05 4.44928e-06 0.000143283 
6 1 3.42171 1.78036 2.73228 0 0 0 0.000161331 -0.000813901 0.000584602 -0.000169822 0.000714251 -0.000530724 0.000439308 -0.000181233 0.000155329 0.5 -0.00178926 -0.00015836 9.29713e-05 0.000285081 0.000863556 0.000214008 
519 2 4.43328 3.61466 3.03007 0 0 0 0.000282246 -0.00103036 0.00146661 -0.000249255 0.000966973 -0.00131583 0.000188775 0.000148731 -6.32604e-05 0.5 -3.262e-05 0.000581407 0.000301813 -0.000430748 3.46397e-05 0.000197514 
509 2 1.93583 1.51677 3.62425 0 0 0 0.000658375 -0.00104121 -0.00157258 -0.000605749 0.000808126 0.00137998 -0.00022103 0.00051097 9.54858e-05 0.5 0.000174067 -0.000184302 -0.00141898 -0.000142203 0.000290918 0.000395857 
142 1 1.0356 1.94298 2.17053 0 0 0 -0.000360043 -0.00134141 -0.000862128 0.000288005 0.00117455 0.000788073 0.000571249 -6.47902e-06 0.000131507 0.5 -6.42239e-06 -0.000265436 -0.000442829 5.93531e-05 3.99628e-05 0.000494581 
941 2 0.192631 2.25965 2.77389 1 0 0 -0.000696551 -0.00207541 -0.000785571 0.000594399 0.00182511 0.000721693 0.000285648 3.85115e-05 6.34497e-05 0.5 -0.000313374 -0.000858816 -0.00139959 -4.32525e-05 0.000240897 0.000215952 
919 2 0.650294 4.31665 3.53355 1 0 0 0.000186609 -0.0018435 0.000436676 -0.000195696 0.00157554 -0.000309232 0.000238189 3.45181e-05 -0.000277707 0.5 -0.00092697 -0.00175234 -0.00101421 0.00092622 7.27423e-05 0.000560787 
95 1 3.53879 3.77879 2.26865 0 0 1 0.000406374 -0.00112811 0.00129577 -0.000350626 0.00100891 -0.00117104 0.000127888 -8.2414e-06 -5.02475e-05 0.5 -0.00135526 -0.000529448 -0.00148459 -2.63464e-05 0.000691555 -0.000294302 
458 1 1.55668 4.75438 3.86392 1 0 0 0.000388604 -0.00128328 0.0012465 -0.000349086 0.00113243 -0.00108449 -0.000375455 4.04716e-05 5.0864e-05 0.5 -0.000244148 -0.000106224 -0.000168767 0.000196542 -1.17803e-05 -7.55735e-05 
41 1 1.14058 0.961201 2.01195 0 0 0 -0.000183351 -0.00121775 -0.00148828 0.000129064 0.00106332 0.00134648 0.000522894 -2.47088e-05 0.000226047 0.5 -0.000368597 -0.000238518 -0.00075607 0.000139495 0.000813505 -0.000567473 
814 2 0.271025 1.22844 3.40424 1 0 0 0.000195195 -0.00147423 -0.00129937 -0.000204927 0.00123286 0.00116889 0.000206239 -0.000148155 0.000590067 0.5 -0.00125652 -0.00124048 -0.0012844 0.00053304 0.000678895 0.00137571 
130 1 1.70541 2.64836 2.50053 0 0 0 -0.000372193 -0.00140617 -0.00037101 0.000335962 0.00119963 0.000362889 0.00041953 -0.000191208 -0.000207641 0.5 -0.000747258 -0.00156899 -0.00129238 0.000553963 0.000640598 0.000785385 
12 1 2.70237 1.09627 2.61158 0 0 0 0.000351966 -0.000838553 -0.000413946 -0.000320829 0.000720115 0.000342541 0.000260537 -0.000417587 0.000183074 0.5 -0.00116034 -0.00197044 -0.0014569 0.00041023 0.000901875 -0.00011625 
512 2 3.186 2.0318 3.78728 0 0 0 0.000636491 -0.000224107 0.000282099 -0.000594077 0.000209384 -0.000214118 0.000337852 -0.000161113 0.000173336 0.5 -0.000283069 -0.000767247 -0.000470333 -9.69707e-06 9.50352e-05 0.000729618 
151 1 2.47912 3.30122 3.34092 0 0 0 0.000196322 -0.00123338 0.000661668 -0.000158274 0.00109696 -0.000576891 -3.36833e-07 -0.000165938 6.51173e-05 0.5 2.45586e-06 -0.00242569 -0.00179807 -0.000103014 0.000921299 0.000882989 
667 2 0.284455 1.32183 2.40786 0 0 0 -0.000194131 -0.00170708 -0.00130799 0.000137656 0.00150069 0.00118259 0.000341163 0.000111184 0.000341302 0.5 -0.000602671 -0.00268665 -0.00194449 4.91459e-05 4.63594e-05 0.000437852 
38 1 3.79013 0.738382 3.873 0 0 0 0.000525514 -0.000431613 -0.000260558 -0.000493691 0.000424222 0.000231567 -0.000375545 -6.55098e-05 -0.000110972 0.5 -0.00138431 -0.000555899 -0.00307633 -0.00151049 0.00102539 0.0021844 
936 2 0.320262 3.37044 3.50688 1 0 0 -0.000561067 -0.00155367 -0.00013136 0.0004548 0.00132324 0.00016858 0.000260769 -0.000320338 -0.000185887 0.5 7.84095e-05 -0.00187156 -0.000689473 -3.21089e-05 0.000850164 0.00127077 
531 2 4.8002 0.809069 2.48032 0 0 0 -9.8436e-05 -0.00148785 -5.58993e-05 6.21392e-05 0.00133143 3.76339e-05 0.000122391 7.96579e-05 -0.000235787 0.5 -0.000368751 -6.91556e-05 -0.000835363 -0.000454803 -0.000647414 -0.000458021 
527 2 4.02985 4.31569 3.61812 0 0 0 0.000704683 -0.000931706 0.00164585 -0.000673307 0.00086727 -0.00149238 -0.000125912 2.67572e-05 4.80831e-05 0.5 -0.00169414 -0.000430105 3.13123e-05 -0.000966673 0.000555292 0.000765332 
383 1 4.36284 4.34497 2.28811 0 0 1 0.000140282 -0.000743951 0.00139839 -0.000120985 0.000677709 -0.0012766 0.000116029 1.66044e-05 7.71793e-05 0.5 -0.00113397 -0.000229411 0.00037937 0.00027085 -0.000122711 -0.000344149 
992 2 0.695499 0.440246 3.8536 1 1 0 0.000369097 -0.0014687 -0.00155482 -0.000391623 0.0012021 0.00138382 -0.000111914 0.00030964 0.000211849 0.5 -0.00100317 -0.00227072 -0.000374255 0.000693804 -0.000293228 0.00108509 
521 2 4.93584 4.52837 3.24951 0 0 0 0.000573195 -0.000719746 0.00147809 -0.000555026 0.00067087 -0.00134806 -9.52229e-05 0.00020608 0.000139797 0.5 -0.000497382 -0.000415405 -0.000628905 -0.000320248 3.1723e-05 0.000967934 
136 1 1.88507 1.67235 2.62348 0 0 0 -0.000121887 -0.00148977 -0.00139718 7.63298e-05 0.00126297 0.00123729 6.33543e-05 0.000231947 0.000185753 0.5 -0.00130978 -0.0016768 -0.00118765 0.000923674 0.00014096 0.000450359 
540 2 4.51116 0.179266 3.41511 0 0 0 0.00025586 -0.00119104 -0.000176409 -0.000248497 0.00110867 0.000143553 -0.000467603 0.00013644 -0.000256582 0.5 0.000398659 0.000316265 6.20837e-05 -0.000371224 -0.000199896 0.000303946 
510 2 3.85492 2.56902 3.17025 0 0 0 0.000248488 -0.00102683 0.000903448 -0.000263341 0.00091848 -0.000823569 0.000100242 4.79442e-05 -2.20193e-05 0.5 0.000690801 0.000674095 -0.000332511 -0.000135625 0.000104805 0.000509022 
19 1 4.36545 1.84767 2.40849 0 0 0 0.000130849 -0.000306331 0.00059978 -0.00015388 0.000273151 -0.000574194 0.000376387 5.31715e-05 -0.000145698 0.5 -0.00235548 -6.62428e-05 -0.00110434 9.07854e-05 0.00108684 0.0001781 
543 2 1.07314 1.788 3.19567 0 0 0 0.000225094 -0.00137797 -0.000927079 -0.00022514 0.00113659 0.000834379 0.000311001 0.00032533 0.000172473 0.5 -0.000320855 -0.000311483 -0.000196367 -0.000413653 0.000382222 0.000260561 
773 2 4.78761 2.22836 3.30716 0 0 0 0.000255619 -0.00111009 0.000805591 -0.000256829 0.00103042 -0.000734556 0.000180735 0.000225327 -0.000147642 0.5 -0.000359869 -0.00173686 -0.00329549 -0.000612817 0.0011911 0.00291902 
555 2 2.23881 2.5063 3.89803 0 0 0 0.000469493 -0.00121387 0.000807879 -0.000440501 0.00109646 -0.000700014 -5.60044e-05 -1.47943e-05 2.70752e-05 0.5 -0.000151359 0.000104615 0.000206855 -0.000174951 0.000342988 0.000747318 
429 1 0.307183 2.40212 3.75704 1 0 0 -0.0004025 -0.00171875 -0.00087125 0.000323509 0.00146495 0.000805117 0.00015323 8.76011e-05 0.000378713 0.5 -0.000531835 -0.00301011 -0.00185814 0.000718276 -0.000446195 0.00175033 
316 1 0.889826 0.513855 2.8709 1 0 0 -0.000117449 -0.00160839 -0.0016764 2.19052e-05 0.00139894 0.00149404 9.04267e-05 1.64748e-05 0.000252232 0.5 0.000230657 -0.000282282 4.29799e-05 0.000148073 0.000124222 0.000252589 
503 2 3.61676 0.769411 2.88635 0 0 0 0.000218973 -0.00104132 -0.000183002 -0.000202132 0.000928163 0.000158695 1.28573e-06 4.03826e-05 2.53628e-05 0.5 0.000128342 0.000293424 -0.00191331 -9.30118e-06 1.5523e-05 0.000442265 
896 2 0.701996 3.66604 2.63004 1 0 0 0.000436257 -0.0017067 0.000273819 -0.000399854 0.00147918 -0.000169874 0.000160039 3.42705e-05 -0.000140874 0.5 -0.00050872 -0.00120344 -0.00180137 0.000119416 -0.000223161 0.00028192 
690 2 1.93662 4.67167 2.92927 0 0 0 0.000157201 -0.00121546 0.00117394 -0.000117702 0.00106763 -0.00100596 -5.04409e-05 -7.56416e-05 0.000168533 0.5 -0.00135902 -0.000831643 -0.000161327 0.000827944 0.000133178 -0.00021716 
641 2 3.45934 3.50102 3.22647 0 0 0 0.000242136 -0.000920528 0.00133538 -0.000211003 0.000845073 -0.00120149 -9.2917e-05 9.57902e-06 8.28104e-05 0.5 0.00048672 0.000432396 -0.000560675 -0.000103683 -0.000156003 0.0009351 
528 2 3.34243 4.80279 2.44167 0 0 0 0.000536886 -0.00106849 0.00131613 -0.000480356 0.000939743 -0.00121524 0.000134429 7.8623e-05 -1.47955e-05 0.5 -0.000237109 -0.000479663 -0.000539067 -0.000404952 6.77402e-05 0.000112562 
225 1 2.6667 2.38055 2.99765 0 0 1 -0.000186145 -0.00121937 0.000464026 0.000150518 0.00107331 -0.000387836 -4.86983e-05 0.000230024 0.000242196 0.5 -0.000470029 -0.00134963 3.4997e-05 0.00083815 -0.000111472 -0.000225352 
119 1 0.614892 2.84427 2.06692 0 0 0 -0.000681091 -0.00139465 -9.20629e-06 0.000586547 0.00122991 4.2847e-05 0.000540732 5.83247e-05 -2.42986e-05 0.5 0.000327976 -0.00102757 -0.00225591 0.000127799 0.000798491 -0.000337661 
200 1 2.46491 0.208868 4.19634 0 1 0 0.00102327 -0.000619486 -0.000582304 -0.000956558 0.000556365 0.000504776 -0.00052213 -0.000310792 0.000455511 0.5 -0.00118307 -0.000727251 -0.00201653 -1.68681e-07 0.000822324 0.000464086 
114 1 4.70682 1.0042 4.17135 0 0 0 0.000490427 -0.000661619 5.28407e-05 -0.000464105 0.000647419 -5.90246e-05 -0.000128846 -7.00726e-05 -0.000246399 0.5 -0.00059179 0.000126426 0.000250332 -9.78631e-05 -0.000327318 -0.000189759 
820 2 1.30988 2.2939 4.21139 1 0 0 0.000139599 -0.00102076 -7.98795e-05 -0.000126673 0.00083466 9.71296e-05 -0.000267047 -0.000233086 0.000242971 0.5 -0.000423488 0.000103327 -0.000495389 0.000554448 0.000645417 0.000741956 
47 1 4.65516 1.58226 5.43534 0 0 0 0.00102435 -0.000518477 0.000334081 -0.000952856 0.000547785 -0.00030141 9.4661e-05 0.000270938 3.00688e-05 0.5 -0.000975002 -0.0013233 -0.000582534 -0.000397053 -0.000609975 0.000907051 
824 2 1.64897 3.8316 5.79169 1 0 0 0.000206373 0.000384645 0.00112947 -0.000220457 -0.000309869 -0.000981768 -0.000648063 -3.93746e-06 -0.000281987 0.5 -0.000341627 -0.000255811 -0.00103969 -0.00019549 7.3462e-05 0.000370179 
172 1 3.44233 0.338557 4.72104 0 1 0 0.000653832 0.000403574 0.000187063 -0.000624346 -0.000308519 -0.00016913 -0.000474364 -0.000124289 4.33733e-05 0.5 -0.00126385 -0.001273 -0.0039891 -0.00112194 0.00105376 0.00172719 
718 2 0.202226 2.03678 5.51282 0 1 0 0.000119613 1.52806e-05 -7.32579e-05 -0.000125695 -0.000103093 0.000109865 -0.000377668 -0.000179817 0.000112692 0.5 -0.00144437 -0.000246293 -0.000972437 0.000778833 -0.000835993 0.00215048 
505 2 0.484529 3.50108 5.83337 0 0 -1 -0.000149629 0.00129229 0.00078432 0.000115218 -0.00123348 -0.00068074 6.80682e-05 -0.000317643 0.000440243 0.5 -0.000174765 -0.00336653 -0.00161622 -4.31989e-06 -9.51252e-06 0.00263101 
524 2 3.99417 2.73469 5.70554 0 0 0 0.00204733 0.00077097 0.00211704 -0.00184337 -0.000577845 -0.00187538 -0.000503345 0.00133991 0.000793256 0.5 2.80718e-06 0.000375251 0.000319763 -0.000225769 -0.000263364 0.000214837 
839 2 0.57911 1.61568 4.31163 1 0 0 0.000480549 -0.00155 -0.00106335 -0.000440643 0.00131321 0.000962407 -0.000175581 -3.70081e-05 0.000511818 0.5 -0.000296835 -0.0022935 -0.00137626 0.00110871 -2.14812e-05 0.00227322 
937 2 2.44335 3.38715 4.33682 1 0 0 0.000470602 -0.00104962 0.000638928 -0.000444963 0.000959597 -0.000560792 -0.000287855 -0.000278431 0.000102556 0.5 -0.000650785 6.27138e-05 -0.00175312 0.00011947 0.000713726 0.00101967 
811 2 2.60617 3.94622 5.52454 1 0 0 0.000121418 0.000110756 0.000718262 -0.000150912 -4.51647e-05 -0.000630581 -0.000436587 -0.000418154 -4.02593e-05 0.5 -0.000292984 -0.00118615 -0.000378394 -0.000505542 -0.000119654 0.00102368 
827 2 1.52071 3.18199 4.66339 1 0 0 0.000293419 -0.0010501 0.000138813 -0.000258519 0.000867086 -9.34656e-05 -0.000523543 -0.000334744 -0.000295877 0.5 -0.000696908 -0.000383104 -0.00167462 -0.00023694 0.000456409 0.00113122 
149 1 4.05535 3.93287 4.61798 0 0 0 0.000521553 -0.000277387 0.00142294 -0.000514076 0.000315899 -0.00127692 -2.62819e-05 4.42885e-05 0.000213473 0.5 9.37208e-05 -0.000309728 0.00061277 0.00106599 -0.000445846 0.000452752 
925 2 0.622876 3.59936 4.52302 1 0 0 0.000638019 -0.000418819 -0.000188738 -0.000584592 0.000266151 0.000208323 -0.000454818 8.75526e-05 -0.000200252 0.5 -0.00033511 -0.000694657 -0.000269823 -1.02187e-05 -0.000244088 0.000420101 
168 1 3.33498 4.6036 5.33071 0 0 0 0.000457128 -5.46324e-05 0.00150469 -0.000470015 0.000115644 -0.0013661 -0.000220315 -0.000273991 0.000227709 0.5 -0.00122239 -0.00104971 -0.00121255 -8.30447e-05 -0.000277225 0.000850681 
928 2 1.57455 4.40874 4.97814 1 0 0 0.00027516 5.69992e-05 0.000907696 -0.000257529 2.34388e-06 -0.000772305 -0.000339135 -6.74199e-05 -0.000443514 0.5 -0.000852889 -0.000930351 -0.000840741 -0.000597032 0.000393474 0.000617157 
148 1 3.93967 3.74185 5.74454 0 0 0 0.000336781 0.000728389 0.00196863 -0.000371577 -0.000546177 -0.00177481 -0.000402102 -0.000229395 0.000831547 0.5 0.000334327 0.00101844 0.000742066 0.000505838 0.000546566 0.000510265 
914 2 4.69247 4.38505 5.24316 0 0 0 -1.29552e-06 -0.000109206 0.00184674 -6.04596e-05 0.000206744 -0.00167245 -0.000578958 -0.000460211 -0.000453268 0.5 2.13989e-05 0.000213905 0.000459529 -3.31261e-05 0.000196042 0.000296841 
23 1 2.8775 1.11873 4.0576 0 0 0 0.000438094 -0.000453809 -0.00076832 -0.000423164 0.000412908 0.0007085 4.21815e-05 -0.000230936 6.20891e-05 0.5 -0.00104173 -0.00104795 -0.000729876 -0.000572677 0.000564907 0.000549833 
594 2 2.05555 1.97063 4.80228 0 0 0 0.000530226 0.000448318 0.000162483 -0.00047931 -0.000415675 -8.6347e-05 0.000183467 -0.000191087 0.000486906 0.5 -2.11855e-05 -0.00108446 -0.000181393 0.00051346 -0.00024932 0.000596098 
539 2 3.78418 1.04024 5.46873 0 0 0 0.00066109 0.000790866 0.00066504 -0.000619549 -0.00064095 -0.000596585 -0.00024879 0.000368092 -0.000162971 0.5 -0.000323201 -0.00349506 -0.00145122 -0.00140051 -0.000882462 0.00279546 
730 2 0.461567 1.11578 5.1697 0 1 0 0.000361824 -8.92942e-05 -0.000227949 -0.000348498 4.01381e-06 0.000209942 -0.000225936 -2.57196e-05 0.000553827 0.5 0.000880896 -0.000206186 -0.000818389 1.62623e-05 -0.000213541 0.00161324 
689 2 3.51915 0.103194 5.69614 0 1 0 0.000328455 0.000746705 0.000100126 -0.000306101 -0.000605263 -8.95081e-05 -0.000174559 -0.000343511 -0.000186112 0.5 -0.0015406 -0.00451063 -0.00393214 -0.00064125 0.000163129 0.00330523 
450 1 0.618581 4.79908 4.4687 1 0 0 0.00116209 -0.00060642 0.000271968 -0.000999546 0.000533929 -0.000148526 -0.00097814 -0.000214947 8.75914e-05 0.5 -0.000551677 -0.00148355 -0.00301926 3.59317e-05 -0.000480635 0.0017382 
549 2 4.4995 0.500886 5.01417 0 0 0 -6.25693e-05 -6.26204e-05 0.000310123 2.84195e-05 0.000124571 -0.000282163 -0.000172066 0.000192475 -0.000478292 0.5 0.000995265 0.00143365 0.0010177 -0.000648931 -0.000564589 0.000534602 
591 2 1.44603 1.12553 4.40412 0 0 0 0.00090299 -0.000830267 -0.00133105 -0.00082465 0.000656885 0.00118191 -0.00031962 0.000208799 0.00020563 0.5 -0.000600943 -0.00107637 -0.000873873 0.000297821 0.000119653 0.000849675 
243 1 1.20283 1.83714 5.34403 0 1 0 9.51741e-05 0.000545714 -0.000418416 -0.000103498 -0.00055182 0.00040768 -0.000160458 -0.000170139 0.000318973 0.5 -0.000454689 -0.000577942 -0.000313432 0.000295058 4.78856e-07 0.000771411 
646 2 3.74092 3.12378 4.10873 0 0 0 0.000989499 -0.000415193 0.00131331 -0.000891922 0.000419216 -0.00116703 -3.60919e-05 0.000112994 -7.72766e-05 0.5 -0.000774741 -0.00240149 -0.00173584 0.000397165 0.000149825 0.00161174 
374 1 0.580908 2.63555 4.80693 1 0 0 0.000359578 -0.000339281 -0.000218479 -0.000319818 0.000198755 0.000239161 -0.000343254 -0.000246673 -0.000145462 0.5 -0.000466941 -0.00107302 -0.00055089 -0.000297534 0.000649839 0.000804854 