ITEM: TIMESTEP
173000
ITEM: NUMBER OF ATOMS
1000
ITEM: BOX BOUNDS xy xz yz pp pp pp
0.0000000000000000e+00 1.0000000000000000e+01 0.0000000000000000e+00
0.0000000000000000e+00 1.0000000000000000e+01 0.0000000000000000e+00
0.0000000000000000e+00 1.0000000000000000e+01 0.0000000000000000e+00
ITEM: ATOMS id type x y z ix iy iz vx vy vz fx fy fz omegax omegay omegaz radius c_2[1] c_2[2] c_2[3] c_2[4] c_2[5] c_2[6] 
120 1 3.15852 1.54146 0.0722924 0 1 0 -1.29097e-07 3.04604e-07 2.13282e-07 1.17176e-07 -2.63496e-07 -1.86737e-07 1.82525e-07 8.55584e-09 -1.15824e-07 0.5 -1.55009e-07 -7.96519e-07 -7.07825e-08 -8.91322e-08 -3.18408e-08 -1.86312e-07 
525 2 2.11627 1.23431 1.69988 0 0 0 -2.35879e-07 -6.88385e-07 -5.35229e-07 1.93503e-07 5.85704e-07 4.72812e-07 -7.85432e-08 2.45448e-08 1.99649e-07 0.5 7.79642e-09 -4.96471e-08 2.85831e-08 6.1577e-08 3.58912e-08 -2.40012e-08 
371 1 4.95931 3.68326 1.58374 0 0 1 1.57178e-07 -3.19362e-07 4.69607e-07 -1.35419e-07 2.84611e-07 -4.12717e-07 3.80039e-08 -2.00213e-08 2.4324e-08 0.5 -8.6173e-08 -4.09057e-07 2.86793e-07 -4.77053e-08 -4.45124e-08 5.29621e-08 
18 1 1.98117 2.69195 0.532517 0 0 0 -1.16052e-07 -4.91824e-09 4.8422e-07 9.47827e-08 1.79575e-09 -4.1718e-07 3.00417e-07 -1.05039e-07 9.2766e-08 0.5 -2.0826e-07 -5.85742e-07 -3.43085e-07 4.65533e-07 2.46023e-07 -2.84815e-07 
868 2 2.87004 3.00634 0.0289118 0 0 1 5.97132e-08 -5.7293e-08 4.38374e-07 -4.50539e-08 4.71089e-08 -3.82389e-07 2.56988e-07 -4.90275e-08 1.04331e-07 0.5 -3.59443e-07 -5.94619e-07 -1.12702e-07 4.40121e-07 7.8334e-09 1.68985e-08 
25 1 1.41548 0.708705 1.0832 0 0 0 -1.02298e-07 -2.12223e-07 -5.5953e-07 8.59922e-08 1.73237e-07 4.97661e-07 2.19663e-07 -5.62316e-08 1.16807e-07 0.5 -2.05373e-07 -1.32812e-06 -7.24004e-07 4.64244e-07 3.78839e-07 -5.67281e-07 
378 1 4.61919 2.40719 0.0725813 0 0 1 1.86291e-08 1.73596e-07 3.56345e-07 -1.3969e-08 -1.43747e-07 -3.14781e-07 2.93752e-07 7.81089e-08 -5.32343e-08 0.5 -1.54803e-07 -4.11493e-07 -2.31619e-07 -8.00559e-08 -6.54424e-08 -3.44869e-07 
8 1 3.44143 2.06796 1.74253 0 0 0 2.60808e-11 -3.39741e-07 1.54938e-07 -3.79396e-09 2.95249e-07 -1.38985e-07 2.41707e-07 -7.1361e-08 4.17271e-08 0.5 3.3105e-08 -2.41562e-08 9.58429e-08 1.04817e-07 4.06247e-08 7.43661e-08 
629 2 4.07713 2.6156 1.19812 0 0 1 9.46161e-08 -1.81088e-07 4.23514e-07 -8.50081e-08 1.60619e-07 -3.68313e-07 2.82333e-07 -6.43993e-08 3.44945e-09 0.5 -4.4019e-07 -1.44591e-07 -4.03355e-07 4.85163e-08 -2.57115e-07 -1.33312e-07 
5 1 2.34651 3.9005 1.05345 0 0 0 -6.5714e-08 -5.62249e-07 5.59578e-07 6.0398e-08 4.87217e-07 -4.82236e-07 1.50462e-08 4.0582e-08 1.15867e-07 0.5 -4.60851e-08 -6.98503e-08 -1.02862e-07 8.10076e-08 3.19554e-08 -2.49945e-08 
650 2 0.459129 3.43666 1.12967 0 0 0 -3.27627e-07 -5.33753e-07 4.14292e-08 2.82257e-07 4.50949e-07 -2.0387e-08 3.11881e-07 4.45324e-08 4.89626e-09 0.5 -4.59296e-07 -5.29506e-07 -5.49893e-07 3.60301e-07 3.86478e-07 -2.51459e-07 
14 1 3.29515 3.13364 1.54473 0 0 0 2.65425e-08 -3.1459e-07 4.6968e-07 -2.37154e-08 2.79283e-07 -4.07657e-07 9.58024e-08 5.45136e-08 3.33516e-08 0.5 -2.92997e-08 -1.22716e-07 -2.0961e-07 1.59831e-07 -1.37693e-08 -1.26191e-07 
264 1 3.99643 3.86789 1.37953 0 0 0 1.51315e-07 -3.5858e-07 4.69843e-07 -1.30602e-07 3.17668e-07 -4.12123e-07 1.43135e-07 3.43615e-08 1.61468e-08 0.5 -1.25519e-07 -1.00871e-08 -2.53992e-07 1.41586e-07 4.57573e-08 -3.00777e-08 
223 1 0.747634 2.47805 1.14565 0 0 1 -3.21606e-07 -5.23018e-07 5.42758e-08 2.73433e-07 4.40439e-07 -3.66015e-08 3.30403e-07 -1.30283e-07 5.02927e-08 0.5 -2.59933e-07 -5.99815e-07 -1.48922e-06 1.92647e-07 5.93792e-07 -3.64611e-07 
364 1 4.4227 4.23693 0.53984 0 0 1 1.28127e-08 1.29805e-07 6.17224e-07 -1.17555e-10 -1.09942e-07 -5.3805e-07 1.74362e-07 -1.00636e-08 8.7361e-08 0.5 4.40399e-09 4.47443e-08 -1.65664e-08 1.185e-08 1.11389e-07 -7.24109e-08 
107 1 1.66076 1.61825 0.747451 0 0 1 -2.36491e-07 -7.78408e-08 -2.84889e-07 1.99244e-07 5.801e-08 2.60646e-07 3.34094e-07 -2.21674e-08 3.11821e-08 0.5 2.56521e-07 -3.02103e-07 -2.92827e-07 -2.48715e-08 5.79711e-09 -1.89438e-07 
529 2 2.67265 2.1996 1.06195 0 0 0 2.63114e-08 -1.84233e-07 1.28992e-07 -3.03103e-08 1.5574e-07 -1.08869e-07 3.03283e-07 -6.12853e-09 7.43344e-08 0.5 -7.93207e-08 -1.93586e-07 -2.32803e-07 1.35614e-07 -5.1816e-08 3.90716e-08 
515 2 4.38643 0.435908 1.64385 0 0 0 3.25486e-08 -3.62207e-07 -1.94287e-07 -2.65115e-08 3.16476e-07 1.6021e-07 1.81166e-07 -7.69969e-09 2.65716e-08 0.5 -1.54634e-07 -2.24796e-07 -4.11097e-07 -3.64182e-07 7.75929e-08 9.40775e-08 
244 1 4.11373 0.570462 0.682724 0 1 1 3.96511e-08 6.84702e-08 -1.2395e-07 -3.25249e-08 -5.28468e-08 1.00055e-07 2.64013e-07 7.68006e-08 -1.01804e-08 0.5 -1.49367e-07 -1.295e-07 -3.75699e-07 -3.91177e-08 1.01281e-07 5.90604e-08 
20 1 2.90179 0.570818 1.78382 0 0 0 2.52818e-08 -3.18331e-07 -2.6683e-07 -2.35521e-08 2.73934e-07 2.27474e-07 1.18638e-07 -8.34849e-08 5.33642e-08 0.5 -2.55588e-07 -5.55402e-07 -7.81931e-07 1.31483e-07 3.67414e-07 -4.30506e-07 
280 1 4.09077 1.582 1.14626 0 0 0 5.02029e-08 -1.18949e-07 3.94207e-08 -4.67916e-08 1.06615e-07 -4.15881e-08 2.762e-07 -3.17696e-08 -3.14463e-09 0.5 -1.91746e-07 -2.00571e-07 -5.61088e-07 1.95123e-08 3.34283e-07 1.02572e-07 
620 2 1.3946 4.37082 0.857654 0 0 1 -4.50364e-08 -3.65199e-07 3.96779e-07 5.43355e-08 3.13848e-07 -3.31541e-07 2.29876e-07 1.40716e-07 -9.98e-08 0.5 -1.2543e-07 -5.73953e-07 -8.65657e-07 -8.67836e-09 -3.80527e-08 1.07419e-07 
1000 2 3.60332 2.39824 0.339819 0 1 1 2.04212e-07 8.07541e-08 3.28976e-07 -1.67508e-07 -7.04193e-08 -2.91386e-07 2.10687e-07 -7.50793e-09 -1.62165e-08 0.5 -3.13253e-07 -6.05556e-07 -3.45258e-07 -5.75662e-08 -2.69097e-07 -9.50298e-08 
103 1 3.28431 3.68319 0.698946 0 0 1 3.9792e-09 -1.67116e-07 5.74877e-07 -1.49754e-09 1.44317e-07 -5.02363e-07 1.80494e-07 1.2643e-08 8.94292e-08 0.5 -9.45804e-08 -5.77628e-08 -1.4808e-07 9.91352e-08 4.19142e-08 -4.04737e-08 
622 2 0.930663 4.80385 0.0848385 0 0 1 -5.01659e-08 -8.20199e-09 5.99765e-07 5.82251e-08 3.33874e-09 -5.07749e-07 3.12873e-07 -3.70323e-08 -2.46473e-08 0.5 -5.52621e-09 5.72613e-08 -3.8632e-07 -4.26119e-08 -1.59872e-07 8.74605e-08 
506 2 0.74356 1.4513 1.18235 0 0 0 -3.53553e-07 -5.35298e-07 -4.90857e-07 3.01289e-07 4.51464e-07 4.38565e-07 2.67543e-07 -5.13382e-08 1.67141e-07 0.5 1.17361e-07 -7.70694e-07 -1.15879e-07 8.96992e-07 1.99687e-07 -4.81117e-07 
626 2 1.28815 3.41645 0.566227 0 0 1 -3.17338e-07 -2.16058e-07 7.07579e-08 2.71938e-07 1.86426e-07 -4.82969e-08 1.46677e-07 -1.18364e-07 5.21282e-08 0.5 -4.30246e-07 -6.28789e-07 -1.21954e-07 3.27512e-07 3.01096e-07 -1.90123e-07 
553 2 0.744043 0.0774007 1.56306 0 0 0 -5.12931e-08 -4.0613e-07 -7.2828e-07 3.93366e-08 3.43343e-07 6.48247e-07 2.22351e-08 -1.42617e-07 2.10303e-07 0.5 7.89186e-08 4.98267e-08 6.31568e-08 -6.29473e-09 4.61809e-08 -1.05568e-07 
135 1 1.54769 3.20472 1.67709 0 0 0 1.4077e-07 -5.34746e-07 1.77069e-08 -1.26071e-07 4.57389e-07 -5.1694e-09 1.86857e-07 -2.70276e-07 -5.36411e-08 0.5 3.24802e-08 -1.19997e-06 -2.24517e-07 2.94435e-07 1.25865e-07 -1.00539e-08 
624 2 4.32461 4.92098 1.47156 0 0 1 1.87498e-07 -1.46681e-07 4.90831e-07 -1.49955e-07 1.39931e-07 -4.32884e-07 1.21718e-07 1.95096e-08 5.99382e-08 0.5 9.58573e-08 7.41817e-08 -3.28842e-07 8.13618e-08 -1.80189e-07 -2.3293e-07 
256 1 4.58719 1.36786 0.305 0 0 0 6.28361e-08 1.07231e-07 -1.08601e-08 -5.553e-08 -8.45852e-08 2.06112e-09 2.81466e-07 5.77141e-08 -9.86025e-08 0.5 -8.45099e-08 -2.65106e-07 -4.16929e-07 -1.75571e-07 9.46791e-08 -3.58941e-07 
260 1 3.31854 0.0700553 1.02517 0 0 0 8.30901e-08 -1.52052e-07 -3.45119e-07 -6.50154e-08 1.33924e-07 2.9736e-07 1.27559e-07 1.32774e-07 -2.71508e-08 0.5 -1.72314e-07 -5.06385e-07 -5.51485e-07 -2.06685e-08 1.08484e-07 -3.28049e-07 
616 2 3.19106 4.4806 1.50664 0 0 1 1.3322e-07 -4.69675e-07 4.65817e-07 -1.18934e-07 4.09236e-07 -4.1029e-07 -2.65253e-08 4.33456e-08 6.24321e-08 0.5 -2.13389e-07 -8.30921e-08 -9.45386e-08 1.29173e-07 2.90833e-08 -5.62456e-08 
106 1 1.74522 2.23558 1.52961 0 0 1 3.07203e-08 -5.6551e-07 7.1295e-08 -3.4248e-08 4.8305e-07 -4.97361e-08 2.44431e-07 -9.9647e-08 -6.18818e-08 0.5 1.05516e-07 -6.3657e-07 -2.01088e-07 1.73246e-07 2.19652e-07 -2.21751e-07 
157 1 1.3897 4.17879 1.83903 0 0 0 1.56919e-07 -5.87862e-07 3.54383e-07 -1.33293e-07 5.04261e-07 -2.95361e-07 2.24947e-07 4.66043e-08 2.44331e-08 0.5 -2.73691e-07 -9.03533e-07 -9.62612e-07 1.88983e-07 3.23479e-07 -1.79368e-07 
516 2 2.34691 0.89043 0.687961 0 0 0 -4.2477e-08 9.5976e-08 -1.7333e-07 3.24255e-08 -9.05447e-08 1.56664e-07 2.42111e-08 -1.12297e-07 -1.59307e-08 0.5 5.9963e-08 -2.15029e-07 -6.83844e-08 4.7045e-08 1.85174e-07 -2.28757e-07 
183 1 0.415258 4.58221 1.00381 0 0 0 -1.48048e-08 -5.19115e-07 8.4646e-07 3.03102e-08 4.47691e-07 -7.10659e-07 4.49148e-07 2.11257e-07 2.90955e-08 0.5 1.69431e-08 -3.1164e-08 4.4356e-08 3.54556e-08 -6.09099e-08 4.29773e-08 
625 2 0.399951 3.91216 0.210014 0 0 1 -1.61227e-07 2.88143e-08 3.78411e-07 1.50358e-07 -2.64115e-08 -3.07422e-07 4.41288e-07 -3.16513e-08 -1.7395e-07 0.5 -2.1881e-08 -4.9452e-09 -9.4147e-08 -2.46687e-08 -3.57346e-08 8.23063e-08 
91 1 2.22066 4.71676 1.69645 0 0 1 1.54344e-07 -5.48894e-07 5.08994e-07 -1.35583e-07 4.75543e-07 -4.37198e-07 2.45234e-08 -1.17974e-08 2.46675e-09 0.5 -2.47923e-07 -1.81596e-07 -7.14547e-08 -7.19206e-08 6.4228e-08 -5.07552e-08 
257 1 4.94043 2.69123 1.70827 0 0 0 9.79698e-08 -3.30566e-07 3.71927e-07 -8.67228e-08 2.94467e-07 -3.2727e-07 1.2328e-07 7.66713e-09 -3.70743e-08 0.5 -5.00918e-07 -3.5598e-07 -8.94296e-07 3.53175e-08 -2.83454e-07 -1.66445e-07 
4 1 3.72174 1.12777 1.95711 0 0 0 3.26327e-08 -3.89391e-07 -1.19912e-07 -2.92205e-08 3.37975e-07 9.58399e-08 1.83681e-07 -1.88462e-08 6.7027e-09 0.5 -9.8736e-08 -1.7354e-07 -6.37783e-07 -1.38682e-07 1.44689e-07 3.21633e-07 
609 2 1.99624 4.76004 0.13692 0 0 1 -3.18184e-10 -1.98327e-07 6.21716e-07 8.55971e-09 1.69249e-07 -5.36421e-07 1.00442e-07 -9.0683e-08 9.2089e-08 0.5 -1.03903e-06 -3.1849e-06 -4.75602e-07 8.70889e-07 2.77251e-07 -6.66931e-07 
117 1 3.12746 1.31374 1.15363 0 1 0 6.78995e-08 -1.86232e-07 -9.58907e-08 -6.06255e-08 1.59749e-07 7.9636e-08 2.41727e-07 -2.50453e-08 1.67245e-09 0.5 3.19369e-08 -1.78811e-07 -1.94102e-09 6.54132e-08 5.76365e-08 1.29987e-07 
511 2 1.08079 2.25054 0.230642 0 0 0 -1.1807e-07 2.22614e-07 -5.74213e-08 9.99271e-08 -2.02002e-07 6.03243e-08 4.27604e-07 -8.31689e-08 -9.05148e-08 0.5 -1.88534e-07 -5.69528e-07 -1.3689e-06 1.19894e-07 5.78816e-07 -3.33224e-07 
911 2 0.492018 0.563612 0.697613 1 0 0 -7.9869e-08 -2.68205e-07 -6.80364e-07 6.68697e-08 2.18017e-07 6.03815e-07 5.54876e-08 -8.29052e-08 3.55779e-09 0.5 1.40165e-07 -5.78654e-07 4.67221e-09 -5.9932e-08 5.24796e-08 -2.33492e-07 
668 2 0.00216518 3.81975 1.93315 0 0 0 -4.62805e-08 -9.76558e-07 3.98081e-07 3.26753e-08 8.31208e-07 -3.3112e-07 1.07434e-07 9.30455e-08 -8.10607e-08 0.5 -7.67703e-07 -1.91985e-06 -8.01648e-07 5.77475e-07 -1.9045e-07 -3.70743e-08 
90 1 2.93989 4.58015 0.420403 0 0 1 -2.20102e-08 -1.3578e-07 7.06629e-07 3.10431e-08 1.19593e-07 -6.2019e-07 1.10825e-07 -3.45445e-08 1.18847e-07 0.5 -1.95117e-07 3.24879e-07 1.23966e-09 4.0184e-07 2.40787e-07 1.19907e-07 
734 2 4.13742 3.24508 0.374939 0 1 1 1.31132e-07 1.1218e-07 6.12868e-07 -1.11371e-07 -9.29691e-08 -5.37015e-07 2.65617e-07 3.58054e-08 3.21934e-08 0.5 -1.8856e-07 -1.46472e-07 -3.93214e-08 9.04489e-08 9.50168e-08 -9.47863e-08 
672 2 0.0675427 1.98558 1.68985 0 0 0 -4.24181e-07 -7.85576e-07 -3.20857e-07 3.62895e-07 6.69341e-07 2.9076e-07 2.81654e-07 -5.3919e-08 9.39153e-08 0.5 -9.91126e-07 -1.94476e-06 -7.51461e-07 7.47815e-07 5.59823e-07 1.75067e-08 
759 2 4.95866 2.03867 0.950748 0 0 0 9.72858e-08 -1.37345e-07 2.05357e-07 -8.88821e-08 1.26354e-07 -1.824e-07 2.47328e-07 -2.90545e-08 -6.3662e-08 0.5 -7.03368e-08 -6.36717e-07 -2.74353e-07 -1.22975e-07 -3.87838e-08 -8.54843e-08 
21 1 1.84566 0.356751 2.43115 0 0 0 -1.30467e-07 -5.79949e-07 -5.01833e-07 1.13692e-07 4.99522e-07 4.39886e-07 1.14996e-07 -1.35063e-07 1.69483e-07 0.5 2.24325e-08 1.38086e-08 -8.50755e-09 1.29989e-08 3.32079e-08 -7.63112e-08 
682 2 2.73058 4.0836 2.7725 0 0 0 1.16852e-07 -3.86055e-07 4.0903e-07 -1.03135e-07 3.35686e-07 -3.55088e-07 -6.93399e-10 8.71846e-09 3.14755e-08 0.5 -5.79981e-07 -4.09367e-07 -1.12831e-07 2.9977e-07 3.09075e-07 4.54011e-07 
907 2 0.982097 4.62503 2.63572 1 0 0 9.4912e-08 -8.01483e-07 4.42658e-07 -8.79643e-08 6.80262e-07 -3.71077e-07 3.66827e-08 -8.64933e-08 4.2333e-08 0.5 -6.34878e-07 -8.13859e-07 -8.76963e-07 2.76319e-07 4.06923e-07 -2.9002e-07 
144 1 1.68507 3.60062 2.81087 0 0 0 1.52644e-07 -7.0491e-07 7.42505e-08 -1.37598e-07 6.02445e-07 -6.00434e-08 -1.05645e-08 3.42195e-08 -4.26586e-09 0.5 -3.25218e-07 -1.12846e-07 -1.5526e-07 2.09091e-07 -4.59938e-08 -8.77635e-09 
675 2 2.83107 4.7385 3.54541 0 0 0 5.59906e-08 -2.81696e-07 4.1957e-07 -6.42948e-08 2.52012e-07 -3.66151e-07 -8.99009e-08 4.99178e-08 -2.20805e-08 0.5 2.30221e-08 1.23128e-07 2.37281e-07 1.13244e-07 -3.73418e-08 2.1633e-07 
502 2 4.38953 1.31124 3.26921 0 0 0 -4.91121e-09 -3.07924e-07 -9.07772e-08 -7.37162e-09 2.77451e-07 7.06626e-08 4.94814e-08 1.7417e-08 -3.34952e-08 0.5 -4.4944e-07 -2.39503e-07 -2.81155e-07 -2.39981e-07 2.46454e-07 4.7524e-07 
27 1 2.60908 0.300739 3.21066 0 0 0 1.15269e-08 -4.58837e-07 -3.20423e-07 -2.02571e-08 3.93692e-07 2.74131e-07 -1.11317e-08 -7.04152e-08 7.32486e-08 0.5 -4.14216e-07 -5.12004e-07 -9.90818e-07 1.93575e-07 3.56e-07 7.56756e-08 
965 2 1.35576 3.65812 3.79896 1 0 0 2.05447e-07 -8.25915e-07 -1.4501e-09 -1.81663e-07 7.00252e-07 8.37522e-09 -5.38946e-08 1.3e-07 -1.19124e-07 0.5 -1.67338e-07 -4.93731e-07 -5.61307e-07 2.84365e-07 -1.77497e-07 3.38305e-07 
61 1 1.66165 0.448609 3.51353 0 0 0 -1.17587e-07 -6.99645e-07 -6.64981e-07 9.31741e-08 5.9125e-07 5.83872e-07 5.52341e-09 -3.83042e-08 1.27027e-07 0.5 -2.96638e-07 -1.16243e-08 -5.87979e-08 6.52259e-08 2.09689e-07 -2.38389e-08 
680 2 1.1901 2.78151 3.34693 0 0 0 -1.47525e-07 -7.45961e-07 -2.4867e-08 1.20756e-07 6.31543e-07 2.88443e-08 3.45049e-08 7.27765e-08 -2.03159e-08 0.5 -6.59506e-10 -1.64166e-07 -2.59711e-07 3.36636e-08 1.17915e-07 7.97403e-08 
251 1 4.71421 3.03382 3.89556 0 0 0 2.49767e-07 -3.81671e-07 3.70979e-07 -2.26014e-07 3.40369e-07 -3.27598e-07 1.40876e-07 1.075e-07 -1.59088e-07 0.5 -4.97645e-07 -1.0926e-07 1.89834e-08 -3.64838e-07 1.63522e-07 3.03469e-07 
517 2 4.0089 2.89361 2.21821 0 0 0 1.22339e-07 -3.65717e-07 3.41697e-07 -1.04489e-07 3.29177e-07 -2.98471e-07 5.50893e-08 2.65822e-08 -3.3373e-08 0.5 -6.83737e-10 -6.94604e-09 -1.51229e-07 -8.84765e-09 -2.86131e-08 8.14073e-08 
6 1 3.42179 1.77987 2.73262 0 0 0 -3.26396e-08 -3.14735e-07 1.85887e-07 1.8867e-08 2.74364e-07 -1.65827e-07 1.73412e-07 -3.61716e-08 1.00699e-07 0.5 -5.77511e-07 7.60464e-08 7.0536e-08 2.03482e-07 2.7716e-07 1.51208e-07 
519 2 4.43345 3.61408 3.03093 0 0 0 8.90053e-08 -2.58956e-07 5.24046e-07 -8.03656e-08 2.37879e-07 -4.60238e-07 6.15406e-08 4.58166e-08 -2.00028e-08 0.5 1.92984e-08 2.78569e-07 1.80501e-07 -2.00284e-07 -6.00999e-08 1.43541e-07 
509 2 1.93621 1.51608 3.62332 0 0 0 1.8224e-07 -6.35318e-07 -5.69998e-07 -1.65925e-07 5.33648e-07 5.02623e-07 -5.30347e-08 2.29494e-07 -6.85209e-10 0.5 6.80475e-08 -7.64856e-08 -5.98804e-07 -7.28176e-08 1.26902e-07 1.69007e-07 
142 1 1.03537 1.94217 2.17003 0 0 0 -2.32244e-07 -6.24117e-07 -2.47576e-07 1.92926e-07 5.30076e-07 2.24304e-07 2.42419e-07 1.80327e-09 4.21817e-08 0.5 -3.37503e-09 -9.98979e-08 -1.62454e-07 1.40315e-07 -5.04377e-08 1.87996e-07 
941 2 0.192203 2.2584 2.77344 1 0 0 -3.40171e-07 -9.22925e-07 -2.13877e-07 2.88189e-07 7.88433e-07 1.95933e-07 1.4289e-07 1.60489e-08 3.22372e-08 0.5 -1.25167e-07 -3.8903e-07 -5.55547e-07 1.04376e-08 8.06193e-08 5.27216e-08 
919 2 0.650389 4.31552 3.53385 1 0 0 1.79278e-08 -8.88492e-07 3.41701e-07 -2.06436e-08 7.55103e-07 -2.83481e-07 1.24374e-07 3.90415e-08 -1.43768e-07 0.5 -3.74957e-07 -6.59179e-07 -3.9334e-07 3.70457e-07 1.35716e-09 2.38993e-07 
95 1 3.53903 3.77814 2.2694 0 0 1 1.60297e-07 -3.51736e-07 4.57785e-07 -1.39564e-07 3.16103e-07 -4.01483e-07 1.25431e-08 4.09555e-09 1.45819e-08 0.5 -3.20109e-07 -1.07488e-07 -5.18158e-07 3.8599e-08 1.88459e-07 -6.4079e-08 
458 1 1.5569 4.7536 3.86468 1 0 0 8.42311e-08 -6.01463e-07 5.45429e-07 -8.1992e-08 5.08905e-07 -4.68086e-07 -1.27223e-07 2.34279e-08 3.11546e-08 0.5 -2.23456e-07 -1.33567e-07 -1.33899e-07 1.817e-07 -3.54546e-08 -1.20037e-08 
41 1 1.14045 0.960462 2.01108 0 0 0 -1.58278e-07 -5.77567e-07 -4.7681e-07 1.30028e-07 4.89626e-07 4.24709e-07 2.10209e-07 -2.89798e-08 9.87362e-08 0.5 -1.911e-07 -1.50024e-07 -4.59288e-07 1.00717e-07 3.22025e-07 -1.81749e-07 
814 2 0.27112 1.22753 3.40348 1 0 0 -1.75284e-08 -7.40639e-07 -4.16741e-07 6.47918e-09 6.27774e-07 3.73752e-07 1.11251e-07 -7.25943e-08 2.22985e-07 0.5 -4.37627e-07 -4.43199e-07 -5.13114e-07 1.74904e-07 3.61256e-07 5.38348e-07 
130 1 1.70518 2.6475 2.50033 0 0 0 -1.79673e-07 -6.66198e-07 -5.71491e-08 1.50655e-07 5.6761e-07 5.72304e-08 1.92377e-07 -7.84371e-08 -8.97576e-08 0.5 -1.72304e-07 -5.57901e-07 -4.91162e-07 2.56884e-07 1.99979e-07 3.44704e-07 
12 1 2.70258 1.09575 2.61132 0 0 0 9.92049e-08 -3.83697e-07 -2.07346e-07 -9.01633e-08 3.28326e-07 1.76743e-07 1.08114e-07 -1.54225e-07 1.08073e-07 0.5 -5.798e-07 -7.70194e-07 -5.44735e-07 3.55957e-07 2.91047e-07 6.68892e-09 
512 2 3.18635 2.03167 3.78747 0 0 0 1.21816e-07 -8.81425e-08 1.92735e-07 -1.18653e-07 7.40606e-08 -1.61807e-07 1.3462e-07 -4.15052e-08 8.94719e-08 0.5 -1.42415e-07 -2.96914e-07 -2.37351e-07 3.90474e-08 -3.25375e-08 3.02224e-07 
151 1 2.47925 3.30049 3.34132 0 0 0 9.3692e-08 -4.61463e-07 2.953e-07 -8.12581e-08 4.02413e-07 -2.53843e-07 -3.64977e-08 -5.30602e-08 3.11115e-08 0.5 -1.54077e-07 -7.78396e-07 -6.77754e-07 1.11143e-07 2.0777e-07 2.36329e-07 
667 2 0.284319 1.3208 2.4071 0 0 0 -1.61507e-07 -7.74804e-07 -4.13705e-07 1.3328e-07 6.59533e-07 3.7137e-07 1.43977e-07 4.18076e-08 1.232e-07 0.5 -2.4441e-07 -1.12009e-06 -8.56904e-07 5.42398e-08 3.73381e-09 1.32742e-07 
38 1 3.79042 0.738149 3.87284 0 0 0 8.23609e-08 -8.34285e-08 -1.43614e-07 -8.43006e-08 7.84295e-08 1.1839e-07 -1.52977e-07 -3.34788e-08 -4.71798e-09 0.5 -4.59836e-07 -1.60328e-07 -1.09924e-06 -5.08901e-07 2.87949e-07 7.95039e-07 
936 2 0.319906 3.36948 3.50683 1 0 0 -3.08337e-07 -7.63325e-07 9.52402e-08 2.59525e-07 6.4756e-07 -6.91271e-08 1.3726e-07 -1.26149e-07 -7.99119e-08 0.5 3.60711e-08 -7.91091e-07 -3.20082e-07 1.02713e-08 3.86718e-07 5.28531e-07 
531 2 4.80013 0.808198 2.48028 0 0 0 -1.25907e-07 -4.98817e-07 -8.1476e-08 1.01097e-07 4.42774e-07 6.35032e-08 1.63749e-08 -1.1318e-09 -8.00663e-08 0.5 -1.43657e-07 8.24458e-09 -3.0297e-07 -1.81105e-07 -2.75942e-07 -1.54073e-07 
527 2 4.03024 4.31517 3.61908 0 0 0 1.73635e-07 -2.59626e-07 5.88758e-07 -1.59198e-07 2.34473e-07 -5.15191e-07 -7.03971e-08 5.25434e-10 2.57239e-08 0.5 -2.07045e-07 8.02135e-09 1.7267e-07 -2.23173e-07 -4.10799e-09 3.02052e-07 
383 1 4.36293 4.34454 2.28892 0 0 1 5.5837e-08 -1.9987e-07 4.61794e-07 -4.85359e-08 1.83932e-07 -4.08552e-07 2.4826e-08 -2.86914e-08 1.5566e-08 0.5 -2.98404e-07 -5.9552e-08 1.38443e-07 2.09042e-07 -5.7254e-08 -1.15441e-07 
992 2 0.695682 0.439323 3.85269 1 1 0 1.23397e-08 -7.77756e-07 -5.4637e-07 -2.03594e-08 6.57029e-07 4.8207e-07 1.28206e-08 1.2737e-07 8.53684e-08 0.5 -3.56556e-07 -8.47588e-07 -1.7708e-07 2.52789e-07 -1.16105e-07 4.2727e-07 
521 2 4.93615 4.52796 3.25037 0 0 0 1.20411e-07 -1.97042e-07 4.98259e-07 -1.13416e-07 1.78709e-07 -4.39308e-07 -5.27541e-08 4.48193e-08 3.60558e-08 0.5 -3.78429e-09 -1.92457e-07 -2.35385e-07 -4.47406e-08 -2.53116e-08 3.22657e-07 
136 1 1.88498 1.67143 2.62265 0 0 0 -1.35557e-07 -7.11367e-07 -4.81083e-07 1.09356e-07 6.06453e-07 4.26722e-07 7.20942e-08 1.12287e-07 8.09605e-08 0.5 -6.71555e-07 -7.40636e-07 -4.99454e-07 4.82601e-07 -3.43577e-08 2.1781e-07 
540 2 4.51129 0.178593 3.415 0 0 0 -2.95056e-10 -3.2652e-07 -1.55266e-07 -1.07983e-08 2.95215e-07 1.23161e-07 -1.59051e-07 6.45864e-08 -9.32521e-08 0.5 2.1066e-07 1.42127e-07 2.03829e-08 -1.43797e-07 -9.46191e-08 1.35073e-07 
510 2 3.85504 2.56842 3.17077 0 0 0 -4.14741e-08 -3.55409e-07 2.79324e-07 2.30272e-08 3.13347e-07 -2.4987e-07 3.01571e-08 -6.8237e-09 2.88196e-09 0.5 2.2871e-07 3.02491e-07 -1.75887e-07 2.91562e-08 3.74424e-08 2.49795e-07 
19 1 4.3655 1.84749 2.40882 0 0 0 -7.26264e-08 -7.04238e-08 1.1987e-07 5.12756e-08 6.78156e-08 -1.14147e-07 8.58085e-08 2.1674e-08 -4.17854e-09 0.5 -8.13351e-07 -3.09793e-08 -4.12605e-07 3.78555e-08 3.65445e-07 7.35804e-08 
543 2 1.07326 1.78713 3.19513 0 0 0 6.51156e-09 -7.23027e-07 -2.77178e-07 -1.40433e-08 6.11285e-07 2.5068e-07 1.64785e-07 1.47984e-07 5.62013e-08 0.5 -8.17371e-08 -1.04362e-07 -5.30599e-08 -1.53671e-07 1.29521e-07 8.44222e-08 
773 2 4.78774 2.22773 3.30763 0 0 0 -1.5304e-08 -3.17293e-07 2.41379e-07 1.94328e-09 2.85404e-07 -2.16633e-07 6.62806e-08 8.11392e-08 -5.52364e-08 0.5 -4.84648e-09 -6.23861e-07 -1.21193e-06 -1.38202e-07 2.9731e-07 1.1929e-06 
555 2 2.23907 2.5056 3.89852 0 0 0 1.03368e-07 -4.19413e-07 3.59595e-07 -9.92845e-08 3.69062e-07 -3.09309e-07 -4.30264e-08 -1.25424e-08 4.10026e-08 0.5 9.50175e-08 1.56637e-07 1.70666e-07 4.51774e-08 5.06345e-08 2.56781e-07 
429 1 0.306925 2.40106 3.75655 1 0 0 -2.37932e-07 -8.38015e-07 -2.38018e-07 1.9867e-07 7.11822e-07 2.17398e-07 8.9395e-08 3.32683e-08 1.63075e-07 0.5 -1.73607e-07 -1.29478e-06 -7.62341e-07 3.0335e-07 -1.90986e-07 7.2775e-07 
316 1 0.889712 0.512877 2.86992 1 0 0 -1.95674e-07 -7.67417e-07 -5.894e-07 1.60183e-07 6.50805e-07 5.19819e-07 8.41851e-08 1.05155e-08 1.18706e-07 0.5 8.04003e-08 -1.55561e-07 -9.80609e-08 5.87623e-08 4.76435e-08 1.53494e-07 
503 2 3.61689 0.768796 2.88623 0 0 0 5.54463e-08 -3.95464e-07 -1.31573e-07 -5.08911e-08 3.44247e-07 1.0608e-07 -2.29971e-08 -1.71603e-08 5.10709e-08 0.5 -8.68348e-08 3.99808e-08 -7.96646e-07 2.95026e-08 -4.40478e-08 2.16967e-07 
896 2 0.702247 3.66501 2.63024 1 0 0 1.14292e-07 -8.06215e-07 2.7494e-07 -1.06109e-07 6.84795e-07 -2.24518e-07 9.83517e-08 3.5812e-08 -5.13245e-08 0.5 -4.75639e-07 -3.2814e-07 -8.37483e-07 1.24169e-07 -2.51218e-07 2.26167e-07 
690 2 1.93672 4.67095 2.92999 0 0 0 5.03498e-08 -5.11379e-07 5.42251e-07 -4.79232e-08 4.39158e-07 -4.63518e-07 -1.92199e-08 1.87236e-08 1.17619e-07 0.5 -5.74388e-07 -3.01871e-07 -1.09808e-07 3.76186e-07 6.03656e-09 -6.98006e-08 
641 2 3.45948 3.5005 3.22725 0 0 0 7.97846e-08 -2.66961e-07 4.72521e-07 -7.17255e-08 2.40274e-07 -4.15087e-07 -4.84936e-08 -6.04477e-09 5.06409e-08 0.5 -1.35437e-08 1.03898e-07 -3.61293e-07 6.44311e-08 -1.65746e-07 4.64578e-07 
528 2 3.34275 4.80215 2.44243 0 0 0 1.6412e-07 -4.12314e-07 4.3937e-07 -1.48636e-07 3.59704e-07 -3.86981e-07 2.16869e-09 1.54707e-08 2.0341e-08 0.5 -6.60088e-08 -1.23755e-07 -1.98638e-07 -1.10953e-07 -1.64984e-08 -2.02541e-08 
225 1 2.66658 2.37982 2.99794 0 0 1 -1.4051e-07 -4.79739e-07 2.35515e-07 1.14224e-07 4.161e-07 -2.00362e-07 -3.67202e-08 9.66942e-08 6.17613e-08 0.5 -1.99609e-07 -5.1628e-07 -2.84127e-08 3.16325e-07 -1.27877e-07 -2.56354e-08 
119 1 0.614476 2.84343 2.06694 0 0 0 -3.38148e-07 -6.35828e-07 9.68323e-08 2.85356e-07 5.40287e-07 -7.46652e-08 2.30752e-07 1.93032e-08 -1.1741e-08 0.5 1.30543e-07 -3.41516e-07 -6.88264e-07 8.96311e-08 2.67044e-07 -1.92396e-08 
94 1 2.46189 3.50067 2.00487 0 0 1 -1.47643e-08 -4.98529e-07 5.3553e-07 1.02612e-08 4.29001e-07 -4.61329e-07 9.42097e-08 -3.13179e-08 2.17394e-08 0.5 1.28492e-07 1.5503e-07 6.34128e-08 1.44435e-07 1.36128e-07 2.10178e-07 
522 2 2.58373 2.50801 2.00903 0 0 0 -6.30999e-08 -5.06492e-07 2.25602e-07 5.09384e-08 4.35691e-07 -1.92454e-07 1.81756e-07 -8.18842e-08 5.9918e-08 0.5 -4.74417e-08 1.71829e-08 -1.73114e-07 1.84351e-07 2.21471e-07 4.74558e-08 
200 1 2.46549 0.208501 4.19599 0 1 0 2.44167e-07 -2.65996e-07 -2.68282e-07 -2.28176e-07 2.26416e-07 2.27997e-07 -1.83262e-07 -1.24153e-07 2.61479e-07 0.5 -4.367e-07 -2.42305e-07 -7.69492e-07 9.43524e-08 2.93957e-07 1.98133e-07 
114 1 4.70709 1.00384 4.17137 0 0 0 6.08943e-08 -1.17712e-07 -4.69178e-08 -6.69869e-08 1.13936e-07 3.33619e-08 -6.29737e-08 -3.36313e-08 -7.55787e-08 0.5 -2.59958e-07 1.33149e-08 -1.58419e-08 -3.87091e-08 -1.61586e-07 -3.48093e-08 
820 2 1.30996 2.29325 4.21136 1 0 0 2.97261e-08 -5.60664e-07 5.52764e-08 -3.01968e-08 4.73423e-07 -3.95974e-08 -1.03125e-07 -8.09935e-08 1.54305e-07 0.5 -3.88899e-09 1.36968e-07 -1.8452e-07 4.52091e-07 1.78571e-07 2.97794e-07 
47 1 4.65574 1.582 5.43553 0 0 0 2.48323e-07 -1.35822e-08 8.46816e-08 -2.32147e-07 2.63977e-08 -7.96153e-08 2.50318e-08 1.09548e-07 4.43565e-08 0.5 -3.13959e-07 -4.93936e-07 -2.04156e-07 -1.28992e-07 -2.38643e-07 3.8698e-07 
824 2 1.64908 3.83184 5.79238 1 0 0 6.23421e-08 1.73012e-07 5.37777e-07 -5.4553e-08 -1.49422e-07 -4.57632e-07 -1.70289e-07 8.43525e-09 -6.45826e-08 0.5 -9.50641e-08 -8.07163e-08 -3.4569e-07 -3.3978e-08 5.63552e-09 1.23314e-07 
172 1 3.44268 0.338821 4.72114 0 1 0 6.33928e-08 2.1817e-07 -8.98912e-09 -7.52978e-08 -1.87402e-07 -3.4271e-09 -1.94789e-07 -4.9569e-08 7.13017e-08 0.5 -4.11564e-07 -4.27284e-07 -1.43684e-06 -3.64085e-07 3.60272e-07 6.07079e-07 
718 2 0.202285 2.03673 5.5128 0 1 0 -1.99524e-08 -1.93175e-07 1.02196e-07 8.32256e-09 1.53327e-07 -7.65948e-08 -1.49529e-07 -7.35837e-08 -2.27856e-09 0.5 -6.30877e-07 -1.40888e-07 -4.14238e-07 3.08188e-07 -3.17821e-07 8.80754e-07 
505 2 0.484433 3.5018 5.83385 0 0 -1 -6.63903e-08 2.9933e-07 3.97606e-07 5.75179e-08 -2.75492e-07 -3.34616e-07 3.37535e-08 -8.38582e-08 1.99624e-07 0.5 -1.41935e-08 -1.18207e-06 -5.98265e-07 5.33577e-08 -1.22537e-08 9.66151e-07 
524 2 3.99535 2.7352 5.70679 0 0 0 5.70926e-07 5.14973e-07 7.14597e-07 -5.17927e-07 -4.29544e-07 -6.33544e-07 -1.73729e-07 4.7025e-07 2.52371e-07 0.5 8.39197e-09 1.12966e-07 1.24535e-07 -8.86296e-08 -1.01087e-07 9.77712e-08 
839 2 0.579387 1.61472 4.31101 1 0 0 1.52593e-07 -7.63379e-07 -3.23423e-07 -1.36606e-07 6.48834e-07 2.92269e-07 -5.24096e-08 -1.35808e-09 1.81095e-07 0.5 -7.3888e-08 -8.78316e-07 -5.22852e-07 5.56134e-07 -3.38114e-08 9.20092e-07 
937 2 2.44361 3.38654 4.3372 1 0 0 1.33909e-07 -3.5106e-07 2.80352e-07 -1.20602e-07 3.09277e-07 -2.41288e-07 -1.17124e-07 -8.44334e-08 1.18689e-07 0.5 1.19025e-07 2.08076e-07 -6.18349e-07 2.9819e-07 1.01144e-07 3.11818e-07 
811 2 2.60623 3.94632 5.52498 1 0 0 1.23666e-08 1.36611e-07 3.46e-07 -1.3094e-08 -1.11235e-07 -2.95225e-07 -1.4791e-07 -1.01256e-07 -7.82972e-10 0.5 -6.64093e-08 -3.00936e-07 -9.84785e-08 -1.30698e-07 -9.06582e-08 2.99979e-07 
827 2 1.52088 3.18133 4.66349 1 0 0 1.33909e-07 -5.66192e-07 1.45797e-07 -1.14896e-07 4.78462e-07 -1.18397e-07 -1.98757e-07 -1.07938e-07 -2.36254e-08 0.5 4.18495e-08 -6.52665e-08 -5.25156e-07 7.24727e-09 8.13801e-08 4.0293e-07 
149 1 4.05563 3.93275 4.61881 0 0 0 7.63133e-08 4.51899e-08 5.08408e-07 -7.74614e-08 -2.73131e-08 -4.45937e-07 -5.97557e-08 2.36316e-08 1.13439e-07 0.5 -1.57753e-07 -1.99029e-07 1.8526e-07 6.27207e-07 -3.68267e-07 1.9358e-07 
925 2 0.623246 3.59905 4.52293 1 0 0 2.2391e-07 -4.05926e-07 3.65143e-08 -1.96336e-07 3.33034e-07 -2.22441e-08 -1.79638e-07 6.58012e-08 -4.0142e-08 0.5 9.76776e-08 -2.99089e-07 -9.12751e-08 -5.89307e-08 -6.41574e-08 1.60059e-07 
168 1 3.33522 4.60361 5.33158 0 0 0 7.87497e-08 1.09287e-07 5.24463e-07 -7.5202e-08 -8.5306e-08 -4.6036e-07 -1.12436e-07 -8.3828e-08 1.06071e-07 0.5 -3.97053e-07 -3.22787e-07 -3.47483e-07 7.79972e-08 -1.75184e-07 2.70788e-07 
928 2 1.57471 4.4088 4.9787 1 0 0 1.02306e-07 9.74605e-08 4.86256e-07 -8.90833e-08 -7.9847e-08 -4.10152e-07 -1.01506e-07 1.15865e-08 -1.07252e-07 0.5 -1.92987e-07 -2.41321e-07 -2.32806e-07 -1.3528e-07 4.09714e-08 1.93847e-07 
148 1 3.93983 3.74234 5.7457 0 0 0 1.27724e-09 4.95642e-07 7.13488e-07 -1.12051e-08 -4.12755e-07 -6.23212e-07 -1.63389e-07 -6.94642e-08 3.12039e-07 0.5 1.55194e-07 3.45989e-07 3.72797e-07 2.29842e-07 2.61454e-07 2.28718e-07 
914 2 4.69244 4.38506 5.24423 0 0 0 -1.33283e-07 2.44586e-07 5.82255e-07 1.04954e-07 -1.90471e-07 -5.17712e-07 -2.43404e-07 -9.40669e-08 -5.28947e-08 0.5 -7.04194e-09 8.69422e-08 1.59848e-07 1.8791e-08 5.92274e-08 1.01714e-07 
23 1 2.87773 1.11847 4.05716 0 0 0 2.755e-08 -1.82507e-07 -2.52666e-07 -3.92348e-08 1.55395e-07 2.20223e-07 5.63058e-08 -2.58576e-08 5.85989e-08 0.5 -3.51903e-07 -3.39611e-07 -2.68183e-07 -1.43823e-07 1.83654e-07 2.37823e-07 
594 2 2.05586 1.97089 4.80241 0 0 0 1.62468e-07 1.05059e-07 2.16674e-07 -1.47159e-07 -9.78517e-08 -1.74682e-07 6.65131e-08 -8.45952e-08 2.30421e-07 0.5 -4.85845e-09 -4.17831e-07 -8.13773e-08 2.84319e-07 -1.32311e-07 2.38813e-07 
539 2 3.78455 1.04074 5.46912 0 0 0 1.32563e-07 4.23731e-07 1.94808e-07 -1.30084e-07 -3.5977e-07 -1.78155e-07 -8.53508e-08 1.48145e-07 -3.86616e-08 0.5 -1.44603e-07 -1.35578e-06 -5.72708e-07 -4.56458e-07 -3.55331e-07 1.1117e-06 
730 2 0.461765 1.11568 5.16957 0 1 0 4.61569e-08 -2.14903e-07 -1.89526e-08 -5.1598e-08 1.72243e-07 2.66731e-08 -6.98092e-08 -3.47508e-08 2.26371e-07 0.5 3.74942e-07 -8.06994e-08 -3.09518e-07 5.16496e-08 -7.64957e-08 6.39451e-07 
689 2 3.51933 0.103669 5.69619 0 1 0 2.36891e-08 3.98962e-07 -3.28539e-08 -3.45434e-08 -3.38766e-07 1.85878e-08 -4.88629e-08 -7.4232e-08 -2.6036e-08 0.5 -5.69263e-07 -1.67403e-06 -1.45956e-06 -2.01517e-07 4.58631e-08 1.24974e-06 
450 1 0.619288 4.79871 4.46892 1 0 0 4.98423e-07 -3.14492e-07 3.0965e-07 -4.31607e-07 2.62511e-07 -2.53511e-07 -3.59507e-07 -9.14185e-08 5.87508e-08 0.5 -1.84343e-07 -5.09588e-07 -1.08056e-06 3.55496e-08 -1.85013e-07 6.04466e-07 
549 2 4.49944 0.500888 5.01435 0 0 0 -1.41774e-07 1.0854e-07 4.82007e-08 1.08478e-07 -8.52762e-08 -5.14218e-08 -6.13278e-08 6.67476e-08 -1.6002e-07 0.5 4.0752e-07 5.57377e-07 3.088e-07 -2.47363e-07 -1.71553e-07 2.47181e-07 
591 2 1.44655 1.12499 4.40334 0 0 0 2.88475e-07 -5.37273e-07 -4.62036e-07 -2.56941e-07 4.47962e-07 4.09306e-07 -1.15085e-07 1.08056e-07 3.76464e-08 0.5 -3.11577e-07 -4.9996e-07 -3.89382e-07 1.2884e-07 4.84761e-08 3.82656e-07 
243 1 1.20287 1.83742 5.34381 0 1 0 -4.25164e-08 4.322e-08 -6.25162e-08 2.65027e-08 -5.03035e-08 6.2616e-08 -5.71054e-08 -5.25293e-08 1.28363e-07 0.5 -1.87284e-07 -2.05512e-07 -9.63267e-08 2.24983e-07 -6.04845e-08 3.04145e-07 