ITEM: TIMESTEP
198500
ITEM: NUMBER OF ATOMS
1000
ITEM: BOX BOUNDS xy xz yz pp pp pp
0.0000000000000000e+00 1.0000000000000000e+01 0.0000000000000000e+00
0.0000000000000000e+00 1.0000000000000000e+01 0.0000000000000000e+00
0.0000000000000000e+00 1.0000000000000000e+01 0.0000000000000000e+00
ITEM: ATOMS id type x y z ix iy iz vx vy vz fx fy fz omegax omegay omegaz radius c_2[1] c_2[2] c_2[3] c_2[4] c_2[5] c_2[6] 
120 1 3.15852 1.54146 0.0722925 0 1 0 -1.55298e-09 4.66049e-09 2.98095e-09 1.40368e-09 -3.97024e-09 -2.61616e-09 2.77458e-09 4.91235e-10 -1.63648e-09 0.5 -2.31639e-09 -1.22672e-08 -1.14431e-09 -1.34167e-09 -6.29671e-10 -2.95916e-09 
525 2 2.11627 1.23431 1.69988 0 0 0 -4.20537e-09 -1.0859e-08 -7.3186e-09 3.49886e-09 9.26269e-09 6.43597e-09 -1.06629e-09 7.81989e-10 3.41215e-09 0.5 2.00561e-10 -7.42965e-10 4.37561e-10 9.36243e-10 4.21202e-10 -2.55607e-10 
371 1 4.95931 3.68326 1.58374 0 0 1 2.40493e-09 -4.16809e-09 6.51869e-09 -2.05629e-09 3.71233e-09 -5.72107e-09 5.21581e-10 -3.78448e-10 3.13814e-10 0.5 -1.50365e-09 -6.28671e-09 4.05583e-09 -7.46551e-10 -7.82835e-10 8.21192e-10 
18 1 1.98117 2.69195 0.532518 0 0 0 -2.11549e-09 -1.74161e-10 7.32236e-09 1.75019e-09 1.44016e-10 -6.29789e-09 4.60555e-09 -1.54017e-09 1.47348e-09 0.5 -3.90222e-09 -9.03029e-09 -5.37214e-09 7.30204e-09 3.16843e-09 -4.05876e-09 
868 2 2.87004 3.00634 0.0289121 0 0 1 1.365e-09 -9.24383e-10 6.28452e-09 -1.08262e-09 8.0039e-10 -5.47501e-09 3.91042e-09 -7.19407e-10 1.64651e-09 0.5 -6.08739e-09 -9.49049e-09 -2.2541e-09 7.06061e-09 -2.88148e-10 4.90025e-10 
25 1 1.41548 0.708705 1.0832 0 0 0 -1.664e-09 -3.81075e-09 -7.43089e-09 1.41177e-09 3.15591e-09 6.57332e-09 3.23002e-09 -8.44469e-10 2.02316e-09 0.5 -2.69553e-09 -1.93193e-08 -1.07146e-08 6.9685e-09 5.30455e-09 -8.59295e-09 
378 1 4.61919 2.40719 0.0725816 0 0 1 4.57083e-10 3.09262e-09 4.85113e-09 -3.54986e-10 -2.55973e-09 -4.27668e-09 4.35502e-09 1.09383e-09 -8.69891e-10 0.5 -2.53488e-09 -6.67279e-09 -3.79e-09 -5.48531e-10 -7.73772e-10 -5.06939e-09 
8 1 3.44143 2.06796 1.74253 0 0 0 -2.39069e-10 -4.92458e-09 1.95593e-09 1.63886e-10 4.28065e-09 -1.76068e-09 3.71907e-09 -9.49822e-10 7.83166e-10 0.5 1.68582e-09 7.04963e-10 1.77806e-09 1.44201e-09 -3.28877e-10 1.30027e-09 
629 2 4.07713 2.6156 1.19812 0 0 1 1.22304e-09 -2.38321e-09 6.17237e-09 -1.08406e-09 2.12014e-09 -5.35328e-09 4.20848e-09 -1.13537e-09 1.20358e-10 0.5 -6.80481e-09 -1.64551e-09 -5.97609e-09 1.03948e-09 -4.55792e-09 -2.514e-09 
5 1 2.34651 3.9005 1.05345 0 0 0 -7.33928e-10 -8.30292e-09 8.40821e-09 6.82166e-10 7.18155e-09 -7.24944e-09 3.01994e-10 5.75971e-10 1.72314e-09 0.5 -5.51152e-10 -9.37365e-10 -1.34178e-09 1.16041e-09 3.07907e-10 -2.88607e-10 
650 2 0.459129 3.43666 1.12967 0 0 0 -5.01791e-09 -8.69331e-09 1.55289e-09 4.29383e-09 7.35587e-09 -1.18017e-09 4.97283e-09 4.66649e-10 5.99958e-11 0.5 -6.80072e-09 -7.70144e-09 -8.2789e-09 5.5653e-09 5.7137e-09 -3.6911e-09 
14 1 3.29515 3.13364 1.54473 0 0 0 3.48479e-10 -4.15875e-09 6.85658e-09 -3.11755e-10 3.69666e-09 -5.95245e-09 1.1859e-09 8.72232e-10 5.71217e-10 0.5 -5.91055e-10 -1.84572e-09 -3.55109e-09 2.78557e-09 -4.56032e-10 -1.65808e-09 
264 1 3.99643 3.86789 1.37953 0 0 0 2.29928e-09 -4.78739e-09 6.60071e-09 -1.96984e-09 4.24339e-09 -5.77473e-09 1.8786e-09 4.18247e-10 3.18761e-10 0.5 -1.76257e-09 3.04757e-11 -3.39813e-09 2.38579e-09 6.54576e-11 -6.80221e-10 
223 1 0.747634 2.47805 1.14565 0 0 1 -5.16453e-09 -8.61233e-09 1.47703e-09 4.37333e-09 7.26999e-09 -1.1541e-09 4.93674e-09 -1.94708e-09 7.28512e-10 0.5 -3.26708e-09 -8.39422e-09 -1.91659e-08 2.87984e-09 7.69038e-09 -4.86016e-09 
364 1 4.4227 4.23693 0.53984 0 0 1 9.50415e-10 2.18091e-09 8.91042e-09 -6.60343e-10 -1.83711e-09 -7.74532e-09 2.51299e-09 -3.19282e-10 1.13516e-09 0.5 1.48677e-10 8.64199e-10 2.38224e-10 3.73551e-10 1.30628e-09 -1.26826e-09 
107 1 1.66076 1.61825 0.747451 0 0 1 -3.91578e-09 -1.73643e-09 -3.33948e-09 3.3024e-09 1.39744e-09 3.04297e-09 5.00838e-09 -3.77699e-10 6.20863e-10 0.5 3.44354e-09 -4.45672e-09 -4.45634e-09 -1.65884e-10 2.19923e-11 -2.90901e-09 
529 2 2.67265 2.1996 1.06195 0 0 0 -1.17573e-10 -2.94547e-09 2.07104e-09 4.41432e-12 2.50974e-09 -1.7677e-09 4.55538e-09 1.5105e-10 1.24869e-09 0.5 -1.45656e-09 -3.39387e-09 -3.96435e-09 2.50532e-09 -1.55436e-09 8.64636e-10 
515 2 4.38643 0.435908 1.64385 0 0 0 6.05398e-10 -5.1669e-09 -3.46301e-09 -4.81816e-10 4.51562e-09 2.85943e-09 2.77686e-09 -2.67753e-10 7.05387e-10 0.5 -2.29185e-10 -2.67913e-09 -5.85264e-09 -5.17922e-09 1.29092e-10 1.08491e-09 
244 1 4.11373 0.570462 0.682724 0 1 1 7.16136e-10 1.51174e-09 -2.36485e-09 -6.07674e-10 -1.20928e-09 1.94019e-09 4.01417e-09 1.25304e-09 1.45715e-10 0.5 -1.94794e-09 -1.74407e-09 -5.65334e-09 -3.70867e-10 1.1854e-09 7.76064e-10 
20 1 2.90179 0.570818 1.78382 0 0 0 2.79072e-10 -4.78925e-09 -4.21896e-09 -2.55453e-10 4.13265e-09 3.58958e-09 1.83667e-09 -1.14591e-09 1.04551e-09 0.5 -3.04728e-09 -7.20129e-09 -1.09147e-08 2.9113e-09 4.78466e-09 -6.66923e-09 
280 1 4.09077 1.582 1.14626 0 0 0 5.42878e-10 -1.46296e-09 6.19811e-11 -4.85696e-10 1.34654e-09 -1.62352e-10 4.27318e-09 -4.12775e-10 1.42018e-10 0.5 -1.40472e-09 -2.45699e-09 -7.21602e-09 7.58112e-10 4.15992e-09 1.59131e-09 
620 2 1.3946 4.37082 0.857654 0 0 1 3.00781e-10 -5.55172e-09 6.6165e-09 -8.01742e-11 4.77274e-09 -5.58068e-09 3.41948e-09 2.21317e-09 -1.77352e-09 0.5 -1.76986e-09 -8.37982e-09 -1.22185e-08 2.14001e-10 -1.10328e-09 1.25012e-09 
1000 2 3.60332 2.39824 0.339819 0 1 1 3.68654e-09 1.26291e-09 4.42377e-09 -3.0506e-09 -1.05206e-09 -3.90912e-09 3.08984e-09 -2.34542e-10 -7.55636e-11 0.5 -5.29927e-09 -9.27796e-09 -5.68791e-09 -4.68209e-10 -4.55442e-09 -1.43244e-09 
103 1 3.28431 3.68319 0.698947 0 0 1 2.19505e-10 -2.42356e-09 8.19536e-09 -1.53889e-10 2.11892e-09 -7.14687e-09 2.45375e-09 1.48612e-10 1.29732e-09 0.5 -2.00013e-09 -1.87997e-09 -2.76111e-09 1.93258e-09 2.12604e-10 -3.36217e-10 
622 2 0.930663 4.80385 0.0848388 0 0 1 1.69373e-10 -3.36528e-10 9.61594e-09 1.62092e-11 2.62598e-10 -8.17897e-09 4.53027e-09 -3.6529e-10 -5.92389e-10 0.5 -1.02026e-10 8.97422e-10 -5.74559e-09 -5.11028e-10 -2.48615e-09 1.29712e-09 
506 2 0.74356 1.4513 1.18235 0 0 0 -5.57575e-09 -8.75739e-09 -6.38865e-09 4.7471e-09 7.40591e-09 5.68533e-09 3.87339e-09 -7.03805e-10 2.59894e-09 0.5 1.52413e-09 -1.14649e-08 -1.86499e-09 1.32163e-08 2.76169e-09 -7.03114e-09 
626 2 1.28815 3.41645 0.566227 0 0 1 -4.94987e-09 -3.22161e-09 1.83347e-09 4.22083e-09 2.78753e-09 -1.44932e-09 2.51537e-09 -1.46427e-09 5.6879e-10 0.5 -6.56556e-09 -9.53192e-09 -1.78908e-09 5.27404e-09 4.31523e-09 -2.79318e-09 
553 2 0.744043 0.0774004 1.56305 0 0 0 -1.05646e-09 -6.55651e-09 -9.61074e-09 8.6166e-10 5.56584e-09 8.52901e-09 3.79113e-10 -2.01819e-09 3.16721e-09 0.5 1.20285e-09 5.55766e-10 9.62056e-10 1.77296e-10 4.47314e-10 -1.52005e-09 
135 1 1.54769 3.20472 1.67709 0 0 0 1.80472e-09 -8.31378e-09 9.05005e-10 -1.61113e-09 7.10519e-09 -6.6879e-10 2.73009e-09 -3.78936e-09 -9.45435e-10 0.5 4.30736e-10 -1.71572e-08 -3.43391e-09 4.29751e-09 1.75363e-09 -1.0131e-10 
624 2 4.32461 4.92098 1.47156 0 0 1 3.64216e-09 -1.27777e-09 6.75146e-09 -2.97522e-09 1.28083e-09 -5.93685e-09 1.76696e-09 -4.36253e-11 1.09679e-09 0.5 1.65906e-09 1.30555e-09 -4.30909e-09 1.66987e-09 -3.07623e-09 -3.57682e-09 
256 1 4.58719 1.36786 0.305 0 0 0 8.71871e-10 2.20865e-09 -6.80417e-10 -7.34334e-10 -1.74938e-09 5.05199e-10 4.22433e-09 8.14113e-10 -1.24332e-09 0.5 -1.02909e-09 -3.86616e-09 -5.00732e-09 -2.43304e-09 4.00616e-10 -5.58285e-09 
260 1 3.31854 0.0700552 1.02517 0 0 0 1.69393e-09 -2.03002e-09 -5.26709e-09 -1.35784e-09 1.79442e-09 4.51466e-09 1.78406e-09 2.0808e-09 1.07809e-10 0.5 -2.27105e-09 -7.03357e-09 -7.9484e-09 -1.28335e-10 1.21111e-09 -4.81331e-09 
616 2 3.19106 4.4806 1.50664 0 0 1 1.74251e-09 -6.76906e-09 6.42903e-09 -1.54582e-09 5.88855e-09 -5.64926e-09 -3.80541e-10 7.43632e-10 1.18147e-09 0.5 -3.16656e-09 -1.27234e-09 -1.42141e-09 1.92077e-09 3.20303e-10 -8.25264e-10 
106 1 1.74522 2.23558 1.52961 0 0 1 -6.23364e-11 -8.84144e-09 1.85421e-09 -4.79134e-11 7.55357e-09 -1.45133e-09 3.55436e-09 -1.30494e-09 -8.19028e-10 0.5 2.33873e-09 -9.07828e-09 -2.85509e-09 2.76606e-09 2.63501e-09 -3.50736e-09 
157 1 1.3897 4.17879 1.83903 0 0 0 2.48933e-09 -9.03771e-09 5.94768e-09 -2.11885e-09 7.74568e-09 -5.02072e-09 3.43039e-09 5.60937e-10 4.45921e-10 0.5 -3.75191e-09 -1.29177e-08 -1.36111e-08 2.98893e-09 4.42665e-09 -2.57882e-09 
516 2 2.34691 0.89043 0.68796 0 0 0 -9.19521e-10 1.00951e-09 -2.16704e-09 7.33136e-10 -9.0356e-10 1.95066e-09 4.30434e-10 -1.20151e-09 1.66024e-10 0.5 7.75839e-10 -3.79469e-09 -1.07761e-09 8.89691e-10 2.32384e-09 -3.42468e-09 
183 1 0.415258 4.58221 1.00381 0 0 0 8.6539e-10 -7.86965e-09 1.39217e-08 -5.51403e-10 6.76194e-09 -1.17824e-08 6.72693e-09 3.50508e-09 3.89112e-10 0.5 1.11422e-10 -4.31191e-10 7.72697e-10 6.09017e-10 -9.92202e-10 7.42498e-10 
625 2 0.399951 3.91216 0.210014 0 0 1 -1.6801e-09 2.9927e-10 6.84519e-09 1.58696e-09 -2.82497e-10 -5.69617e-09 6.45087e-09 -5.75531e-10 -2.80862e-09 0.5 -2.64886e-10 8.86747e-11 -1.21475e-09 -2.80299e-10 -5.06176e-10 1.17327e-09 
91 1 2.22066 4.71676 1.69645 0 0 1 2.1516e-09 -8.11961e-09 7.73981e-09 -1.88294e-09 7.01859e-09 -6.65651e-09 1.67791e-10 2.48175e-10 3.02235e-10 0.5 -3.51114e-09 -2.18358e-09 -9.71328e-10 -7.40536e-10 6.34564e-10 -8.10695e-10 
257 1 4.94043 2.69123 1.70827 0 0 0 1.35663e-09 -4.31979e-09 5.15973e-09 -1.1835e-09 3.84267e-09 -4.51974e-09 1.73089e-09 2.46959e-11 -6.41652e-10 0.5 -7.75165e-09 -5.37766e-09 -1.33973e-08 5.87153e-10 -4.49421e-09 -2.59376e-09 
4 1 3.72174 1.12777 1.95711 0 0 0 4.42522e-10 -5.68438e-09 -2.34628e-09 -3.8786e-10 4.92872e-09 1.91703e-09 2.78078e-09 -2.21582e-10 2.65892e-10 0.5 -1.02468e-09 -1.77839e-09 -9.7103e-09 -1.73624e-09 1.53656e-09 4.74785e-09 
609 2 1.99624 4.76004 0.136921 0 0 1 5.53276e-10 -3.04242e-09 9.3475e-09 -3.78676e-10 2.64155e-09 -8.04811e-09 1.4003e-09 -9.27939e-10 1.50847e-09 0.5 -1.53522e-08 -4.72233e-08 -6.50518e-09 1.33613e-08 3.12869e-09 -1.01059e-08 
117 1 3.12746 1.31374 1.15363 0 1 0 8.95966e-10 -2.81476e-09 -1.6708e-09 -7.90007e-10 2.42767e-09 1.38867e-09 3.6109e-09 -9.5293e-11 2.71661e-10 0.5 6.09342e-10 -2.5456e-09 -5.15018e-10 1.56102e-09 2.40316e-11 1.93788e-09 
511 2 1.08079 2.25054 0.230642 0 0 0 -1.92999e-09 2.75613e-09 -1.77222e-10 1.62973e-09 -2.46449e-09 2.82465e-10 6.2631e-09 -1.39874e-09 -1.23301e-09 0.5 -2.50199e-09 -7.56872e-09 -1.71815e-08 1.60485e-09 7.26021e-09 -5.08614e-09 
911 2 0.492018 0.563612 0.697612 1 0 0 -1.31932e-09 -4.92851e-09 -9.10126e-09 1.11488e-09 4.0613e-09 8.04817e-09 7.07703e-10 -1.27759e-09 3.76453e-10 0.5 1.98873e-09 -8.59772e-09 -3.91762e-11 -8.56537e-10 6.87774e-10 -3.41299e-09 
668 2 0.00216515 3.81975 1.93315 0 0 0 -1.18746e-09 -1.54982e-08 6.75892e-09 9.34264e-10 1.31693e-08 -5.68157e-09 1.60684e-09 1.23646e-09 -1.38494e-09 0.5 -1.22551e-08 -2.96367e-08 -1.24839e-08 8.98091e-09 -3.49765e-09 -2.73235e-10 
90 1 2.93989 4.58015 0.420403 0 0 1 4.81835e-10 -1.79861e-09 9.92285e-09 -2.72812e-10 1.60991e-09 -8.66689e-09 1.45588e-09 -3.71127e-10 1.7295e-09 0.5 -3.60329e-09 3.09877e-09 -9.26687e-10 6.60727e-09 3.45436e-09 1.16226e-09 
734 2 4.13742 3.24508 0.37494 0 1 1 2.14268e-09 2.02682e-09 8.68191e-09 -1.8024e-09 -1.66442e-09 -7.57391e-09 3.97949e-09 4.95295e-10 5.8532e-10 0.5 -3.30043e-09 -2.22074e-09 -1.19515e-10 2.2097e-09 1.1738e-09 -1.81101e-09 
672 2 0.0675425 1.98557 1.68985 0 0 0 -6.59202e-09 -1.24257e-08 -3.87181e-09 5.6303e-09 1.05775e-08 3.51486e-09 4.10064e-09 -7.76613e-10 1.46846e-09 0.5 -1.39695e-08 -2.90149e-08 -1.07822e-08 1.13737e-08 7.64748e-09 -7.11906e-11 
759 2 4.95866 2.03867 0.950748 0 0 0 1.16034e-09 -1.49745e-09 2.72216e-09 -1.08059e-09 1.38238e-09 -2.40316e-09 3.66323e-09 -6.18952e-10 -1.00661e-09 0.5 -7.11661e-10 -9.7525e-09 -4.67898e-09 -1.47366e-09 -8.45713e-10 -1.13519e-09 
21 1 1.84566 0.35675 2.43115 0 0 0 -1.86503e-09 -8.78149e-09 -7.11436e-09 1.62718e-09 7.55075e-09 6.20302e-09 1.73007e-09 -1.56879e-09 2.67317e-09 0.5 2.34069e-11 -4.20777e-10 -1.25398e-10 5.2482e-10 2.28354e-10 -7.63821e-10 
682 2 2.73058 4.0836 2.7725 0 0 0 1.60657e-09 -5.6276e-09 5.97241e-09 -1.40935e-09 4.89617e-09 -5.18855e-09 -1.06712e-10 3.15864e-10 8.13656e-10 0.5 -8.56751e-09 -5.17623e-09 -9.52113e-10 5.67799e-09 3.53643e-09 6.42948e-09 
907 2 0.982097 4.62503 2.63573 1 0 0 1.027e-09 -1.28217e-08 7.32398e-09 -9.63653e-10 1.08925e-08 -6.19115e-09 5.85125e-10 -1.23996e-09 7.26391e-10 0.5 -9.31508e-09 -1.10908e-08 -1.27983e-08 4.54397e-09 5.38295e-09 -3.93202e-09 
144 1 1.68507 3.60062 2.81087 0 0 0 1.89409e-09 -1.09858e-08 1.33306e-09 -1.70577e-09 9.38667e-09 -1.11892e-09 -3.09386e-10 8.61071e-10 2.60854e-10 0.5 -6.31915e-09 -1.5983e-09 -2.50338e-09 3.70255e-09 -1.55026e-09 7.43695e-11 
675 2 2.83107 4.7385 3.54541 0 0 0 -1.94998e-10 -3.64419e-09 6.00609e-09 -2.04726e-11 3.24854e-09 -5.2342e-09 -1.41562e-09 1.05613e-09 -1.44203e-10 0.5 4.48732e-10 1.99129e-09 4.00673e-09 1.93619e-09 -8.54627e-10 3.47581e-09 
502 2 4.38953 1.31124 3.26921 0 0 0 -8.50702e-10 -3.88376e-09 -1.90209e-09 5.91412e-10 3.48652e-09 1.53149e-09 6.4772e-10 6.92665e-11 -3.40717e-10 0.5 -6.56793e-09 -3.23269e-09 -4.25448e-09 -3.32072e-09 3.02876e-09 6.88241e-09 
27 1 2.60908 0.300739 3.21066 0 0 0 -4.87546e-10 -7.05184e-09 -4.98266e-09 3.00012e-10 6.05159e-09 4.25187e-09 3.09919e-11 -1.0358e-09 1.34396e-09 0.5 -5.97374e-09 -7.62433e-09 -1.42012e-08 3.07363e-09 4.67571e-09 1.24893e-09 
965 2 1.35576 3.65812 3.79896 1 0 0 2.80218e-09 -1.32495e-08 4.00172e-10 -2.46033e-09 1.1248e-08 -2.75459e-10 -7.74006e-10 2.20379e-09 -1.74681e-09 0.5 -2.4951e-09 -7.63369e-09 -8.28944e-09 4.44273e-09 -2.89485e-09 5.18325e-09 
61 1 1.66165 0.448609 3.51352 0 0 0 -2.28675e-09 -1.13545e-08 -9.31495e-09 1.87628e-09 9.62052e-09 8.14919e-09 3.91622e-10 -3.44448e-10 2.14184e-09 0.5 -4.18741e-09 -1.89791e-10 -8.47151e-10 1.05867e-09 2.69018e-09 -3.04716e-10 
680 2 1.1901 2.78151 3.34693 0 0 0 -2.69136e-09 -1.20241e-08 7.32883e-11 2.2295e-09 1.02156e-08 -3.63281e-11 4.84109e-10 1.16185e-09 -2.88963e-10 0.5 2.37196e-10 -2.56366e-09 -3.8193e-09 6.16792e-10 1.55164e-09 1.12226e-09 
251 1 4.71421 3.03382 3.89556 0 0 0 3.05593e-09 -5.03904e-09 5.05923e-09 -2.75744e-09 4.46501e-09 -4.45897e-09 2.20574e-09 1.61744e-09 -2.39474e-09 0.5 -7.62373e-09 -1.46331e-09 2.79942e-10 -5.20699e-09 2.38615e-09 4.47107e-09 
517 2 4.0089 2.89361 2.21821 0 0 0 1.8952e-09 -4.58918e-09 4.8585e-09 -1.62438e-09 4.1216e-09 -4.24387e-09 9.2329e-10 8.84584e-11 -3.23537e-10 0.5 -1.01603e-10 -6.00054e-11 -2.62832e-09 -5.34598e-11 -5.71326e-10 1.30417e-09 
6 1 3.42179 1.77987 2.73262 0 0 0 -1.12325e-09 -4.53727e-09 2.41116e-09 8.51277e-10 3.94478e-09 -2.15385e-09 2.61273e-09 -3.13767e-10 1.75714e-09 0.5 -7.84696e-09 1.90086e-09 1.22538e-09 3.40058e-09 3.65447e-09 2.47686e-09 
519 2 4.43345 3.61408 3.03093 0 0 0 1.09974e-09 -2.94625e-09 7.31571e-09 -9.96877e-10 2.70793e-09 -6.40679e-09 8.8339e-10 5.77729e-10 -2.94945e-10 0.5 4.93439e-10 4.19272e-09 2.93733e-09 -2.90386e-09 -1.20509e-09 2.21828e-09 
509 2 1.93621 1.51608 3.62332 0 0 0 2.1352e-09 -1.0488e-08 -7.83189e-09 -1.95732e-09 8.86185e-09 6.88349e-09 -6.34136e-10 3.45832e-09 -4.57785e-11 0.5 9.94981e-10 -1.13997e-09 -8.95544e-09 -1.13368e-09 1.94393e-09 2.53953e-09 
142 1 1.03537 1.94217 2.17003 0 0 0 -4.00054e-09 -9.97076e-09 -3.0207e-09 3.34512e-09 8.47219e-09 2.72759e-09 3.58141e-09 5.62509e-11 7.02503e-10 0.5 -2.50427e-10 -1.92098e-09 -2.1922e-09 3.07101e-09 -1.3081e-09 2.66491e-09 
941 2 0.192203 2.2584 2.77344 1 0 0 -5.49317e-09 -1.44257e-08 -2.45993e-09 4.65392e-09 1.23145e-08 2.25866e-09 2.1763e-09 2.9275e-10 6.09378e-10 0.5 -1.77934e-09 -5.83909e-09 -8.07847e-09 3.0048e-10 1.02935e-09 5.96352e-10 
919 2 0.650389 4.31552 3.53385 1 0 0 -7.473e-11 -1.41406e-08 5.83526e-09 -4.36565e-13 1.20245e-08 -4.90658e-09 1.88889e-09 7.83186e-10 -2.2487e-09 0.5 -5.79103e-09 -1.01684e-08 -5.85419e-09 5.70713e-09 -1.17386e-10 3.62756e-09 
95 1 3.53903 3.77814 2.2694 0 0 1 2.34401e-09 -4.43035e-09 6.42774e-09 -2.03736e-09 3.96859e-09 -5.62668e-09 1.28169e-10 9.60144e-11 3.62203e-10 0.5 -3.82852e-09 -1.26835e-09 -7.22058e-09 8.80171e-10 2.26662e-09 -9.6019e-10 
458 1 1.5569 4.7536 3.86468 1 0 0 6.4521e-10 -9.74184e-09 8.33747e-09 -6.69596e-10 8.254e-09 -7.16197e-09 -1.76166e-09 4.12722e-10 6.3208e-10 0.5 -3.97929e-09 -2.47988e-09 -2.34944e-09 3.29767e-09 -6.81375e-10 -9.49488e-11 
41 1 1.14045 0.960462 2.01108 0 0 0 -2.81682e-09 -9.28985e-09 -6.2832e-09 2.34188e-09 7.88183e-09 5.57644e-09 3.15982e-09 -4.68703e-10 1.65364e-09 0.5 -3.08172e-09 -2.71925e-09 -7.41943e-09 1.84403e-09 4.5845e-09 -2.4857e-09 
814 2 0.27112 1.22753 3.40348 1 0 0 -8.57106e-10 -1.18929e-08 -5.28448e-09 6.24473e-10 1.00995e-08 4.73841e-09 1.72752e-09 -1.05935e-09 3.20735e-09 0.5 -6.13076e-09 -6.39702e-09 -7.50089e-09 2.49912e-09 5.44839e-09 7.96873e-09 
130 1 1.70518 2.6475 2.50033 0 0 0 -3.01047e-09 -1.0505e-08 -3.63509e-10 2.51853e-09 8.95319e-09 4.18727e-10 2.87594e-09 -1.15128e-09 -1.27392e-09 0.5 -1.79307e-09 -7.95224e-09 -7.0232e-09 4.04813e-09 2.62855e-09 5.14811e-09 
12 1 2.70258 1.09575 2.61132 0 0 0 1.17588e-09 -5.94892e-09 -3.26413e-09 -1.07321e-09 5.08803e-09 2.77681e-09 1.75883e-09 -2.11948e-09 1.86753e-09 0.5 -9.7051e-09 -1.15836e-08 -8.04234e-09 6.47685e-09 3.72157e-09 3.5753e-10 
512 2 3.18635 2.03167 3.78747 0 0 0 9.1407e-10 -1.47193e-09 3.15839e-09 -9.62228e-10 1.23929e-09 -2.67789e-09 2.09576e-09 -4.9803e-10 1.43139e-09 0.5 -2.22668e-09 -4.30941e-09 -3.8528e-09 8.76681e-10 -8.94507e-10 4.59377e-09 
151 1 2.47925 3.30049 3.34132 0 0 0 1.36969e-09 -6.65412e-09 4.45845e-09 -1.19079e-09 5.77724e-09 -3.84009e-09 -7.33454e-10 -6.99407e-10 4.68252e-10 0.5 -2.86615e-09 -1.04095e-08 -9.79836e-09 2.56478e-09 2.20071e-09 2.72072e-09 
667 2 0.284319 1.3208 2.4071 0 0 0 -2.82403e-09 -1.22831e-08 -5.22593e-09 2.3575e-09 1.04524e-08 4.69046e-09 2.07274e-09 6.32179e-10 1.86731e-09 0.5 -3.59006e-09 -1.65613e-08 -1.27736e-08 9.48458e-10 -1.05346e-10 1.66406e-09 
38 1 3.79042 0.738149 3.87284 0 0 0 3.24477e-10 -8.4884e-10 -2.57834e-09 -4.98793e-10 7.86596e-10 2.13373e-09 -2.19463e-09 -6.24469e-10 1.85462e-10 0.5 -6.1406e-09 -1.94305e-09 -1.55603e-08 -6.95847e-09 3.53475e-09 1.13064e-08 
936 2 0.319906 3.36948 3.50683 1 0 0 -5.09175e-09 -1.22199e-08 2.26504e-09 4.29416e-09 1.03758e-08 -1.80083e-09 2.06986e-09 -1.73999e-09 -1.24537e-09 0.5 5.19711e-10 -1.23534e-08 -5.05578e-09 1.8815e-10 5.85029e-09 7.93596e-09 
531 2 4.80013 0.808197 2.48028 0 0 0 -2.3884e-09 -6.70038e-09 -1.70856e-09 1.95828e-09 5.90677e-09 1.36802e-09 2.03919e-10 -2.8261e-10 -1.07925e-09 0.5 -2.23817e-09 1.89305e-10 -4.62009e-09 -2.74712e-09 -4.35702e-09 -2.26221e-09 
527 2 4.03024 4.31517 3.61908 0 0 0 2.00699e-09 -3.22393e-09 8.36457e-09 -1.84025e-09 2.89903e-09 -7.29788e-09 -1.09411e-09 -1.98745e-11 3.78765e-10 0.5 -5.18806e-10 7.7313e-10 3.25245e-09 -2.25057e-09 -1.23953e-09 4.33176e-09 
383 1 4.36293 4.34454 2.28892 0 0 1 8.36985e-10 -2.23161e-09 6.24797e-09 -7.04672e-10 2.07765e-09 -5.5143e-09 3.46613e-10 -6.33738e-10 5.09184e-11 0.5 -3.90563e-09 -7.64829e-10 2.12476e-09 3.44594e-09 -9.54793e-10 -1.75401e-09 
992 2 0.695682 0.439322 3.85269 1 1 0 -4.2756e-10 -1.26185e-08 -7.4919e-09 2.58017e-10 1.07014e-08 6.58633e-09 4.6531e-10 1.91818e-09 1.20963e-09 0.5 -5.03421e-09 -1.25216e-08 -2.83085e-09 3.66924e-09 -1.77445e-09 6.52341e-09 
521 2 4.93615 4.52796 3.25037 0 0 0 1.19306e-09 -2.40496e-09 6.84554e-09 -1.13721e-09 2.17014e-09 -6.02115e-09 -7.9507e-10 4.80894e-10 3.83697e-10 0.5 9.88293e-10 -3.2291e-09 -3.47207e-09 -5.99004e-11 -5.6492e-10 4.14332e-09 
136 1 1.88498 1.67143 2.62265 0 0 0 -2.5607e-09 -1.11872e-08 -6.44771e-09 2.11048e-09 9.54011e-09 5.69678e-09 1.2349e-09 1.77984e-09 1.33439e-09 0.5 -1.12337e-08 -1.15457e-08 -7.53079e-09 8.03891e-09 -1.06404e-09 3.39278e-09 
540 2 4.51129 0.178592 3.415 0 0 0 -7.49318e-10 -4.04109e-09 -3.07897e-09 5.05365e-10 3.63703e-09 2.50991e-09 -1.8047e-09 9.87904e-10 -1.31221e-09 0.5 3.45633e-09 2.20518e-09 5.59787e-10 -2.09421e-09 -1.43682e-09 2.05231e-09 
510 2 3.85504 2.56842 3.17077 0 0 0 -1.4644e-09 -4.89903e-09 3.58149e-09 1.10463e-09 4.30002e-09 -3.20675e-09 4.35271e-10 -2.5064e-10 7.46252e-11 0.5 3.10752e-09 4.56508e-09 -2.84696e-09 8.54946e-10 4.93216e-10 3.87259e-09 
19 1 4.3655 1.84749 2.40882 0 0 0 -1.85812e-09 -5.84397e-10 1.08782e-09 1.44119e-09 5.93055e-10 -1.06437e-09 1.06053e-09 2.92363e-10 2.47038e-10 0.5 -1.13813e-08 -4.66443e-10 -5.96459e-09 5.97481e-10 5.07159e-09 1.09982e-09 
543 2 1.07326 1.78713 3.19513 0 0 0 -4.91024e-10 -1.17162e-08 -3.40461e-09 2.98543e-10 9.92559e-09 3.0758e-09 2.49801e-09 2.26637e-09 8.5224e-10 0.5 -1.01784e-09 -1.50394e-09 -5.89581e-10 -2.18602e-09 1.83219e-09 1.07985e-09 
773 2 4.78774 2.22773 3.30763 0 0 0 -9.85189e-10 -4.03258e-09 3.0541e-09 7.04756e-10 3.60085e-09 -2.7455e-09 1.02015e-09 1.07162e-09 -8.31723e-10 0.5 5.56088e-10 -9.0319e-09 -1.74133e-08 -1.5752e-09 3.47727e-09 1.77116e-08 
555 2 2.23907 2.5056 3.89852 0 0 0 8.11048e-10 -5.80727e-09 5.42737e-09 -8.51195e-10 5.101e-09 -4.67999e-09 -7.3053e-10 -1.9178e-10 6.56813e-10 0.5 2.5031e-09 3.07e-09 3.14206e-09 1.38473e-09 1.32901e-10 3.51014e-09 
429 1 0.306925 2.40106 3.75655 1 0 0 -4.05137e-09 -1.33464e-08 -2.78315e-09 3.39464e-09 1.13505e-08 2.54716e-09 1.35227e-09 5.57072e-10 2.44586e-09 0.5 -2.37374e-09 -2.00003e-08 -1.14445e-08 4.64573e-09 -3.02223e-09 1.10727e-08 
316 1 0.889712 0.512877 2.86992 1 0 0 -3.48545e-09 -1.23219e-08 -8.10185e-09 2.90289e-09 1.04596e-08 7.1203e-09 1.42124e-09 2.23555e-10 1.93449e-09 0.5 9.90461e-10 -2.41008e-09 -1.86267e-09 8.23937e-10 5.98954e-10 2.38753e-09 
503 2 3.61689 0.768796 2.88623 0 0 0 6.28179e-10 -5.75038e-09 -2.52932e-09 -5.80011e-10 4.98782e-09 2.06728e-09 -2.96658e-10 -4.70436e-10 1.05317e-09 0.5 -2.34849e-09 2.28228e-10 -1.21104e-08 5.95974e-10 -1.10836e-09 3.42749e-09 
896 2 0.702247 3.66501 2.63024 1 0 0 1.20705e-09 -1.2861e-08 4.94467e-09 -1.13791e-09 1.09263e-08 -4.11271e-09 1.51117e-09 6.90223e-10 -6.70917e-10 0.5 -8.47828e-09 -4.18752e-09 -1.29726e-08 2.30928e-09 -4.58211e-09 3.82678e-09 
690 2 1.93672 4.67095 2.92999 0 0 0 4.54234e-10 -7.83389e-09 8.40892e-09 -4.64469e-10 6.71454e-09 -7.20905e-09 -1.70043e-10 4.91861e-10 2.11569e-09 0.5 -9.07865e-09 -4.55525e-09 -1.89687e-09 6.04712e-09 -1.12572e-10 -1.00901e-09 
641 2 3.45948 3.5005 3.22725 0 0 0 1.00425e-09 -3.358e-09 6.58163e-09 -9.01833e-10 3.01388e-09 -5.77112e-09 -6.86097e-10 -1.53923e-10 8.34991e-10 0.5 -1.0265e-09 1.16428e-09 -5.80497e-09 1.61629e-09 -3.0234e-09 7.21285e-09 
528 2 3.34275 4.80215 2.44243 0 0 0 2.01941e-09 -5.9338e-09 6.07006e-09 -1.82303e-09 5.15349e-09 -5.32845e-09 -1.07336e-10 2.06532e-10 3.6792e-10 0.5 -6.93086e-10 -1.29314e-09 -2.73972e-09 -1.2618e-09 -5.19513e-10 -7.4385e-10 
225 1 2.66658 2.37982 2.99794 0 0 1 -2.60887e-09 -7.07876e-09 3.70754e-09 2.14696e-09 6.11989e-09 -3.16692e-09 -5.82763e-10 1.44196e-09 7.01468e-10 0.5 -2.95466e-09 -7.54039e-09 -7.64694e-10 4.55727e-09 -2.41608e-09 -2.10471e-11 
119 1 0.614476 2.84343 2.06694 0 0 0 -5.53424e-09 -1.01464e-08 2.0346e-09 4.67627e-09 8.6243e-09 -1.64369e-09 3.43317e-09 3.89897e-10 -9.90899e-11 0.5 1.60875e-09 -5.05257e-09 -8.87263e-09 1.74572e-09 3.41399e-09 3.07941e-10 
94 1 2.46189 3.50067 2.00487 0 0 1 -3.94093e-10 -7.5592e-09 8.06532e-09 3.06953e-10 6.49982e-09 -6.94934e-09 1.3283e-09 -3.37212e-10 4.32539e-10 0.5 1.8499e-09 2.58493e-09 9.38272e-10 2.33606e-09 1.91023e-09 3.02609e-09 
522 2 2.58373 2.50801 2.00903 0 0 0 -1.1873e-09 -7.69094e-09 3.51678e-09 9.76806e-10 6.61134e-09 -3.00811e-09 2.64956e-09 -9.81969e-10 1.04117e-09 0.5 6.0359e-10 6.763e-10 -2.99115e-09 2.42721e-09 2.41415e-09 8.62948e-10 
200 1 2.46549 0.208501 4.19599 0 1 0 2.48023e-09 -4.21379e-09 -4.28197e-09 -2.38668e-09 3.62582e-09 3.59365e-09 -2.57993e-09 -1.80373e-09 4.23958e-09 0.5 -6.13053e-09 -3.32836e-09 -1.11183e-08 1.88757e-09 3.96095e-09 2.97121e-09 
114 1 4.70709 1.00384 4.17137 0 0 0 -7.62807e-11 -1.0068e-09 -1.20341e-09 -7.0075e-11 1.01353e-09 9.71477e-10 -9.1741e-10 -6.09279e-10 -9.92998e-10 0.5 -3.91247e-09 6.04515e-11 -1.0065e-09 -4.84479e-10 -2.52511e-09 -1.93666e-10 
820 2 1.30996 2.29325 4.21136 1 0 0 7.4257e-11 -9.0818e-09 1.35179e-09 -1.43082e-10 7.68525e-09 -1.04109e-09 -1.59285e-09 -1.07804e-09 2.564e-09 0.5 1.07215e-09 2.58322e-09 -2.62681e-09 8.08914e-09 1.95135e-09 4.40242e-09 
47 1 4.65574 1.582 5.43553 0 0 0 2.50353e-09 7.21575e-10 8.12855e-10 -2.39223e-09 -4.54147e-10 -7.91544e-10 3.14085e-10 1.56508e-09 6.9929e-10 0.5 -4.14841e-09 -6.9488e-09 -2.83492e-09 -1.70766e-09 -3.42175e-09 5.78988e-09 
824 2 1.64908 3.83184 5.79238 1 0 0 8.72489e-10 2.64397e-09 8.49809e-09 -7.67329e-10 -2.25575e-09 -7.243e-09 -2.14414e-09 2.43848e-10 -7.1298e-10 0.5 -1.35958e-09 -1.1052e-09 -4.83261e-09 -2.72251e-10 -3.69178e-11 1.71991e-09 
172 1 3.44268 0.338821 4.72114 0 1 0 -4.37479e-10 3.33678e-09 -9.14563e-10 1.19386e-10 -2.85296e-09 6.23597e-10 -2.95707e-09 -7.93034e-10 1.40111e-09 0.5 -5.58995e-09 -5.86864e-09 -2.03263e-08 -4.91801e-09 4.95272e-09 8.4772e-09 
718 2 0.202285 2.03673 5.5128 0 1 0 -9.89225e-10 -3.72046e-09 2.30542e-09 7.02073e-10 3.06709e-09 -1.8431e-09 -2.21797e-09 -9.74541e-10 -3.20801e-10 0.5 -9.66236e-09 -2.25504e-09 -6.34148e-09 4.65507e-09 -4.90532e-09 1.32358e-08 
505 2 0.484433 3.5018 5.83385 0 0 -1 -1.02282e-09 3.44465e-09 6.54753e-09 8.74105e-10 -3.15355e-09 -5.52232e-09 4.70848e-10 -1.12903e-09 2.97628e-09 0.5 -2.51645e-11 -1.68339e-08 -8.69812e-09 1.02619e-09 -2.40225e-10 1.39854e-08 
524 2 3.99535 2.7352 5.70679 0 0 0 6.97114e-09 8.73951e-09 9.63763e-09 -6.29455e-09 -7.33382e-09 -8.50379e-09 -2.28746e-09 6.48508e-09 3.21417e-09 0.5 1.74584e-10 1.55579e-09 1.83766e-09 -1.32652e-09 -1.49527e-09 1.59063e-09 
839 2 0.579387 1.61472 4.31101 1 0 0 1.91355e-09 -1.21091e-08 -3.94955e-09 -1.72719e-09 1.03296e-08 3.55974e-09 -8.05978e-10 5.86421e-11 2.55959e-09 0.5 -8.75386e-10 -1.29325e-08 -7.73067e-09 8.98793e-09 -7.44179e-10 1.37585e-08 
937 2 2.44361 3.38654 4.3372 1 0 0 1.65929e-09 -4.84127e-09 4.20911e-09 -1.50119e-09 4.25433e-09 -3.63437e-09 -1.72026e-09 -1.05846e-09 2.09992e-09 0.5 3.75464e-09 4.08477e-09 -8.79547e-09 5.81162e-09 4.97585e-10 4.14936e-09 
811 2 2.60623 3.94632 5.52498 1 0 0 7.25623e-14 2.52539e-09 5.36346e-09 -4.09222e-11 -2.07908e-09 -4.6018e-09 -2.08225e-09 -1.15611e-09 1.34316e-11 0.5 -9.25684e-10 -3.80703e-09 -1.28563e-09 -1.5826e-09 -1.55854e-09 4.01639e-09 
827 2 1.52088 3.18133 4.66349 1 0 0 2.04178e-09 -9.15687e-09 2.6543e-09 -1.75728e-09 7.76829e-09 -2.20114e-09 -2.96799e-09 -1.48119e-09 7.17921e-11 0.5 2.23347e-09 -6.11236e-10 -7.20965e-09 7.07594e-10 6.41516e-10 5.80507e-09 
149 1 4.05563 3.93275 4.61881 0 0 0 3.83794e-10 1.42634e-09 7.13523e-09 -4.76039e-10 -1.09519e-09 -6.24292e-09 -1.08292e-09 4.41315e-10 1.78875e-09 0.5 -3.60192e-09 -3.32938e-09 2.47681e-09 1.06122e-08 -6.61943e-09 3.04108e-09 
925 2 0.623246 3.59905 4.52293 1 0 0 3.14705e-09 -7.22332e-09 1.11118e-09 -2.75477e-09 6.01423e-09 -8.65386e-10 -2.72109e-09 1.14423e-09 -4.78808e-10 0.5 2.57549e-09 -4.5148e-09 -1.24904e-09 -1.09538e-09 -8.29294e-10 2.32048e-09 
168 1 3.33522 4.60361 5.33159 0 0 0 7.21384e-10 2.23326e-09 7.3484e-09 -7.02461e-10 -1.818e-09 -6.43027e-09 -1.79113e-09 -1.07767e-09 1.65232e-09 0.5 -5.63456e-09 -4.45719e-09 -4.68547e-09 1.71478e-09 -3.01297e-09 3.76988e-09 
928 2 1.57471 4.4088 4.9787 1 0 0 1.49157e-09 1.76542e-09 7.89864e-09 -1.28978e-09 -1.45823e-09 -6.70085e-09 -1.32189e-09 4.1716e-10 -1.25694e-09 0.5 -2.36072e-09 -2.9564e-09 -3.04662e-09 -1.4761e-09 1.90587e-10 2.66751e-09 
148 1 3.93983 3.74234 5.7457 0 0 0 -6.48785e-10 8.45609e-09 1.02115e-08 4.32343e-10 -7.08849e-09 -8.89493e-09 -2.47426e-09 -8.69331e-10 4.46292e-09 0.5 2.52976e-09 5.0542e-09 6.18966e-09 3.71062e-09 4.27556e-09 3.70727e-09 
914 2 4.69244 4.38506 5.24423 0 0 0 -2.6596e-09 4.97594e-09 7.73494e-09 2.16764e-09 -4.05081e-09 -6.85417e-09 -3.73778e-09 -9.22608e-10 -3.00176e-10 0.5 -1.67643e-10 1.32153e-09 2.29291e-09 4.13984e-10 7.8457e-10 1.45029e-09 
23 1 2.87773 1.11847 4.05716 0 0 0 -6.50595e-10 -2.89827e-09 -3.71984e-09 3.55031e-10 2.46631e-09 3.20579e-09 1.03588e-09 -7.05382e-11 1.06857e-09 0.5 -4.79124e-09 -4.55902e-09 -3.83031e-09 -1.66819e-09 2.40467e-09 3.59704e-09 
594 2 2.05586 1.97089 4.80241 0 0 0 1.895e-09 1.14365e-09 4.07234e-09 -1.75112e-09 -1.05593e-09 -3.35626e-09 1.03957e-09 -1.23528e-09 3.49704e-09 0.5 4.53756e-11 -5.99092e-09 -1.27331e-09 4.6655e-09 -2.26133e-09 3.64398e-09 
539 2 3.78455 1.04074 5.46912 0 0 0 8.86266e-10 6.76968e-09 2.22092e-09 -9.82282e-10 -5.7599e-09 -2.04793e-09 -1.1986e-09 2.18675e-09 -4.79403e-10 0.5 -2.05981e-09 -1.97336e-08 -8.56539e-09 -6.27493e-09 -5.36449e-09 1.66246e-08 
730 2 0.461765 1.11568 5.16957 0 1 0 -1.71959e-10 -4.05804e-09 4.47749e-10 -3.10805e-11 3.33951e-09 -2.31727e-10 -9.98014e-10 -5.71586e-10 3.35567e-09 0.5 5.40314e-09 -9.71684e-10 -4.58024e-09 1.00856e-09 -1.26927e-09 9.50596e-09 
689 2 3.51933 0.103669 5.69619 0 1 0 -6.426e-10 6.37365e-09 -1.17391e-09 3.61481e-10 -5.40828e-09 8.80563e-10 -7.2305e-10 -7.78967e-10 -1.26154e-10 0.5 -8.11471e-09 -2.41562e-08 -2.09243e-08 -2.68509e-09 6.29905e-10 1.81205e-08 
450 1 0.619288 4.79871 4.46892 1 0 0 7.40867e-09 -5.32837e-09 5.50843e-09 -6.38538e-09 4.47545e-09 -4.59317e-09 -5.28835e-09 -1.31133e-09 9.47487e-10 0.5 -2.58012e-09 -7.22503e-09 -1.55567e-08 6.29902e-10 -2.73688e-09 8.6201e-09 
549 2 4.49944 0.500888 5.01435 0 0 0 -3.12229e-09 2.16087e-09 5.61917e-11 2.49068e-09 -1.76802e-09 -1.74391e-10 -8.43592e-10 8.65995e-10 -2.18664e-09 0.5 6.23179e-09 8.21267e-09 3.89063e-09 -3.73051e-09 -2.25777e-09 3.94269e-09 
591 2 1.44655 1.12499 4.40334 0 0 0 3.76629e-09 -9.06906e-09 -6.21654e-09 -3.35871e-09 7.63656e-09 5.49282e-09 -1.56825e-09 1.70078e-09 3.22376e-10 0.5 -5.02158e-09 -7.75633e-09 -6.01898e-09 2.00079e-09 6.82119e-10 5.94493e-09 
243 1 1.20287 1.83742 5.34381 0 1 0 -1.42099e-09 -1.40855e-10 -3.64274e-10 1.05986e-09 -1.06906e-11 4.16959e-10 -8.50004e-10 -6.48845e-10 1.8583e-09 0.5 -2.78596e-09 -3.03811e-09 -1.22052e-09 3.9392e-09 -1.38496e-09 4.44107e-09 