ITEM: TIMESTEP
100500
ITEM: NUMBER OF ATOMS
1000
ITEM: BOX BOUNDS xy xz yz pp pp pp
0.0000000000000000e+00 1.0000000000000000e+01 0.0000000000000000e+00
0.0000000000000000e+00 1.0000000000000000e+01 0.0000000000000000e+00
0.0000000000000000e+00 1.0000000000000000e+01 0.0000000000000000e+00
ITEM: ATOMS id type x y z ix iy iz vx vy vz fx fy fz omegax omegay omegaz radius c_2[1] c_2[2] c_2[3] c_2[4] c_2[5] c_2[6] 
120 1 3.18994 1.47963 0.0508236 0 1 0 -0.0874724 0.139159 0.0273409 0.135886 -0.247771 -0.0181372 -0.00139536 -0.0173063 -0.0116665 0.5 -0.0189065 -0.0637588 -0.0126051 0.010507 0.00685112 -0.024413 
525 2 2.12811 1.27592 1.73669 0 0 0 -0.0191286 -0.0619352 -0.0369037 0.00412159 0.0648089 0.0113454 0.00440129 0.0128864 0.00739332 0.5 -0.00291632 -0.0117971 -0.0011134 0.0103261 -0.00432263 0.00233814 
371 1 4.95927 3.7141 1.52088 0 0 1 -0.0277496 -0.0401317 0.115315 0.0498227 -0.0779496 -0.149825 0.0345992 0.000546593 -0.00411607 0.5 -0.024733 -0.0929688 0.0574701 -0.0439641 -0.0104518 0.00791773 
18 1 1.99088 2.67197 0.490004 0 0 0 -0.0207477 0.0448978 0.0707604 -0.0306038 -0.0139849 -0.0924424 0.0201562 -0.008016 0.0225953 0.5 -0.0109177 -0.139451 -0.041664 0.105218 0.0890164 -0.0681905 
94 1 2.48095 3.53768 1.95247 0 0 1 -0.0481309 -0.053693 0.0848062 0.0856385 0.0245268 -0.120394 0.0187563 -0.00342371 0.0254012 0.5 0.0937507 0.0740899 0.0769405 0.0198012 0.0434084 0.023214 
25 1 1.40454 0.705969 1.17158 0 0 0 0.030798 0.00565209 -0.166351 -0.0147119 0.0809158 0.25512 0.0485441 0.0227773 0.00471504 0.5 -0.052288 -0.243526 -0.03348 0.185392 0.0247086 -0.158557 
36 1 2.06619 0.0128747 1.61232 0 0 0 0.0553861 -0.0737152 -0.174978 0.0888363 0.0208559 0.28796 0.0106396 -0.0174055 0.0198898 0.5 0.0212753 -0.00449847 0.0392349 0.0186754 0.0737921 -0.0238783 
8 1 3.43833 2.08333 1.71305 0 0 0 0.00828249 0.00400904 0.0501986 -0.0403092 -0.0739621 -0.033278 0.0477077 0.0144389 0.00443042 0.5 -0.0372751 0.0597472 0.0589744 0.083563 0.03646 -0.0495011 
629 2 4.07479 2.61442 1.15365 0 0 1 -0.00309769 0.0155491 0.0459629 -0.00413354 0.0192315 0.106828 0.0484021 0.0117751 -0.0017309 0.5 0.0277795 -0.084671 0.0331198 0.0401382 -0.00128833 -0.034302 
5 1 2.3679 3.8758 0.977838 0 0 0 -0.0762099 0.0909622 0.114793 0.156375 -0.171704 -0.0285869 0.0197742 -6.70535e-05 -0.0103093 0.5 0.0414245 0.0129166 0.0246762 -0.0208413 -0.00110788 -0.0132361 
650 2 0.50829 3.49716 1.16429 0 0 0 -0.0962787 -0.140739 -0.0342209 0.0993967 0.219191 -0.0265816 0.0417782 0.00938437 0.045415 0.5 -0.0357528 -0.0321718 0.0577456 0.0352642 0.0179098 -0.0580409 
14 1 3.30519 3.15513 1.4939 0 0 0 -0.0215973 -0.0390023 0.0879829 0.0165603 0.141755 -0.0341202 0.0398535 0.00717933 0.0137033 0.5 0.0798689 -0.00315783 0.0264365 0.01466 0.0255698 -0.0727162 
264 1 3.99495 3.88912 1.31526 0 0 0 -0.0194238 -0.00810613 0.105222 0.0257619 -0.102679 -0.0608407 0.0358848 0.00313774 -0.00102856 0.5 0.000717738 0.0227304 0.00483292 0.0520873 -0.0289922 -0.027654 
223 1 0.769903 2.52958 1.1608 0 0 1 0.00679144 -0.112145 -0.014308 -0.125765 0.162137 0.0211028 0.0639515 -0.00281105 0.0434502 0.5 -0.0707594 -0.178737 -1.00198 0.079799 0.348191 -0.359943 
364 1 4.4249 4.2116 0.461801 0 0 1 0.01128 0.0523247 0.135336 -0.0109556 -0.117197 -0.143842 0.0409065 0.0129797 -0.00599004 0.5 0.0284451 -0.0335318 0.0809726 0.035111 -0.0339492 -0.0161436 
107 1 1.67764 1.60405 0.826566 0 0 1 -0.00881027 0.0195528 -0.165265 -0.15048 0.032371 0.0913432 0.0714586 0.0214389 0.0156606 0.5 0.19327 0.225996 0.180802 -0.128878 0.0843675 -0.0823018 
529 2 2.66451 2.18614 1.04712 0 0 0 0.0192912 0.0638496 0.0394125 -0.122277 -0.149371 -0.103956 0.0464524 -0.001727 0.00497837 0.5 0.00992632 -0.0382414 -0.0373982 0.00762336 0.0112599 -0.0169797 
515 2 4.38543 0.459972 1.6599 0 0 0 -0.000764977 -0.0176541 -0.0483142 -0.0129973 -0.0247875 0.217654 0.0319702 0.00481282 0.00865241 0.5 0.0764507 -0.00492946 -0.0554885 -0.0881284 0.0236907 0.0356126 
244 1 4.12011 0.551464 0.687642 0 1 1 -0.0525308 0.0502543 -0.0239891 0.265486 -0.0563533 0.177556 0.0325026 0.0102428 0.0190705 0.5 -0.0360401 0.06546 -0.201698 0.0324879 0.018539 0.0218703 
20 1 2.8964 0.588891 1.8145 0 0 0 0.00743939 -0.0272103 -0.0739416 0.0203576 0.0973224 0.103323 0.0298625 0.00156762 0.00314677 0.5 -0.0392511 -0.115593 -0.219152 0.0698809 0.130303 -0.076684 
280 1 4.08969 1.5725 1.13104 0 0 0 -0.0167016 0.0600174 0.0131589 0.0521611 -0.253093 0.0172299 0.0392014 0.00282163 -0.012744 0.5 -0.216837 -0.180396 -0.359622 -0.0109516 0.230725 -0.00976434 
620 2 1.42218 4.39938 0.86205 0 0 1 -0.0122085 -0.0497549 -0.0195213 -0.0558966 0.05808 0.0354479 0.0612145 -0.00217744 0.0240663 0.5 -0.113979 -0.00188946 -0.204515 0.050468 0.0719728 0.0269808 
1000 2 3.61357 2.35339 0.300334 0 1 1 -0.0359554 0.109095 0.0350924 0.0775664 -0.183711 0.0563864 0.0321644 0.00104746 -0.0217249 0.5 -0.0554731 -0.134758 -0.00597202 -0.0266602 -0.00451864 -0.00277822 
103 1 3.30328 3.66545 0.625497 0 0 1 -0.0623562 0.0444351 0.132115 0.124191 -0.0325074 -0.177998 0.0402693 0.00488311 -0.0070758 0.5 0.10135 0.0437217 0.0172641 -0.0554179 -0.0333189 -0.0146036 
536 2 0.504485 1.42733 0.028105 0 0 0 -0.0262642 0.0914773 -0.112158 0.0215484 0.0792649 0.0805565 0.0464888 0.0189386 0.0256333 0.5 -0.261914 -0.00300556 -0.217446 0.144722 0.181274 -0.0425879 
506 2 0.75727 1.51028 1.2604 0 0 0 0.0154455 -0.137243 -0.131732 -0.155065 0.220086 0.132573 0.0445369 0.00400134 0.0404767 0.5 -0.00474252 -0.114739 0.0211215 0.21585 0.0532528 -0.0796488 
626 2 1.33704 3.43139 0.600019 0 0 1 -0.105451 -0.0278382 -0.0566009 0.105588 0.0769103 0.107659 0.00925387 -0.0080915 0.0242824 0.5 -0.0552353 -0.109234 -0.0148827 0.0797948 0.0393593 -0.0498899 
553 2 0.714438 0.12448 1.6802 0 0 0 0.0706069 -0.102936 -0.208289 -0.113687 0.21475 0.0924959 0.0247723 0.000819846 0.0218338 0.5 0.0491149 0.0587361 0.0534742 -0.00807929 0.00252408 -0.045053 
135 1 1.54034 3.27347 1.69737 0 0 0 -0.00475485 -0.148918 -0.0177139 0.0677071 0.177594 -0.0771622 -0.00471523 -0.022383 0.0330515 0.5 0.0621664 -0.251089 -0.0637032 0.0842989 0.0230809 -0.00191507 
624 2 4.32218 4.93735 1.38111 0 0 1 0.00405331 -0.000327462 0.196688 -0.0717222 0.0770694 -0.17425 0.0277989 0.0102515 0.00745106 0.5 0.0694098 0.132557 0.174728 0.00860163 -0.0212679 -0.115238 
256 1 4.5925 1.34435 0.29736 0 0 0 -0.0346554 0.0560946 0.00281176 0.172097 -0.0889983 0.0460839 0.042199 0.0217818 -0.0259628 0.5 -0.120025 -0.0744779 -0.471014 -0.0116891 0.0566845 -0.0926659 
260 1 3.32155 0.0817883 1.0641 0 0 0 -0.00822917 -0.0527604 -0.0615908 0.00541844 0.255167 -0.00685413 0.00868514 0.0212282 -0.0126174 0.5 -0.0849959 -0.174204 -0.152353 -0.016831 0.0616323 -0.107099 
616 2 3.18717 4.51069 1.43419 0 0 1 -0.0255652 -0.0431085 0.120827 0.103357 0.0672363 -0.0415155 0.00196282 0.00821725 0.0141999 0.5 -0.0794723 -0.0180197 0.0131031 0.0500503 0.0239463 0.00479349 
106 1 1.72158 2.3023 1.54134 0 0 1 0.0567226 -0.136416 -0.015526 -0.0604536 0.176763 -0.129769 0.0480938 -0.0223379 0.0194631 0.5 0.145511 -0.0834325 0.0994148 0.0392356 0.120385 0.0662369 
157 1 1.39655 4.25125 1.85148 0 0 0 -0.0234361 -0.151187 -0.0364013 0.0447124 0.152131 0.0481274 0.0326821 -0.0272654 0.00458784 0.5 -0.117113 -0.201594 -0.239895 0.025273 0.134363 -0.0686432 
516 2 2.33593 0.854483 0.737041 0 0 0 0.0406051 0.0529006 -0.119532 -0.198448 0.018225 0.207675 -0.0122276 -0.042534 -0.00798928 0.5 0.088497 0.155593 0.00778403 -0.0368968 0.0786925 -0.00641042 
183 1 0.466772 4.70173 1.0143 0 0 0 -0.0595752 -0.256882 -0.069905 -0.151148 0.311862 0.10439 0.00380451 -0.0109829 0.045662 0.5 -0.0907425 -0.0589278 -0.00738511 0.0690143 0.0281068 -0.0189873 
625 2 0.42855 3.90372 0.221269 0 0 1 -0.0527795 -0.0047276 -0.0172452 0.0918514 0.155052 0.0828688 0.05646 -0.0127159 -0.008734 0.5 0.0229078 0.108804 0.0800101 0.0228599 0.00976554 -0.0425056 
91 1 2.22585 4.77807 1.66093 0 0 1 -0.0222603 -0.106261 0.101292 -0.000606015 0.111356 -0.220088 0.021085 -0.0379974 0.0218252 0.5 -0.130911 -0.0633929 -0.0347173 -0.0176685 0.0596891 0.00939578 
257 1 4.9358 2.72428 1.66118 0 0 0 -0.00453199 -0.0475672 0.0677395 0.0809651 -0.051398 0.0164606 0.0453803 -0.00098062 0.00360435 0.5 0.0962041 -0.0591584 -0.149711 -0.0391812 0.0245797 -0.0295184 
4 1 3.71954 1.15188 1.95928 0 0 0 -0.0029908 -0.022188 -0.0223674 0.0223579 0.035996 0.153787 0.0625895 0.0115557 -0.00148302 0.5 0.0294092 0.095089 -0.194803 -0.0504441 0.0816732 0.142815 
522 2 2.59032 2.544 1.97794 0 0 0 -0.0106928 -0.0500401 0.0806093 -0.0252624 0.0144441 -0.162938 0.0425395 -0.0163574 0.0443177 0.5 -0.0318207 0.000155616 0.0143046 0.103593 0.161327 -0.0295168 
117 1 3.12612 1.30578 1.15619 0 1 0 -0.0117259 0.0426688 -0.00453857 0.00386824 -0.0770851 -0.070953 0.0593935 -0.0143322 0.00344136 0.5 -0.0110371 0.0513224 0.0389732 0.0489409 0.0675079 0.0767026 
511 2 1.09379 2.1994 0.273774 0 0 0 -0.0240701 0.0865999 -0.0863819 -0.00481102 0.0532807 0.0511352 0.0947269 0.0192229 0.00402331 0.5 -0.0556496 -0.437998 -0.6525 0.298687 0.486778 -0.4713 
911 2 0.481212 0.56906 0.791218 1 0 0 0.0302376 0.0065578 -0.174475 -0.0404757 -0.0377982 0.310242 0.0015699 0.00988511 -0.0387418 0.5 0.0233738 -0.00254704 0.0436646 -0.00213293 0.0333176 -0.0499528 
668 2 0.0132938 3.92897 1.9208 0 0 0 -0.0621096 -0.21992 0.0322951 0.284861 0.426848 -0.085647 -0.00853514 0.0377939 0.0102674 0.5 -0.054563 -0.193242 -0.00334008 0.0298082 -0.0232438 0.035175 
90 1 2.96113 4.56082 0.339998 0 0 1 -0.0372082 0.0580416 0.14272 0.0229869 -0.0643658 -0.166391 0.0337191 -0.0253518 -0.0149844 0.5 0.274199 -0.0856676 -0.0498553 0.0414573 0.138671 -0.0859358 
734 2 4.14223 3.20523 0.303986 0 1 1 -0.0294655 0.101556 0.101478 0.134475 -0.191311 -0.0283648 0.0455468 -0.010383 -0.016093 0.5 0.0924896 0.0366345 0.00568366 -0.116179 -0.0041691 0.0306673 
672 2 0.0880761 2.07986 1.74053 0 0 0 0.00328025 -0.19422 -0.0878857 -0.14978 0.253075 0.103277 0.0463267 -0.00514717 0.0235182 0.5 -0.18922 -0.264002 -0.14856 0.0674594 0.124704 0.0647503 
759 2 4.94494 2.04786 0.924169 0 0 0 0.0301284 -0.015094 0.0399311 -0.130196 0.036489 -0.0589425 0.0484986 0.0115148 -0.00913904 0.5 -0.0197575 -0.132489 0.0624553 -0.0999646 0.0489262 -0.061351 
609 2 2.00865 4.72999 0.0825043 0 0 1 -0.0221797 0.0971869 0.100949 0.0419147 -0.00741209 -0.179682 0.0358812 -0.0306607 0.0138335 0.5 0.151231 -0.357867 -0.0742041 0.102869 0.162024 -0.0493819 
622 2 0.971735 4.76486 0.0473729 0 0 1 -0.0670163 0.0742433 0.0666646 0.0574232 -0.0225083 -0.0385779 0.073163 0.00711398 0.0194751 0.5 0.088028 -0.0216053 -0.028375 0.0926441 0.0106773 -0.0265055 
378 1 4.63989 2.37223 0.0218581 0 0 1 -0.0398799 0.0812983 0.0887241 -0.104586 -0.184382 -0.127131 0.0501039 0.0138367 -0.0088403 0.5 -0.0218944 -0.0603738 -0.0855727 -0.136055 -0.0752819 -0.124603 
21 1 1.83104 0.426823 2.50916 0 0 0 0.0832392 -0.145302 -0.14122 -0.189508 0.209747 0.0696886 0.0192431 0.0109045 -0.00473136 0.5 0.0244438 0.00250137 -0.0100379 -0.0149377 0.0259705 -0.0349688 
682 2 2.72972 4.12414 2.72348 0 0 0 -0.0136 -0.0575004 0.0779973 -0.0266163 -0.0431014 -0.0379585 0.00859944 -0.0088206 -0.00302078 0.5 -0.109858 0.0181326 -0.069517 0.0748874 0.161415 -0.0456711 
907 2 0.972322 4.69843 2.63903 1 0 0 0.0061178 -0.133783 -0.0351476 0.00893378 0.200514 0.0158728 -0.015582 -0.0040476 0.0177436 0.5 -0.153909 -0.618764 -0.259751 0.0196824 0.131053 -0.130552 
144 1 1.66983 3.66546 2.80589 0 0 0 0.0245663 -0.113206 -0.00799933 -0.048355 0.100158 0.0486239 -0.00479959 -0.0138713 0.0056942 0.5 0.0266754 -0.0317442 0.0189832 0.00173061 0.0423975 -0.0146965 
675 2 2.79879 4.7823 3.49706 0 0 0 0.0224738 -0.0727847 0.0705954 0.125067 0.118302 0.00276217 -0.0137453 0.0231982 0.00311175 0.5 -0.00854128 -0.059056 -0.0525262 -0.0246211 0.0282101 -0.015665 
502 2 4.37353 1.37729 3.26771 0 0 0 0.0149532 -0.122421 -0.00804869 0.110174 0.101743 0.136416 0.0362194 -0.00229285 -0.0030942 0.5 -0.0406814 -0.0539495 0.0412705 -0.0341512 0.0240875 -0.00127557 
27 1 2.58857 0.350439 3.24019 0 0 0 0.0349119 -0.0699966 -0.0341688 -0.0146007 0.0115958 -0.029345 0.0083854 -0.00694729 -0.010668 0.5 -0.0903033 -0.0499974 0.0341079 0.0365757 0.0227124 0.02953 
965 2 1.31403 3.71463 3.8164 1 0 0 0.0806642 -0.0828552 -0.015015 -0.0658279 0.0297504 -0.00487484 -0.0237278 0.00815789 -0.014605 0.5 -0.0107307 -0.0310482 0.0081959 0.0188379 -0.00208938 0.0140902 
61 1 1.64721 0.506588 3.57382 0 0 0 0.0238212 -0.111178 -0.0797854 0.0621132 0.167677 0.0305773 -0.00930488 -0.0146056 0.00482897 0.5 -0.115713 -0.0119699 0.0050158 0.0107892 0.0964045 -0.0160907 
680 2 1.19149 2.83325 3.35946 0 0 0 0.020508 -0.073382 -0.0176191 -0.0454361 0.0418511 -0.0141651 -0.00906405 0.00870439 -0.000580307 0.5 -0.0717326 0.050154 -0.186903 0.0159746 0.0908683 0.0766728 
251 1 4.67747 3.11938 3.82556 0 0 0 0.0458632 -0.175207 0.14383 0.00867352 0.174309 -0.145849 0.0158964 -0.00313059 -0.0310977 0.5 -0.121389 -0.0475136 -0.0166294 -0.068466 0.0453503 0.0425723 
517 2 4.01826 2.94679 2.17457 0 0 0 -0.0253374 -0.0768042 0.0977927 0.0114147 -0.0291839 -0.184838 0.00395578 0.00997108 -0.00413134 0.5 0.0195511 -0.0542627 0.0499165 0.0108241 0.0504918 -0.0149867 
6 1 3.40195 1.81452 2.7015 0 0 0 0.0538959 -0.0523437 0.0519928 -0.0796579 -0.00841805 -0.0188927 0.0554393 0.00604777 0.0107679 0.5 -0.128335 0.141719 0.075557 0.0774101 0.0867632 0.0852225 
519 2 4.42418 3.67895 2.95791 0 0 0 0.00893866 -0.147047 0.138366 -0.00818908 0.158235 -0.121556 0.00753732 0.007361 -0.0243355 0.5 -0.568605 0.0396698 -0.191984 -0.0298427 0.360996 -0.0256915 
509 2 1.88496 1.55099 3.69077 0 0 0 0.12472 -0.082304 -0.138258 -0.188234 0.120803 0.304223 -0.0210786 0.0524964 -0.00469211 0.5 0.0443928 -0.022868 -0.184246 -0.0309236 0.0267806 0.0331063 
142 1 1.03497 2.00969 2.20708 0 0 0 0.0258785 -0.133691 -0.0466383 -0.046092 0.166386 -0.115914 0.0247262 -0.00236693 0.0268927 0.5 -0.0948238 0.00773738 -0.0492044 -0.00115616 -0.0113595 0.0783908 
941 2 0.202707 2.36192 2.81839 1 0 0 0.0368424 -0.170852 -0.106619 -0.24667 -0.0203334 0.29624 0.00146925 0.00112812 0.00422294 0.5 -0.0492459 -0.0760173 -0.238263 -0.053152 0.0614023 0.0847297 
919 2 0.625871 4.38639 3.54094 1 0 0 0.0641803 -0.109212 -0.0361832 -0.133383 -0.0403908 0.0722113 -0.0218062 0.00176239 0.00018559 0.5 -0.0393882 -0.07241 -0.138958 0.0360647 0.0513435 -0.00515187 
95 1 3.52978 3.82288 2.2036 0 0 1 -0.00259922 -0.0696306 0.108786 0.0858218 0.0700361 0.020352 0.0199707 -0.0100072 -0.00747659 0.5 -0.217706 -0.131308 -0.0309391 0.0370562 0.0903516 -0.0918269 
458 1 1.55222 4.83561 3.8188 1 0 0 -0.00227059 -0.183957 0.0718659 0.0627435 0.318078 -0.0393474 -0.00387571 -0.00258369 0.0252258 0.5 0.059816 0.0273323 0.038607 -0.0113657 0.0196853 -0.00694003 
41 1 1.12595 1.0219 2.07865 0 0 0 0.0594449 -0.122683 -0.112778 -0.118343 0.154548 0.149069 0.0374469 0.0108084 0.0172646 0.5 0.0542769 0.0551702 0.144509 -0.0154109 0.011507 -0.0540199 
814 2 0.251963 1.28067 3.45998 1 0 0 0.0433262 -0.0767733 -0.078794 -0.00211413 0.0366452 0.00425396 -0.0236298 -0.0141267 0.0158133 0.5 0.0681856 -0.0789409 -0.152199 0.0548336 0.0283772 0.0523598 
130 1 1.71623 2.70537 2.51773 0 0 0 0.00317771 -0.108923 -0.0201224 -0.0224032 0.126037 -0.0206357 0.0023421 0.000296648 0.0138401 0.5 -0.124609 -0.185399 -0.218825 0.0685211 0.118198 0.068996 
12 1 2.67405 1.13311 2.6234 0 0 0 0.0783054 -0.0695399 -0.0264865 -0.135786 0.0789547 0.0767414 0.0255631 -0.00734894 -0.0021053 0.5 -0.282823 -0.174545 -0.109731 0.182948 0.0392685 -0.0355184 
512 2 3.14623 2.04113 3.76061 0 0 0 0.0882169 -0.0126316 0.0909706 -0.170104 -0.0796252 -0.205841 0.00258903 0.000303733 0.00989912 0.5 0.0456902 0.0426821 0.0591746 0.00143209 0.0482919 -0.0210048 
151 1 2.47643 3.35423 3.30999 0 0 0 0.00423521 -0.0929335 0.038061 -0.0940349 0.101384 0.111031 -0.0187304 0.00534041 0.0157888 0.5 -0.120515 -0.0334555 0.0149535 -0.0523971 0.0862128 0.0643535 
667 2 0.272499 1.4116 2.46708 0 0 0 0.0462668 -0.171737 -0.0885175 -0.034703 0.141468 0.0141174 0.000845933 -0.00680899 0.0186665 0.5 -0.0463697 -0.206068 -0.151575 -0.03232 0.0120737 0.0713239 
38 1 3.7564 0.75861 3.88634 0 0 0 0.0755491 -0.0165429 -0.0497883 -0.124841 -0.031493 0.261922 -0.0150612 0.0123579 -0.0310944 0.5 0.0614667 0.0146441 0.0411269 -0.0792853 -0.0245952 0.0734664 
936 2 0.328466 3.42828 3.5205 1 0 0 0.0182141 -0.0955372 -0.0309441 -0.0431218 -0.0202471 0.0553205 -0.000825199 -0.0057702 0.000506361 0.5 -0.0407138 -0.141147 -0.175365 0.0189865 0.139682 0.123692 
531 2 4.79534 0.87358 2.48575 0 0 0 0.0151195 -0.0988558 -0.018953 0.0243254 0.0761892 0.0302842 0.0243889 -0.00558613 -0.00769185 0.5 0.0055499 -0.012855 -0.0108381 -0.0136071 0.00660671 -0.0128383 
527 2 3.99049 4.35948 3.54842 0 0 0 0.0765657 -0.0535482 0.0795803 -0.258852 -0.0220884 -0.0615527 -0.00793068 -0.0186936 -0.0353171 0.5 -0.993347 -0.419868 -0.305848 -0.404796 0.500118 0.0510635 
383 1 4.35777 4.38351 2.21322 0 0 1 -0.00314302 -0.0693959 0.154196 0.0987277 0.0377594 -0.226025 0.0363957 -0.000676389 -0.0144454 0.5 -0.0849456 0.0700802 0.137589 -0.102335 0.0216372 -0.119123 
992 2 0.663291 0.483999 3.91721 1 1 0 0.0834046 -0.0511328 -0.0882039 -0.235412 -0.0437568 -0.0383525 -0.00622022 0.0192885 -0.01073 0.5 -0.106577 -0.104659 0.0234619 0.0221454 -0.00381361 0.0645847 
521 2 4.894 4.57579 3.16593 0 0 0 0.0922578 -0.102016 0.178328 -0.0588042 0.100288 -0.293965 0.000940773 0.0136002 -0.0124598 0.5 -0.305457 0.184262 0.0657763 -0.154718 0.0375217 0.29066 
136 1 1.87359 1.73024 2.67461 0 0 0 0.0475411 -0.10756 -0.0704313 -0.122057 0.115491 0.00500208 -0.00118492 0.0176725 0.0231582 0.5 -0.23581 -0.236578 -0.195434 0.167701 -0.0151199 0.0575553 
540 2 4.49125 0.238348 3.42046 0 0 0 0.0539053 -0.102951 -0.00344517 -0.154088 0.0911443 -0.066007 0.0158948 0.00272166 -0.0262075 0.5 -0.0387007 0.0112553 -0.00799337 -0.0535307 0.00319864 0.0140014 
510 2 3.83098 2.61507 3.12039 0 0 0 0.0525168 -0.0803256 0.113365 -0.0363136 0.061757 -0.239639 0.0153724 0.0119781 0.000650011 0.5 0.229009 0.286654 0.0204866 -0.0896859 0.0456401 0.0767923 
19 1 4.34673 1.87184 2.37858 0 0 0 0.0416541 -0.0437916 0.0247137 -0.058018 -0.0579341 0.084813 0.0200334 0.00012029 -0.0125695 0.5 -0.195391 0.0333309 -0.0244934 0.0180934 0.109514 -0.0061416 
543 2 1.04725 1.84067 3.22722 0 0 0 0.0670948 -0.0947241 -0.0445539 -0.0552996 0.134973 0.0903981 0.0105792 0.027422 0.00385165 0.5 0.0887121 0.104183 -0.0106513 0.00926015 0.0238789 0.0217932 
773 2 4.76867 2.2959 3.26538 0 0 0 0.0426458 -0.134239 0.0831424 -0.0317684 0.157838 -0.117424 0.0226802 0.016819 -0.012143 0.5 0.0812258 -0.130624 -0.0628808 -0.178223 0.165372 0.101104 
555 2 2.20249 2.56081 3.85388 0 0 0 0.0837373 -0.0803828 0.0936091 -0.00258264 -0.129028 -0.150084 -0.0324064 0.0109842 0.00292924 0.5 -0.210563 -0.161263 -0.167736 -0.0952623 0.126703 -0.0129773 
429 1 0.317618 2.46793 3.80623 1 0 0 0.0282957 -0.115635 -0.113114 -0.097612 0.104412 0.257599 0.00408329 -0.00539787 0.0302761 0.5 -0.0373353 -0.241669 -0.194207 0.0308896 -0.000822641 0.14823 
316 1 0.869715 0.583794 2.94048 1 0 0 0.0421441 -0.102465 -0.106101 0.000460234 0.00695914 0.0782753 -0.0032366 -0.0010359 0.00179227 0.5 0.0542664 0.0324442 0.141571 0.0291232 -0.00991065 -0.0316909 
503 2 3.59716 0.820011 2.8975 0 0 0 0.0438026 -0.10234 -0.0495666 0.110623 0.232785 0.266226 0.0187644 0.0143125 -0.00472116 0.5 -0.154875 -0.0450716 -0.121087 -0.00390046 -0.0293917 0.0550317 
896 2 0.685803 3.74039 2.63656 1 0 0 0.0259757 -0.138274 -0.0296723 -0.0441638 0.161704 0.127025 -0.0216741 0.0226482 0.015712 0.5 -0.0233265 -0.494569 -0.301282 -0.085318 0.0468992 -0.0788115 
690 2 1.94006 4.71436 2.89098 0 0 0 -0.0167541 -0.0524448 0.044204 -0.00187491 -0.0125667 0.040757 0.013894 -0.0231277 0.0290563 0.5 -0.107461 -0.0268124 0.0241108 0.0679869 0.0301833 -0.0109312 
641 2 3.45403 3.54754 3.1623 0 0 0 -0.00283694 -0.0779816 0.107986 0.0170963 0.0264898 -0.0114682 -0.0145592 0.00540234 -0.0145268 0.5 -0.208316 0.271725 0.185188 -0.158936 0.111309 0.0358357 
528 2 3.32807 4.84256 2.36809 0 0 0 -0.00572335 -0.0426041 0.118292 0.0419442 -0.0899028 0.0156968 0.0407173 0.0140536 -0.020525 0.5 0.0503981 0.0576622 0.0774591 0.0357041 0.0225106 0.0293815 
225 1 2.66042 2.43127 2.96924 0 0 1 0.0206296 -0.103472 0.0735234 0.124782 0.268585 -0.154836 -0.0109666 0.02597 0.029364 0.5 -0.0251707 0.00383592 0.0441052 0.0319915 0.0973585 -0.0569801 
119 1 0.633742 2.91601 2.07291 0 0 0 -0.0187671 -0.146947 -0.00370599 -0.0295526 0.178636 0.0742186 0.0111276 -0.000376025 0.0229564 0.5 0.0774858 -0.351959 -0.654153 -0.0219566 0.162976 -0.229432 
200 1 2.42179 0.231251 4.21937 0 1 0 0.0316309 -0.0254155 -0.0289133 0.149758 -0.00499017 -0.0378023 -0.0211848 -0.0163068 0.00801607 0.5 0.00965433 0.0249037 0.0532115 0.0161973 0.060333 -0.0188693 
114 1 4.67072 1.0483 4.17002 0 0 0 0.0940398 -0.102047 -0.0224536 -0.231603 0.262436 0.236913 0.00880405 -0.00343668 -0.00638673 0.5 0.00525806 0.177944 0.145177 0.0728977 -0.0461011 -0.0896636 
820 2 1.29466 2.3241 4.21419 1 0 0 0.0528376 -0.0219763 0.00675332 -0.183403 -0.0338113 -0.0263228 -0.00305805 -0.0172888 0.0166129 0.5 -0.342318 -0.204521 -0.202784 -0.104821 0.077363 0.132551 
47 1 4.58902 1.62396 5.41499 0 0 0 0.122623 -0.0697176 0.0564817 -0.246958 -0.152227 -0.164968 0.0235174 0.00990737 0.017598 0.5 -0.0525813 -0.0449967 -0.0575686 -0.0401918 -0.0820865 0.0201397 
824 2 1.61379 3.79398 5.73862 1 0 0 0.0993756 0.115969 0.104018 -0.135356 -0.171167 -0.0591078 -0.0544186 0.00684901 -0.00815076 0.5 0.0133758 -0.0537857 -0.0637844 -0.0251987 -0.0140492 0.0227562 
172 1 3.40673 0.320463 4.71629 0 1 0 0.0684255 0.0716715 -0.00716567 -0.13504 -0.249919 0.111927 -0.0216543 -0.00708049 -0.00400059 0.5 0.0162792 0.0125457 0.0249087 0.0164353 -0.00415012 -0.0121478 
718 2 0.195788 2.01586 5.52235 0 1 0 0.0122964 0.0230402 -0.00434986 -0.0600292 -0.00651032 -0.0632933 -0.00647162 -0.00203446 -0.0033708 0.5 0.0101923 0.177828 0.126265 0.00186071 0.00734001 0.12635 
505 2 0.468975 3.41381 5.81321 0 0 -1 0.0687669 0.151934 -0.00507746 -0.174751 -0.149558 0.124484 -0.0155161 0.00396754 0.000429427 0.5 -0.0798214 -0.415057 -0.210788 -0.0067112 -0.0524929 0.278904 
524 2 3.92696 2.72834 5.62631 0 0 0 0.0967755 -0.0101763 0.0997099 -0.120258 0.070548 0.043577 0.0107498 9.72831e-05 0.00787383 0.5 -0.021027 0.0325407 -0.0259145 -0.000121616 0.013259 0.0157465 
839 2 0.548842 1.67101 4.36465 1 0 0 0.0990968 -0.086286 -0.106207 -0.315415 -0.0188707 0.101416 -0.0178975 -0.0235384 0.0345055 0.5 -0.0845094 -0.337548 -0.256244 -0.0596416 0.0517507 0.223071 
937 2 2.41383 3.4317 4.30591 1 0 0 0.0849611 -0.061844 0.0415074 -0.242979 -0.138534 0.0894228 -0.002746 0.0113042 0.00793929 0.5 -0.772715 -0.250989 -0.144556 -0.391899 0.31812 0.164501 
811 2 2.56819 3.94674 5.47945 1 0 0 0.0971992 0.0600235 0.0620965 -0.114947 -0.353149 -0.012941 -0.0161763 -0.00534734 -0.0431057 0.5 -0.00855109 -0.0744175 -0.0200989 -0.144603 -0.0110163 0.0817031 
827 2 1.50578 3.21374 4.66336 1 0 0 0.0689874 -0.0452405 0.00960528 -0.358939 0.0367138 -0.0404752 -0.0166956 -0.0244208 -0.0249357 0.5 -0.570612 -0.163037 -0.293836 -0.0602301 0.172193 0.138509 
149 1 4.02146 3.95522 4.55193 0 0 0 0.0660247 -0.0571523 0.135809 -0.0263145 0.145506 -0.269823 0.0139653 0.00785236 0.000538285 0.5 -0.0536764 0.102703 0.0666645 -0.126319 0.206358 0.0705898 
925 2 0.591555 3.59918 4.53871 1 0 0 0.0894274 0.00235029 0.00604008 -0.404006 -0.0554975 -0.0526084 -0.0101908 -0.00535896 -0.0169054 0.5 -0.253021 0.00103902 -0.00782942 0.0975469 -0.048847 0.0181039 
168 1 3.28264 4.61356 5.25904 0 0 0 0.168339 -0.00722019 0.110368 -0.455786 0.0106008 0.0348741 -0.00857588 0.00539156 0.0120671 0.5 -0.181139 -0.13525 -0.194245 -0.103043 0.0277582 0.0906381 
928 2 1.5612 4.40256 4.94565 1 0 0 0.0278847 0.0331514 0.0469183 -0.0215782 -0.100884 0.00333372 -0.0395092 -0.0252027 -0.0117226 0.5 -0.211921 -0.192693 -0.147616 -0.123232 0.172706 0.0710711 
148 1 3.90867 3.7351 5.65194 0 0 0 0.0605574 -0.00856342 0.161744 -0.0352067 0.048275 -0.0995393 -0.0162506 -0.0235773 0.0257113 0.5 -0.00768678 0.092046 0.0110882 0.0459722 0.0113337 0.0488745 
914 2 4.66786 4.42104 5.15627 0 0 0 0.0649847 -0.0972155 0.169929 -0.0705623 0.222079 -0.264557 -0.0048783 0.00671139 -0.0183319 0.5 0.0662476 -0.0143749 0.200944 -0.00404985 -0.0133876 0.0551515 
23 1 2.84376 1.13867 4.0719 0 0 0 0.0797929 -0.0312902 0.031898 -0.166184 -0.0360121 -0.149251 0.0238626 -0.00733355 -0.0164287 0.5 0.012004 0.0522324 -0.000216317 -0.01735 -0.0754149 0.0138364 
594 2 2.01961 1.9513 4.80754 0 0 0 0.0960316 0.0304522 -0.043012 -0.229725 -0.164488 0.285666 -0.00546192 -0.026062 -0.0257171 0.5 0.00279077 -0.120958 -0.0388762 0.0553721 -0.0921321 0.0393454 
539 2 3.72804 1.02042 5.43691 0 0 0 0.160908 0.0367309 0.0710956 -0.280013 -0.0183305 -0.14065 -0.0126827 -0.00458741 -0.012411 0.5 0.0208572 -0.179555 -0.0697788 -0.0420889 -0.154137 0.307484 
730 2 0.448287 1.10241 5.18159 0 1 0 0.00945856 0.0229625 -0.0468019 0.0541148 0.0221242 0.159393 0.0133016 -0.00372741 0.0257011 0.5 0.023587 -0.0959173 -0.159311 -0.0126741 -0.0348856 0.24636 
689 2 3.50666 0.0778405 5.69627 0 1 0 0.0124166 0.0594286 0.00258947 -0.0349843 -0.0147427 -0.0464588 0.00789011 -0.0304866 -0.0408991 0.5 0.0833302 -0.210773 -0.046784 0.0674077 -0.0195779 0.140036 
450 1 0.553202 4.81158 4.49785 1 0 0 0.0970304 -0.0333083 -0.10095 -0.0742373 0.188372 0.0934218 -0.0493377 -0.00891517 -0.000821413 0.5 -0.0318727 -0.0954803 -0.233393 0.0429127 -0.0521242 0.0837453 
549 2 4.48257 0.525066 5.00353 0 0 0 0.0661756 -0.0601612 0.00639082 -0.148075 0.063481 0.074396 -0.0124249 0.0210471 -0.04763 0.5 0.20554 0.345847 0.407856 -0.0528109 -0.127645 0.0167048 
591 2 1.39107 1.13898 4.45825 0 0 0 0.146892 -0.00824454 -0.0859933 -0.378299 -0.0659571 0.0690032 -0.0293045 0.0117407 -0.0208421 0.5 0.0110387 -0.0521865 -0.0318183 -0.00720239 0.0246943 0.0291226 
243 1 1.20298 1.80425 5.39672 0 1 0 -0.0188493 0.0415802 -0.151682 0.137692 0.0289348 0.230126 -0.00357057 -0.019522 0.0129982 0.5 0.0100153 -0.141846 0.0275998 0.060989 -0.0684759 0.0746237 
646 2 3.7021 3.14869 4.04525 0 0 0 0.0439498 -0.0418247 0.111459 0.0463185 -0.003598 -0.0376689 0.00652549 0.00735401 -0.0207947 0.5 -0.0677809 0.0500383 -0.00958397 -0.0475044 0.0638541 0.0965938 
374 1 0.566089 2.63396 4.82784 1 0 0 0.0332174 -0.010354 -0.0231326 -0.0861216 0.106003 0.0357166 -0.00846358 -0.0235915 -0.0118113 0.5 -0.0269494 0.0370115 -0.0141638 -0.00120314 -0.00929435 -0.0167462 
418 1 0.655142 4.28538 5.35521 1 0 0 -0.00988345 0.156536 -0.00883041 0.0383795 -0.052094 0.166409 -0.051765 -0.0237579 -0.00757881 0.5 -0.133924 -0.2799 -0.194891 -0.0830096 0.0830547 0.189475 
190 1 2.1823 2.3865 5.9732 0 1 0 -0.0323675 0.154145 0.0838959 0.0316143 -0.234732 -0.17481 -0.0157895 -0.0411745 -0.0401404 0.5 0.0948788 0.0666018 -0.0474856 0.0330202 -0.0369874 0.120254 
507 2 3.65046 1.50494 4.56103 0 0 0 0.0757467 -0.0721255 0.0312596 -0.0413543 0.260496 0.000678759 0.0182322 0.00959116 0.00453555 0.5 -0.090424 -0.0433447 -0.157597 -0.101574 -0.00465265 0.221297 
155 1 4.83329 3.43957 4.83038 0 0 0 0.0874515 -0.0425917 0.106972 -0.192954 -0.102513 -0.248906 -0.00545873 0.0195693 0.00819017 0.5 0.0928767 -0.23027 -0.253256 -0.0947596 -0.0283279 0.207928 
573 2 2.45294 2.8439 5.1166 0 0 0 0.148227 -0.0551294 0.0414321 -0.588543 0.0674136 0.156868 -0.0343596 -0.0360347 -0.00786026 0.5 -0.177241 -0.181429 -0.0545243 -0.147433 0.0841783 0.105249 
766 2 4.99748 3.00013 5.71425 0 0 0 0.0951968 0.00828807 0.126578 -0.180437 0.234037 -0.0852306 0.0056908 -0.0154984 -0.0413124 0.5 -0.0482838 -0.264868 -0.280846 0.0416775 -0.0223168 0.234273 
513 2 3.43065 2.46682 4.72465 0 0 0 0.0676686 -0.0803538 0.079837 -0.153325 0.219339 0.0741479 0.0183975 -0.00312965 -0.000526719 0.5 -0.0604059 0.0679825 -0.19414 -0.048437 0.0916759 0.176501 
180 1 2.35808 4.46705 4.345 0 0 0 0.0792816 -0.0247027 0.109864 -0.199185 -0.0611442 -0.258762 -0.0243482 -0.00431085 0.0107582 0.5 -0.124513 0.0355644 -0.107894 0.0103358 0.161425 0.0166184 
154 1 3.26256 3.43745 4.94792 0 0 0 0.0957665 -0.0778299 0.158228 -0.0397726 0.236938 -0.173165 -0.00781535 -0.0106643 0.00525228 0.5 -0.245482 -0.00179031 -8.33808e-05 -0.229862 0.0693977 0.140309 
740 2 1.30082 2.78901 5.54535 0 1 0 -0.0340173 0.0171548 0.0103139 -0.0143837 0.0578199 0.015394 -0.020372 -0.0524861 -0.00250246 0.5 -0.0350882 -0.156118 -0.408389 -0.0269566 0.0148254 0.17111 
657 2 4.05479 4.71358 5.89155 0 0 0 0.109054 -0.00425186 0.171458 -0.196007 0.0193 -0.291579 -0.0420947 -0.0171214 -0.0165269 0.5 -0.0891717 -0.0798182 -0.0354116 -0.0125833 -0.150535 0.0770392 
187 1 2.41988 1.04922 4.98098 0 1 0 0.0130333 0.00616055 0.0083782 0.157321 -0.0762594 -0.0739939 -0.0322831 -0.0380553 -0.0380207 0.5 -0.0106732 -0.042576 0.00672731 0.00994787 -0.00433472 -0.00488155 
127 1 3.19286 1.86762 5.48985 0 0 0 0.0474997 -0.0380566 0.103104 -0.0189502 0.0426004 -0.047566 -0.0591259 -0.0245595 0.0179363 0.5 0.00935045 -0.10251 -0.17423 -0.0242121 0.0345563 0.0930302 
708 2 1.34302 0.750644 5.45783 0 1 0 0.0800858 0.110781 -0.165351 -0.0821351 -0.18545 0.287767 -0.0255849 -0.0185701 0.0134122 0.5 0.1237 0.0727409 -0.030123 0.0764177 0.045186 0.100303 
204 1 1.50959 0.159519 4.62301 0 1 0 0.00724901 -0.0244536 -0.0855629 0.176856 0.0170277 -0.0133853 -0.0249994 -0.020757 -0.018343 0.5 -0.0381391 -0.0106792 -0.0516804 0.0302784 0.061759 0.0599807 
694 2 2.20011 0.267097 5.65393 0 1 0 0.0570686 0.096379 -0.0814959 -0.0223531 -0.0696059 0.0872202 -0.0154085 -0.0797721 -0.00677844 0.5 0.0956608 0.118993 0.0931583 -0.0374076 0.0408454 0.0701399 
28 1 4.58185 2.47076 4.88181 0 0 0 0.0780745 -0.036835 0.110915 -0.127796 -0.144649 -0.161862 0.00873593 0.013697 -0.00144067 0.5 -0.100122 -0.114219 -0.0675481 -0.0532523 0.0171884 0.0368404 
671 2 3.66 4.87355 4.3526 0 0 0 0.0476766 -0.0640047 0.0900531 0.0372716 0.211713 -0.0320715 -0.0053634 0.00341727 0.00722946 0.5 0.0514966 0.0454317 -0.064452 -0.177463 0.0144531 0.0866949 