ITEM: TIMESTEP
119000
ITEM: NUMBER OF ATOMS
1000
ITEM: BOX BOUNDS xy xz yz pp pp pp
0.0000000000000000e+00 1.0000000000000000e+01 0.0000000000000000e+00
0.0000000000000000e+00 1.0000000000000000e+01 0.0000000000000000e+00
0.0000000000000000e+00 1.0000000000000000e+01 0.0000000000000000e+00
ITEM: ATOMS id type x y z ix iy iz vx vy vz fx fy fz omegax omegay omegaz radius c_2[1] c_2[2] c_2[3] c_2[4] c_2[5] c_2[6] 
120 1 3.15924 1.53956 0.0713724 0 1 0 -0.00126106 0.0034299 0.00151296 0.00122274 -0.00327363 -0.00132111 0.00156421 -0.000575884 -0.00114744 0.5 -0.00123407 -0.00606594 -0.000407762 -0.000676604 -7.05594e-05 -0.00112703 
525 2 2.11685 1.23692 1.70281 0 0 0 -0.000863498 -0.00417071 -0.00490445 0.000672846 0.00345979 0.00423076 -0.00065987 -0.000255187 0.00107272 0.5 -7.85761e-05 -0.000449904 0.000120117 0.000491629 0.000436318 -0.000360169 
371 1 4.95867 3.68494 1.58121 0 0 1 0.000956594 -0.00270346 0.00432862 -0.000680193 0.00222676 -0.00389872 0.000605957 5.11087e-05 0.000163667 0.5 0.000179905 -0.00238466 0.00301909 -0.000384821 -0.000338333 1.34667e-05 
18 1 1.9815 2.69163 0.530365 0 0 0 -0.000527458 0.000742544 0.00354004 0.000418389 -0.000887316 -0.00304038 0.00225832 -0.00116652 0.000917666 0.5 8.80228e-05 -0.00423126 -0.00231318 0.00314734 0.00320924 -0.00296617 
94 1 2.46204 3.50279 2.00249 0 0 1 -0.000391542 -0.00338503 0.00394397 0.000537924 0.00275871 -0.00344355 0.0010018 -0.000509021 0.000196467 0.5 0.00137388 0.0012072 0.00105651 0.00103814 0.00146272 0.00179755 
25 1 1.41569 0.709084 1.0866 0 0 0 -0.000226101 -0.000475787 -0.00594918 4.10697e-05 0.000290594 0.00549168 0.00192905 -0.000255991 0.000831963 0.5 -0.0026484 -0.0125292 -0.00579037 0.00481267 0.00358982 -0.00524272 
378 1 4.61923 2.40627 0.0705152 0 0 1 -0.000180901 0.00171227 0.00356348 0.000376794 -0.0017024 -0.00320464 0.00248839 0.000654619 -0.000423029 0.5 -0.00124174 -0.00292036 -0.00135744 -0.00184485 -0.000914294 -0.00329253 
8 1 3.44127 2.06939 1.74151 0 0 0 0.00025067 -0.00223869 0.00184171 -0.000175067 0.00176541 -0.00178331 0.00194661 -0.000795868 0.000241428 0.5 -0.000970766 -0.000788558 0.000613763 0.0011 0.00184364 -0.000411371 
629 2 4.07655 2.61634 1.19591 0 0 1 0.000907713 -0.00106074 0.0037889 -0.000669927 0.000691837 -0.00342665 0.00240267 -0.000400568 -4.41234e-05 0.5 -0.00259531 -0.00174428 -0.00278494 0.000362679 -0.000880812 -0.000795632 
5 1 2.34714 3.90306 1.05101 0 0 0 -0.00110023 -0.00394047 0.00402262 0.00080439 0.00265159 -0.00356248 0.000171862 -1.68578e-06 0.00110685 0.5 -0.000624842 -0.000988785 -0.00104882 0.000790917 0.000615049 -0.000730108 
650 2 0.460898 3.43878 1.13067 0 0 0 -0.00311486 -0.00352747 -0.00219014 0.00290451 0.00309055 0.00257989 0.00185607 0.000824505 0.000373771 0.5 -0.00380657 -0.00450821 -0.00346762 0.00274815 0.00304298 -0.00250194 
14 1 3.29511 3.13523 1.54248 0 0 0 -5.75974e-05 -0.00250836 0.00378175 0.000212362 0.00195697 -0.00333795 0.00147696 0.000133052 2.9696e-05 0.5 0.000146816 -0.00116495 -0.00138257 0.000856119 0.000464928 -0.0018658 
264 1 3.99581 3.86963 1.37695 0 0 0 0.000923289 -0.00270647 0.00446334 -0.000658077 0.00207251 -0.00411275 0.0018096 0.00035075 4.03315e-05 0.5 -0.000143538 9.60069e-05 -0.00197726 0.000803536 0.000886217 -0.000113962 
223 1 0.749073 2.48001 1.14601 0 0 1 -0.00245413 -0.00322917 -0.000782659 0.00221465 0.00278959 0.000900695 0.0025148 -0.00080631 0.000911959 0.5 -0.00290806 -0.00579986 -0.0164634 0.00182346 0.00642999 -0.00441805 
364 1 4.42309 4.23609 0.536597 0 0 1 -0.000727674 0.00159487 0.00556359 0.00069788 -0.00160015 -0.00505657 0.0014806 0.000102486 0.000951221 0.5 0.000476381 -0.000269855 8.85975e-05 -5.40806e-05 0.000778636 -0.000533376 
107 1 1.66169 1.61802 0.749706 0 0 1 -0.00152732 0.000549126 -0.00407685 0.00132359 -0.00063475 0.00390347 0.00275943 3.03082e-05 0.000319898 0.5 0.00255893 -0.00206195 -0.00168298 -0.00052173 0.000378595 -0.0018724 
529 2 2.67219 2.20006 1.06153 0 0 0 0.000802837 -0.000531285 0.000669071 -0.000743812 0.00016945 -0.000601606 0.00247939 -0.000520424 0.000588571 0.5 0.000257738 -0.000410769 -0.000951593 8.53312e-05 0.00120146 -0.000464633 
515 2 4.38634 0.437604 1.64449 0 0 0 0.000137459 -0.00273767 -0.00105931 -8.44811e-05 0.002261 0.00095769 0.00156841 0.000213828 -0.000223857 0.5 -0.00416639 -0.00287224 -0.00486095 -0.00476248 0.00220635 0.00176762 
244 1 4.11362 0.570192 0.683038 0 1 1 0.000140781 0.000562754 -0.000491616 -1.78115e-05 -0.000660989 0.000423234 0.00216762 0.000525558 -0.000527382 0.5 -0.00240753 -0.00216466 -0.00361528 -0.0012918 0.00162909 0.00112305 
20 1 2.90154 0.57207 1.78494 0 0 0 0.000462923 -0.00194944 -0.00184478 -0.000438088 0.00154685 0.00158395 0.00111497 -0.000725596 0.000223032 0.5 -0.00326193 -0.00538477 -0.00752268 0.000104953 0.00403799 -0.00423952 
280 1 4.09041 1.58243 1.14569 0 0 0 0.000575141 -0.000495715 0.00103759 -0.000430971 0.000161336 -0.00101748 0.00214086 -0.000270135 -0.00025404 0.5 -0.00375822 -0.00267131 -0.00707857 -0.000316754 0.00437865 0.000654815 
620 2 1.39602 4.37239 0.856735 0 0 1 -0.00278464 -0.00255353 0.00111765 0.00279254 0.00212215 -0.000511425 0.00216436 0.000869353 3.82595e-05 0.5 -0.000717004 -0.00476053 -0.00863735 -0.000381278 0.000280978 0.00167442 
1000 2 3.60275 2.39739 0.337897 0 1 1 0.000751432 0.00170442 0.00334396 -0.000385 -0.00180187 -0.00307874 0.00188599 -0.000198314 -0.000372243 0.5 -0.00181993 -0.00494286 -0.00183616 -0.00127254 -0.00122831 -0.000724435 
103 1 3.28443 3.68363 0.695951 0 0 1 -0.000261497 -0.000456615 0.00508331 0.000293275 1.16842e-05 -0.00453575 0.00190461 -0.000104192 0.000865497 0.5 -1.66289e-05 0.000596494 -0.000411296 0.000394627 0.00104166 -0.000697846 
622 2 0.932224 4.80354 0.0827821 0 0 1 -0.00316986 0.000734324 0.00317877 0.00335453 -0.000947753 -0.00254677 0.00320451 -0.000952479 0.00105828 0.5 0.000198011 0.000731824 -0.00430276 -0.000356039 -0.00140971 0.000827278 
506 2 0.744958 1.45333 1.18544 0 0 0 -0.00224181 -0.00334002 -0.00542047 0.00184027 0.00294365 0.00501365 0.00229037 -0.000162747 0.00158943 0.5 -0.000222946 -0.00747325 -0.00078315 0.00853204 0.00244751 -0.00462976 
626 2 1.28981 3.41741 0.566963 0 0 1 -0.00289832 -0.00151709 -0.00173505 0.00265451 0.00120311 0.00209738 0.000582986 -0.00164059 0.00116912 0.5 -0.00308756 -0.00478233 -0.00100376 0.00216032 0.00282771 -0.00178361 
553 2 0.743814 0.0789712 1.5675 0 0 0 0.000612063 -0.00265076 -0.00776451 -0.000819533 0.002453 0.00715322 0.000265849 -0.00108342 0.00171213 0.5 0.000634632 0.000638469 0.000503014 -0.000223921 0.00048635 -0.000846952 
135 1 1.54694 3.20706 1.67765 0 0 0 0.00120647 -0.00393652 -0.00118081 -0.00101084 0.00353669 0.00129215 0.00125805 -0.00269051 5.13738e-05 0.5 0.000451033 -0.0111662 -0.00155653 0.00272277 0.00136929 -0.000677335 
624 2 4.32432 4.92218 1.46867 0 0 1 0.000356863 -0.0020717 0.00506356 -0.000178689 0.00183381 -0.00470871 0.00129525 0.00068701 0.000231066 0.5 0.000527258 0.000493187 -0.00350584 0.000195899 -0.000949497 -0.00206429 
256 1 4.58688 1.36743 0.304686 0 0 0 0.000444353 0.000859606 0.000611686 -0.000230953 -0.000970992 -0.000606513 0.00233984 0.000548796 -0.00109398 0.5 -0.00197499 -0.00304464 -0.00714987 -0.00208342 0.00317513 -0.0017617 
260 1 3.31847 0.0706429 1.02683 0 0 0 4.77172e-05 -0.000872392 -0.00278868 3.76447e-05 0.000649037 0.00244223 0.00123152 0.00101761 -0.000882592 0.5 -0.00268941 -0.00577317 -0.00540406 -0.000830397 0.00174551 -0.00301942 
616 2 3.19044 4.48272 1.50395 0 0 1 0.000908007 -0.0033205 0.00468791 -0.000611852 0.00256902 -0.00434358 0.000214433 8.5119e-05 0.00023193 0.5 -0.00112365 -0.000525451 -0.000726681 0.000872118 0.000518826 -0.0004594 
106 1 1.74473 2.23801 1.52991 0 0 1 0.00088728 -0.00408426 -0.000650926 -0.000872147 0.00365683 0.000700469 0.00213494 -0.000995538 -0.000324712 0.5 -2.81136e-05 -0.00611952 -0.00150835 0.00153429 0.00268689 -0.0015485 
157 1 1.38934 4.18141 1.8383 0 0 0 0.000395906 -0.00438927 0.00078373 -0.000123505 0.00392014 -0.000190175 0.00169308 0.000630158 0.000342136 0.5 -0.00292586 -0.00838886 -0.00936447 0.00152242 0.00349138 -0.00191593 
516 2 2.34683 0.889342 0.689245 0 0 0 0.000242075 0.0020505 -0.00232332 -0.000327202 -0.00202994 0.00224015 9.50467e-05 -0.00169586 -0.000542103 0.5 0.000381363 -0.00111441 -0.000453749 0.000212262 0.00231257 -0.00194753 
183 1 0.416774 4.58493 1.00143 0 0 0 -0.00305704 -0.00479822 0.00340708 0.00317171 0.00455678 -0.00239139 0.00388139 0.000824927 0.00103195 0.5 0.000621595 -0.000481446 -6.04439e-05 0.000232012 -0.00031475 -8.53036e-06 
625 2 0.401441 3.91217 0.209776 0 0 1 -0.00279757 -6.67305e-05 -0.000252245 0.00288919 4.90612e-05 0.00100236 0.0042117 -0.000450329 -0.000446478 0.5 -0.000332286 -2.82825e-05 -0.00112841 -0.000172098 -0.00043821 0.000501365 
91 1 2.22016 4.71929 1.69445 0 0 1 0.000600015 -0.00412189 0.00320274 -0.000199193 0.00342121 -0.00269908 0.000639749 -0.00103169 -0.000182027 0.5 -0.00204651 -0.00283493 -0.00109295 -0.00105597 0.00121096 -0.000759545 
257 1 4.93985 2.69296 1.70618 0 0 0 0.000964165 -0.00279963 0.00356888 -0.000783302 0.00231788 -0.00319593 0.00133998 0.00022606 -0.000219704 0.5 -0.0025209 -0.00264105 -0.00833779 -0.000178134 -0.00174498 -0.0017776 
4 1 3.72151 1.12945 1.95731 0 0 0 0.000399376 -0.0026754 -0.000256724 -0.000339007 0.00217735 0.000143514 0.00171239 -0.000158377 -9.77571e-05 0.5 -0.001074 -0.00128088 -0.00515728 -0.00229971 0.00198558 0.00281635 
522 2 2.58396 2.51015 2.00813 0 0 0 -0.000425029 -0.00340675 0.00149699 0.000447598 0.00276932 -0.00134832 0.00163026 -0.00104768 0.000576039 0.5 -0.00213055 -0.000175545 -0.000841731 0.00211501 0.00336342 -3.86676e-05 
117 1 3.12706 1.31431 1.15389 0 1 0 0.00062761 -0.000727833 -0.000349576 -0.000482898 0.000388233 0.000207038 0.00202498 -0.000629963 -0.000191436 0.5 0.000296171 -0.000941889 0.000924091 -0.000256052 0.00156587 0.000502989 
511 2 1.08133 2.24885 0.231586 0 0 0 -0.000917035 0.00304263 -0.00181451 0.000813682 -0.00287397 0.00185251 0.00373326 -0.000360973 -0.000718235 0.5 -0.00158441 -0.00586274 -0.0154811 0.00170709 0.00693122 -0.0032796 
911 2 0.492125 0.564271 0.701671 1 0 0 -4.77924e-05 -0.0010323 -0.00703534 -9.86715e-05 0.00088012 0.00638346 0.000501049 -0.000503416 -0.000357314 0.5 0.00142498 -0.00461832 0.000124319 -0.000395062 0.000624442 -0.00196344 
668 2 0.00204877 3.82396 1.93213 0 0 0 0.000280896 -0.00712621 0.00137436 -0.000349733 0.00640165 -0.000806884 0.000555414 0.00124561 -0.000247616 0.5 -0.00473664 -0.0138751 -0.00482982 0.0040872 -0.000408345 -0.000880852 
90 1 2.94069 4.58061 0.416634 0 0 1 -0.00155248 -0.000535556 0.00634613 0.00151584 0.000147709 -0.00553014 0.00142399 -0.000779408 0.00101744 0.5 0.000290494 0.00512966 0.00173194 0.00277082 0.00242274 0.0025069 
734 2 4.13685 3.24432 0.371568 0 1 1 0.000859254 0.00148746 0.00574931 -0.000573321 -0.00155543 -0.005099 0.00214888 0.000236136 -5.718e-05 0.5 -0.00108895 -0.00149898 -0.000822792 -0.000813307 0.000982937 -0.000354538 
672 2 0.0692913 1.98898 1.69195 0 0 0 -0.0028377 -0.0057665 -0.00364303 0.00237255 0.00519022 0.00333274 0.00229884 -0.000156726 0.000898237 0.5 -0.0103186 -0.0148775 -0.00657415 0.0060522 0.00599372 0.000327217 
759 2 4.95798 2.03941 0.949518 0 0 0 0.00115162 -0.00112268 0.00212367 -0.000985941 0.000829157 -0.00191004 0.00216272 7.74147e-05 -0.000516072 0.5 -0.00091531 -0.00474861 -0.001084 -0.00170883 0.0002361 -0.00166417 
609 2 1.99677 4.76062 0.134066 0 0 1 -0.00105366 -0.000729111 0.00468905 0.00105029 0.000310611 -0.00397142 0.0013401 -0.0016005 0.000606873 0.5 -0.00883269 -0.0298254 -0.00492658 0.00773331 0.00380772 -0.00584754 
868 2 2.87002 3.0061 0.0267761 0 0 1 -4.26736e-05 0.000746094 0.00352855 0.000105211 -0.00109894 -0.00300967 0.00189818 -0.000527093 0.000793786 0.5 -0.00174525 -0.00424337 -6.54725e-05 0.00304623 0.00072525 -0.000325584 
21 1 1.84618 0.359428 2.43391 0 0 0 -0.000787369 -0.00450344 -0.00476574 0.000583534 0.00404229 0.00433999 0.00104815 -0.00170387 0.00138695 0.5 0.000183714 0.000658401 -6.08527e-05 -1.64697e-06 0.00053163 -0.00105773 
682 2 2.73003 4.08552 2.77049 0 0 0 0.000847592 -0.0032169 0.00343114 -0.000614689 0.00280901 -0.00312571 0.00034342 -0.000274391 -0.00025065 0.5 -0.00541076 -0.00519176 -0.00234006 0.0011408 0.00497596 0.00400101 
907 2 0.981458 4.62827 2.63451 1 0 0 0.00105518 -0.00534625 0.00166215 -0.000893687 0.00464994 -0.00099913 0.00015363 -0.000746636 0.000289072 0.5 -0.0065972 -0.0093116 -0.00788176 0.00169038 0.0046371 -0.00307907 
144 1 1.68412 3.60358 2.81079 0 0 0 0.00162331 -0.0048527 7.19766e-05 -0.00145404 0.00417523 5.87925e-06 5.6718e-05 -0.000282839 -0.000487718 0.5 0.000370175 -0.00127596 -0.000933279 0.000703507 0.00146837 -0.000538172 
675 2 2.8299 4.74035 3.54323 0 0 0 0.00222135 -0.00325798 0.00373668 -0.00222784 0.00300064 -0.00339269 -0.000489399 -7.91899e-05 -0.00062022 0.5 -1.02909e-05 0.00034768 0.000813327 0.000423197 0.000267538 0.00125299 
502 2 4.389 1.31336 3.26927 0 0 0 0.000984187 -0.00375573 -5.78109e-05 -0.000904368 0.00351205 3.0534e-05 0.000801221 0.000294634 -0.000506391 0.5 -0.00398658 -0.00286379 -0.0024556 -0.00246242 0.00280549 0.00394373 
27 1 2.60839 0.302816 3.21206 0 0 0 0.00133056 -0.00350088 -0.00231963 -0.00134846 0.00312971 0.00205523 -9.8956e-05 -0.000510788 0.000220866 0.5 -0.00430791 -0.0043246 -0.00866145 0.00143689 0.00367303 0.000611883 
965 2 1.3545 3.66123 3.7994 1 0 0 0.00226592 -0.00495898 -0.000868433 -0.00216605 0.00412539 0.000904319 -0.000675675 0.000603537 -0.00113746 0.5 -0.00155287 -0.00400797 -0.00500955 0.00221162 -0.00104739 0.00255101 
61 1 1.66157 0.451246 3.51695 0 0 0 0.000352551 -0.00428908 -0.00568652 -0.000568262 0.00368336 0.00484853 -0.000635934 -0.000625559 0.000613927 0.5 -0.00351698 -8.69449e-05 -0.000560568 0.000412135 0.00239269 -0.000271145 
680 2 1.1905 2.78425 3.34745 0 0 0 -0.000612388 -0.00436023 -0.00096508 0.000522927 0.00360431 0.00092933 0.000163424 0.00055996 -0.000290477 0.5 -0.000421536 -0.00148117 -0.00213354 9.3336e-05 0.00122896 0.00063451 
251 1 4.71253 3.03631 3.89337 0 0 0 0.002921 -0.00442783 0.00382611 -0.002632 0.00417528 -0.00354457 0.001079 0.000765619 -0.00127936 0.5 -0.00392078 -0.00137278 6.76652e-05 -0.00331614 0.0015259 0.00244853 
517 2 4.00859 2.89598 2.21648 0 0 0 0.00031819 -0.00409336 0.00293721 -2.42681e-05 0.00366121 -0.00264847 0.000476079 0.000874026 -0.000933443 0.5 0.000108284 -0.000208036 -0.000353675 -0.000219551 0.000100706 0.000395576 
6 1 3.42147 1.78144 2.73148 0 0 0 0.000640182 -0.00262747 0.00200592 -0.00065662 0.0022792 -0.00191476 0.00147172 -0.000619156 0.000460147 0.5 -0.00616006 -0.000686713 0.00024755 0.000690082 0.00289848 0.000513649 
519 2 4.43291 3.61609 3.02809 0 0 0 0.000908764 -0.0036152 0.00486894 -0.000754295 0.00344269 -0.00440823 0.000703277 0.000518078 -0.000263773 0.5 -2.39145e-05 0.00169322 0.000855036 -0.00119993 0.000220341 0.000416267 
509 2 1.93492 1.51802 3.62634 0 0 0 0.00228863 -0.00280936 -0.00504828 -0.00216037 0.00197445 0.00436506 -0.000781938 0.00153921 0.000555236 0.5 0.0005829 -0.000590046 -0.00457644 -0.000398186 0.000953577 0.00127761 
142 1 1.03605 1.94477 2.17171 0 0 0 -0.00102951 -0.00438545 -0.00292498 0.000780279 0.00393843 0.00266573 0.00179064 -5.40729e-05 0.000542218 0.5 -5.53892e-05 -0.00106065 -0.00136171 0.000282591 0.000155676 0.00164548 
941 2 0.19354 2.26243 2.77498 1 0 0 -0.00217293 -0.00678846 -0.00268812 0.0018398 0.0060771 0.00248437 0.000812607 0.000155909 0.000206505 0.5 -0.000982603 -0.0024555 -0.00444633 -0.000239547 0.000776443 0.000848149 
919 2 0.650002 4.31906 3.53305 1 0 0 0.000796755 -0.005762 0.00102897 -0.000906029 0.00487814 -0.000551695 0.000644691 0.000142503 -0.000801908 0.5 -0.00314379 -0.00615765 -0.00336151 0.00315668 0.000301683 0.00180782 
95 1 3.53825 3.78031 2.26688 0 0 1 0.00126772 -0.00368307 0.00438424 -0.00103757 0.00322213 -0.00404885 0.000601045 -2.46759e-05 -0.000274584 0.5 -0.00503497 -0.00208027 -0.00495806 -7.97545e-05 0.00247431 -0.00119076 
458 1 1.55616 4.75611 3.86227 1 0 0 0.0012436 -0.00426536 0.00397593 -0.00100797 0.0039166 -0.00341601 -0.00123052 0.00010728 0.000243652 0.5 -0.000499766 -0.000156679 -0.000399402 0.000455163 6.56014e-05 -0.000303794 
41 1 1.14078 0.962827 2.01399 0 0 0 -0.000415169 -0.00396581 -0.00504891 0.000187716 0.00354909 0.00463421 0.00170945 -1.43901e-05 0.000799422 0.5 -0.0011677 -0.000794908 -0.00201407 0.000459986 0.00255569 -0.00193875 
814 2 0.270729 1.23034 3.406 1 0 0 0.00079239 -0.00453733 -0.00433826 -0.000840902 0.00386321 0.00392771 0.00056196 -0.00043797 0.00190861 0.5 -0.00454434 -0.00441184 -0.00415834 0.00187385 0.00187523 0.00469273 
130 1 1.70592 2.6502 2.50107 0 0 0 -0.00127498 -0.00439654 -0.00136378 0.00119841 0.0037558 0.00131916 0.00124997 -0.000590294 -0.000595151 0.5 -0.00268838 -0.00534415 -0.00423508 0.00183739 0.00224244 0.00247404 
12 1 2.70189 1.09737 2.61211 0 0 0 0.00119719 -0.00265209 -0.00121906 -0.00112085 0.00227258 0.000957466 0.000922634 -0.00133976 0.000549004 0.5 -0.00406349 -0.0066771 -0.00495989 0.00117373 0.00294456 -0.000480006 
512 2 3.18511 2.03212 3.78693 0 0 0 0.00220472 -0.0007973 0.000809498 -0.00205989 0.000741175 -0.000670583 0.00112581 -0.000549548 0.000498932 0.5 -0.000771721 -0.00241582 -0.001383 -7.81253e-05 0.00045924 0.00230408 
151 1 2.47888 3.30287 3.34004 0 0 0 0.000554231 -0.00403849 0.00217706 -0.000383967 0.00355322 -0.00200757 9.39714e-05 -0.000531787 0.000219555 0.5 0.000464373 -0.00826884 -0.00582455 -0.000616921 0.00334546 0.0030531 
667 2 0.284676 1.32413 2.40964 0 0 0 -0.00046336 -0.00562028 -0.00440157 0.000252398 0.00506686 0.00401132 0.00105069 0.000351798 0.00119949 0.5 -0.00184955 -0.00815702 -0.00591888 0.000183114 0.000186229 0.00159637 
38 1 3.7894 0.739003 3.87335 0 0 0 0.00181194 -0.00157784 -0.000888312 -0.00163035 0.00154085 0.000836092 -0.00115152 -0.000196988 -0.00043454 0.5 -0.00440592 -0.00189 -0.0103254 -0.00508465 0.00347779 0.00720789 
936 2 0.320964 3.37246 3.50711 1 0 0 -0.00161699 -0.00482626 -0.000677592 0.00124957 0.0040505 0.000802476 0.000699744 -0.00098397 -0.000611704 0.5 0.000194914 -0.00625091 -0.0022459 -0.000193372 0.00262629 0.00414702 
531 2 4.80031 0.81108 2.48039 0 0 0 -0.00022764 -0.00493786 -0.000155592 0.000135212 0.00445801 0.000126669 0.000537201 0.000280865 -0.000753581 0.5 -0.0013448 -0.000428767 -0.00314131 -0.0015712 -0.0022695 -0.0017307 
527 2 4.02885 4.31699 3.61587 0 0 0 0.0025504 -0.003256 0.0055822 -0.00247346 0.00307046 -0.00515235 -0.000325124 0.000124706 0.000102404 0.5 -0.0064234 -0.00192036 -0.00034418 -0.00334255 0.002308 0.00247911 
383 1 4.36265 4.34599 2.28619 0 0 1 0.00046064 -0.00251817 0.00476439 -0.000380129 0.00227229 -0.00441085 0.000470274 0.000124728 0.000205428 0.5 -0.00407983 -0.00093857 0.00130331 0.000639315 -0.000407765 -0.00121564 
992 2 0.694937 0.442112 3.8557 1 1 0 0.00146998 -0.00442366 -0.00514443 -0.00149224 0.00371003 0.00461325 -0.000504441 0.000914616 0.000641293 0.5 -0.00342059 -0.0080223 -0.00127963 0.00242802 -0.00101371 0.00380689 
521 2 4.93501 4.52937 3.24748 0 0 0 0.00211268 -0.00252703 0.00505089 -0.0020791 0.00239129 -0.0046934 -0.00024409 0.00076901 0.000472034 0.5 -0.00204212 -0.00142314 -0.00212791 -0.00115374 0.000165728 0.00319089 
136 1 1.8852 1.67428 2.62534 0 0 0 -0.000242782 -0.00461178 -0.00453173 8.12485e-05 0.00389159 0.00394451 3.31861e-05 0.000735476 0.000657785 0.5 -0.0045038 -0.00558495 -0.00394434 0.00306631 0.000678597 0.00136301 
540 2 4.5108 0.180921 3.41534 0 0 0 0.000915411 -0.00412592 -0.000529294 -0.000847164 0.00381905 0.000446883 -0.00131865 0.000452131 -0.000844107 0.5 0.00128106 0.00102343 0.000319841 -0.00122054 -0.000604388 0.000925138 
510 2 3.85454 2.57041 3.16901 0 0 0 0.00100325 -0.00338929 0.00308356 -0.00105276 0.00300914 -0.00288689 0.000376074 0.000233264 -0.000108458 0.5 0.0023088 0.00208004 -0.00102352 -0.000605193 0.000315967 0.00153999 
19 1 4.36523 1.84808 2.40764 0 0 0 0.000576142 -0.000990691 0.00215099 -0.000606984 0.000874331 -0.00205419 0.00141624 0.00016908 -0.000555693 0.5 -0.00794437 -0.000202202 -0.00367051 0.000308236 0.00368134 0.000577888 
543 2 1.07281 1.78976 3.19692 0 0 0 0.000855451 -0.00414969 -0.00306279 -0.000853617 0.0034231 0.00270701 0.000848624 0.000989768 0.000645541 0.5 -0.00136924 -0.00120845 -0.000707808 -0.0014119 0.00145115 0.000883081 
773 2 4.78723 2.22991 3.30606 0 0 0 0.000963346 -0.00385804 0.00273165 -0.000953782 0.00363127 -0.00252198 0.0006535 0.000716153 -0.000512793 0.5 -0.001531 -0.00591291 -0.0110193 -0.00226227 0.00427827 0.0094794 
555 2 2.23815 2.50795 3.89695 0 0 0 0.00164009 -0.00406609 0.00260896 -0.00150792 0.00367009 -0.00232975 -8.42616e-05 2.40015e-07 -4.97664e-06 0.5 -0.000754095 0.000121523 0.000531362 -0.000771651 0.00125301 0.00249579 
429 1 0.307689 2.40436 3.75825 1 0 0 -0.00117741 -0.00534514 -0.00301125 0.000953297 0.00450234 0.00281144 0.000374271 0.000319011 0.00117807 0.5 -0.00192078 -0.009865 -0.00606096 0.00234872 -0.00148924 0.00581378 
316 1 0.889882 0.515987 2.87316 1 0 0 5.6992e-05 -0.00515353 -0.00553692 -0.000476398 0.00448467 0.00493001 0.000138249 1.03296e-05 0.000826695 0.5 0.000697708 -0.000748813 0.000510635 0.000453134 0.000381647 0.000605667 
503 2 3.61646 0.770818 2.8866 0 0 0 0.000753741 -0.00346368 -0.000616876 -0.000694477 0.00316274 0.000577096 0.000138734 0.000184686 4.35752e-05 0.5 0.000379994 0.00118448 -0.00634049 -7.75191e-05 -5.90535e-06 0.00137343 
896 2 0.701394 3.6683 2.62975 1 0 0 0.00149527 -0.00546998 0.000527696 -0.00137434 0.00478801 -0.000144632 0.00034707 8.1095e-05 -0.000411831 0.5 -0.0010898 -0.00447974 -0.00564468 0.000223307 -0.000335055 0.000592627 
690 2 1.93644 4.67329 2.92774 0 0 0 0.000373049 -0.00391807 0.0036672 -0.00019398 0.00336516 -0.00309588 -7.88992e-05 -0.000407789 0.000520044 0.5 -0.00470183 -0.0029711 -0.000464704 0.00277518 0.000591724 -0.000818055 
641 2 3.45902 3.50229 3.22465 0 0 0 0.000768747 -0.00313835 0.00448115 -0.000620487 0.00288532 -0.00409691 -0.000220869 6.87665e-05 0.000218211 0.5 0.00223145 0.00153952 -0.00135904 -0.000506387 -0.000304895 0.00271987 
528 2 3.34171 4.80421 2.43984 0 0 0 0.00174404 -0.00344783 0.00458537 -0.00150056 0.00300222 -0.00433922 0.000658475 0.000349653 -0.000190858 0.5 -0.000777725 -0.00171429 -0.00179074 -0.00141516 0.000298012 0.000482602 
225 1 2.66694 2.38217 2.99705 0 0 1 -0.000535368 -0.00393064 0.00145088 0.000404439 0.00339118 -0.00128056 -6.92155e-05 0.000743791 0.000835602 0.5 -0.00147105 -0.00440658 0.000398766 0.00270586 -0.000168647 -0.00088969 
119 1 0.615788 2.84614 2.06697 0 0 0 -0.00215317 -0.00459868 -0.000192098 0.0018387 0.00416192 0.000296733 0.00169669 0.000263453 -2.80644e-05 0.5 0.00089811 -0.00376814 -0.0078084 0.000462045 0.002604 -0.00141425 
200 1 2.46349 0.209709 4.19711 0 1 0 0.00352719 -0.00206521 -0.00185876 -0.00315584 0.00177424 0.00165425 -0.00171749 -0.00100425 0.00131472 0.5 -0.00397966 -0.00247292 -0.00655688 -0.000212245 0.00276159 0.00147903 
114 1 4.70614 1.00516 4.17127 0 0 0 0.00172869 -0.00248165 0.00017755 -0.00161159 0.00251176 -9.92772e-05 -0.000331397 -0.000199358 -0.00082912 0.5 -0.00183224 0.000422306 0.000794365 -0.000298631 -0.000987079 -0.000548955 
820 2 1.30969 2.29519 4.21152 1 0 0 0.000457442 -0.00302512 -0.00035667 -0.000363056 0.00243533 0.000384872 -0.00088707 -0.00077319 0.000659735 0.5 -0.00157317 0.000183602 -0.0015892 0.0013398 0.00224862 0.00238077 
47 1 4.65373 1.58306 5.43488 0 0 0 0.00360941 -0.00214179 0.00114272 -0.00345047 0.00229771 -0.0011018 0.000371446 0.000890297 3.15426e-05 0.5 -0.00336004 -0.0043027 -0.00193034 -0.001388 -0.00197917 0.00286398 
824 2 1.64863 3.83112 5.79018 1 0 0 0.000996043 0.00110412 0.00370782 -0.00130565 -0.000884782 -0.00338594 -0.00233722 -8.95836e-05 -0.000997238 0.5 -0.00141877 -0.000873536 -0.0037686 -0.000809372 0.000549482 0.00127212 
172 1 3.4414 0.33807 4.72079 0 1 0 0.00233678 0.00109092 0.000594165 -0.00223478 -0.000763011 -0.00050982 -0.0015235 -0.000379574 6.58991e-05 0.5 -0.00427271 -0.00428003 -0.0133096 -0.00378086 0.00350923 0.00577013 
718 2 0.202042 2.03665 5.51296 0 1 0 0.000485511 0.000512988 -0.000425235 -0.000473679 -0.00087253 0.000491889 -0.00119337 -0.000514038 0.000417553 0.5 -0.00460349 -0.0005133 -0.00306627 0.00249127 -0.00285747 0.00701964 
505 2 0.484701 3.49923 5.83232 0 0 -1 -0.000358043 0.00475518 0.00258993 0.000239832 -0.00468212 -0.00245359 0.000136724 -0.00126696 0.00139653 0.5 -0.000759344 -0.0112713 -0.00536493 -0.000105714 -3.28195e-05 0.00871501 
524 2 3.99142 2.73378 5.70271 0 0 0 0.00667728 0.00198736 0.00689084 -0.00574071 -0.00129394 -0.0060699 -0.00145639 0.00409899 0.00231016 0.5 3.62391e-05 0.0013573 0.00104974 -0.000745311 -0.000900079 0.000754551 
839 2 0.578454 1.61769 4.31308 1 0 0 0.00160265 -0.00478044 -0.00356222 -0.00136654 0.00398676 0.00319351 -0.00064636 -0.000125863 0.00171118 0.5 -0.0011036 -0.00772021 -0.00464159 0.00346215 -2.79938e-05 0.00752051 
937 2 2.44268 3.38859 4.33596 1 0 0 0.00170068 -0.00359151 0.00212682 -0.00166081 0.00332286 -0.00198876 -0.000860765 -0.000901827 0.000154399 0.5 -0.00304099 -0.000178662 -0.00580918 -0.000145266 0.00274299 0.00349154 
811 2 2.60593 3.94615 5.52355 1 0 0 0.000799389 -1.61379e-05 0.00257072 -0.00131568 0.000550066 -0.00286655 -0.00135896 -0.00138257 -0.000215043 0.5 -0.00152904 -0.00444591 -0.00148388 -0.00180553 -0.000240155 0.00363915 
827 2 1.52031 3.18333 4.66323 1 0 0 0.000954558 -0.00313913 0.000311166 -0.000833979 0.00255161 -0.000152685 -0.00173659 -0.00118971 -0.00119612 0.5 -0.00308419 -0.00151576 -0.00597201 -0.000971729 0.00175683 0.00389098 
149 1 4.05459 3.93332 4.61605 0 0 0 0.00196133 -0.00124234 0.00473673 -0.00196371 0.00137082 -0.00425865 -7.13164e-06 0.000211181 0.000643221 0.5 0.000232777 -0.000903677 0.00202007 0.00325096 -0.00115651 0.00158454 
925 2 0.621996 3.5998 4.52332 1 0 0 0.00218785 -0.000862636 -0.000833773 -0.00201851 0.000351923 0.000939139 -0.00152056 0.000213551 -0.000779895 0.5 -0.00172272 -0.00220341 -0.000919236 0.000150335 -0.000905511 0.00138536 
168 1 3.33429 4.60376 5.32865 0 0 0 0.00185896 -0.000533785 0.00510299 -0.00196813 0.000825241 -0.00468467 -0.000689514 -0.000820139 0.000795577 0.5 -0.0045035 -0.003684 -0.00439161 -0.000584114 -0.000944177 0.00286632 
928 2 1.57416 4.40873 4.97694 1 0 0 0.00101103 -8.7474e-05 0.00291702 -0.00103474 0.000278192 -0.00263313 -0.00121174 -0.000246922 -0.00151799 0.5 -0.00330125 -0.00330542 -0.00303323 -0.00215986 0.00168317 0.00210557 
148 1 3.93913 3.74099 5.74186 0 0 0 0.00151674 0.00189353 0.00660752 -0.00174798 -0.0012649 -0.00598515 -0.00135688 -0.000831916 0.00254442 0.5 0.00103434 0.00362617 0.00232008 0.00169119 0.00172532 0.00171474 
914 2 4.6924 4.38531 5.24066 0 0 0 0.000327794 -0.000783724 0.00611579 -0.000583154 0.000942458 -0.0054018 -0.00185057 -0.00142907 -0.00151375 0.5 0.000128845 0.000711708 0.00158514 -0.000112291 0.000609031 0.00102375 
23 1 2.87688 1.11936 4.05865 0 0 0 0.00155116 -0.00153618 -0.0025661 -0.00141135 0.00136507 0.00225155 0.000111741 -0.000795288 0.000130778 0.5 -0.00340274 -0.0034985 -0.00232578 -0.00208572 0.00170852 0.00172574 
594 2 2.05482 1.97002 4.80213 0 0 0 0.00179302 0.00153027 0.000264141 -0.00165304 -0.00142977 -5.40865e-05 0.000605813 -0.000608417 0.00142754 0.5 -3.57899e-05 -0.0034636 -0.000571366 0.00145122 -0.000681587 0.00191204 
539 2 3.78324 1.03924 5.46783 0 0 0 0.00237579 0.00231672 0.00220528 -0.00234363 -0.00187072 -0.00195677 -0.000804498 0.00120386 -0.000591966 0.5 -0.00102838 -0.0116998 -0.00499596 -0.00484189 -0.00293681 0.00937404 
730 2 0.461042 1.11582 5.17001 0 1 0 0.00140503 8.81336e-05 -0.000735993 -0.00167561 -0.000425127 0.000542909 -0.000783271 8.47335e-06 0.00173402 0.5 0.00285224 -0.000634975 -0.00277762 -0.000254287 -0.000733363 0.00536758 
689 2 3.51869 0.102255 5.69601 0 1 0 0.00115974 0.00218509 0.000273141 -0.00118939 -0.00173858 -0.000106783 -0.000639688 -0.0012423 -0.000771986 0.5 -0.00504822 -0.015239 -0.0131019 -0.00225734 0.000632192 0.0110545 
450 1 0.617059 4.79989 4.46844 1 0 0 0.003651 -0.00200848 0.00048771 -0.00316185 0.001786 -7.91039e-05 -0.0032933 -0.000645994 0.000210344 0.5 -0.00186514 -0.00498427 -0.00993698 5.25378e-05 -0.00154895 0.00578975 
549 2 4.49955 0.501053 5.01376 0 0 0 -7.9884e-05 -0.00055857 0.000997016 -4.63833e-05 0.000794412 -0.000828539 -0.000550854 0.00068011 -0.00159905 0.5 0.00326136 0.00463718 0.00328774 -0.00221052 -0.00195207 0.0017772 
591 2 1.4448 1.12656 4.40591 0 0 0 0.00304298 -0.00232357 -0.00438737 -0.00271094 0.00170131 0.00393216 -0.000964105 0.000597979 0.000754501 0.5 -0.00186135 -0.00331871 -0.00285463 0.000989211 0.00040872 0.00270636 
243 1 1.20268 1.83632 5.34464 0 1 0 0.000395004 0.00214482 -0.00159399 -0.00038734 -0.00222048 0.00165633 -0.000501441 -0.000561729 0.00101749 0.5 -0.00164128 -0.00207591 -0.00111341 0.000672578 5.64706e-05 0.00249776 
646 2 3.73958 3.12439 4.10697 0 0 0 0.00328841 -0.00160552 0.00433749 -0.00293707 0.00162822 -0.00390387 -4.81385e-05 0.000395757 -0.00031837 0.5 -0.00248673 -0.00765831 -0.00523936 0.00134808 0.000620606 0.00507913 
374 1 0.580429 2.63588 4.80728 1 0 0 0.00115239 -0.000609758 -0.000937913 -0.000958943 0.000123182 0.00100941 -0.00114998 -0.000830537 -0.000530258 0.5 -0.00148293 -0.00327113 -0.00170789 -0.0010118 0.0020164 0.00251403 
418 1 0.657139 4.37138 5.37443 1 0 0 0.00104885 0.00474499 0.00336927 -0.000925938 -0.00448734 -0.00276814 -0.00237058 -0.000846254 -0.00166415 0.5 -0.00210227 -0.00761922 -0.010447 -0.00202506 0.00124688 0.00562627 
190 1 2.1628 2.44172 6.02531 0 1 0 -0.00142598 0.00329137 0.00416265 0.00135371 -0.00298952 -0.0037874 -0.00102513 -0.00145882 -0.000208566 0.5 -0.00101247 -0.00247614 -0.00424351 0.000137036 0.000959072 0.003449 
507 2 3.6657 1.47431 4.57451 0 0 0 -0.000697304 -0.00192178 0.000676288 0.000507474 0.00195248 -0.000583709 0.000249834 -0.000620727 -0.000318413 0.5 -0.00327537 -0.00268602 -0.00586383 -0.00408986 0.0013535 0.01012 