ITEM: TIMESTEP
230500
ITEM: NUMBER OF ATOMS
1000
ITEM: BOX BOUNDS xy xz yz pp pp pp
0.0000000000000000e+00 1.0000000000000000e+01 0.0000000000000000e+00
0.0000000000000000e+00 1.0000000000000000e+01 0.0000000000000000e+00
0.0000000000000000e+00 1.0000000000000000e+01 0.0000000000000000e+00
ITEM: ATOMS id type x y z ix iy iz vx vy vz fx fy fz omegax omegay omegaz radius c_2[1] c_2[2] c_2[3] c_2[4] c_2[5] c_2[6] 
120 1 3.15852 1.54146 0.0722925 0 1 0 -6.2474e-12 2.59374e-11 1.38246e-11 1.10744e-11 -2.05829e-11 -6.90049e-12 1.39764e-11 4.49926e-12 -8.51315e-12 0.5 -1.40963e-11 -6.70396e-11 -7.03256e-12 -6.27874e-12 -4.41241e-12 -1.67648e-11 
525 2 2.11627 1.23431 1.69988 0 0 0 -2.53912e-11 -5.87081e-11 -3.42601e-11 2.13409e-11 5.00489e-11 2.91486e-11 -4.79511e-12 6.16433e-12 1.99772e-11 0.5 1.50093e-12 -3.88933e-12 2.00025e-12 4.94148e-12 1.59538e-12 -8.8066e-13 
371 1 4.95931 3.68326 1.58374 0 0 1 1.32548e-11 -1.80845e-11 3.0643e-11 -6.6421e-12 3.15981e-11 -2.8673e-11 2.46999e-12 -2.29635e-12 1.17709e-12 0.5 -5.97055e-12 -3.19847e-11 2.18872e-11 -1.93371e-12 -4.71272e-12 3.81746e-12 
18 1 1.98117 2.69195 0.532518 0 0 0 -1.34604e-11 -3.82984e-14 3.9071e-11 6.15583e-12 4.0681e-12 -2.50634e-11 2.51627e-11 -8.02619e-12 8.08137e-12 0.5 -2.48709e-11 -5.34355e-11 -3.40256e-11 4.41737e-11 1.66632e-11 -2.38315e-11 
868 2 2.87004 3.00634 0.0289121 0 0 1 9.72477e-12 -4.62119e-12 3.04919e-11 -1.498e-11 3.2595e-11 -2.33516e-11 2.09851e-11 -3.6347e-12 9.42983e-12 0.5 -2.53209e-11 -2.94688e-11 -1.45821e-11 2.38786e-11 9.89032e-13 -1.14558e-12 
25 1 1.41548 0.708705 1.0832 0 0 0 -9.07894e-12 -2.0782e-11 -3.27253e-11 5.55302e-12 1.94697e-11 2.79553e-11 1.61146e-11 -4.0289e-12 1.26348e-11 0.5 -1.41603e-11 -9.20175e-11 -5.06357e-11 3.9558e-11 2.48184e-11 -4.68644e-11 
378 1 4.61919 2.40719 0.0725816 0 0 1 3.61195e-12 1.91847e-11 2.20295e-11 -4.11429e-12 -1.78194e-11 -2.0475e-11 2.26096e-11 5.41615e-12 -5.29915e-12 0.5 -1.439e-11 -3.78359e-11 -2.13861e-11 -1.84062e-14 -3.10187e-12 -2.66752e-11 
8 1 3.44143 2.06796 1.74253 0 0 0 -2.66459e-12 -2.43764e-11 7.83322e-12 -2.31896e-12 2.17531e-11 -7.49839e-12 2.01338e-11 -4.46419e-12 4.93116e-12 0.5 1.90628e-11 1.12709e-11 1.43288e-11 6.04558e-12 -7.76862e-12 7.9671e-12 
629 2 4.07713 2.6156 1.19812 0 0 1 5.34842e-12 -1.00535e-11 3.11771e-11 -7.71833e-12 6.12612e-12 -3.07885e-11 2.195e-11 -7.21712e-12 1.02874e-12 0.5 -3.65721e-11 -5.12975e-12 -2.96621e-11 7.72058e-12 -2.78357e-11 -1.60984e-11 
5 1 2.34651 3.9005 1.05345 0 0 0 -2.10344e-12 -4.20906e-11 4.29827e-11 2.33569e-12 3.61751e-11 -3.73125e-11 2.1058e-12 2.66749e-12 8.73169e-12 0.5 -1.94591e-12 -4.2073e-12 -5.87132e-12 5.59777e-12 6.27362e-13 -9.49264e-13 
650 2 0.459129 3.43666 1.12967 0 0 0 -2.745e-11 -4.78733e-11 1.22303e-11 2.06613e-11 4.3221e-11 -7.06689e-12 2.72643e-11 1.26944e-12 3.30938e-14 0.5 -3.54951e-11 -4.08065e-11 -4.29957e-11 3.05318e-11 2.93483e-11 -1.91332e-11 
14 1 3.29515 3.13364 1.54473 0 0 0 1.59204e-12 -1.82942e-11 3.4108e-11 -9.21226e-14 1.561e-11 -2.76856e-11 4.6517e-12 4.49102e-12 3.3654e-12 0.5 -4.44862e-12 -9.99413e-12 -2.14635e-11 1.71413e-11 -3.29493e-12 -6.87269e-12 
264 1 3.99643 3.86789 1.37953 0 0 0 1.2568e-11 -2.16858e-11 3.13197e-11 -8.78424e-12 1.95169e-11 -2.72469e-11 8.29482e-12 1.44391e-12 1.98286e-12 0.5 -6.66873e-12 1.37825e-12 -1.55846e-11 1.37499e-11 -2.42485e-12 -4.82185e-12 
223 1 0.747634 2.47805 1.14565 0 0 1 -3.02039e-11 -4.80307e-11 1.18641e-11 2.00367e-11 4.19967e-11 -5.46644e-12 2.57917e-11 -9.64872e-12 3.7927e-12 0.5 -2.1038e-11 -5.0709e-11 -1.34945e-10 1.75704e-11 4.94363e-11 -3.66816e-11 
364 1 4.4227 4.23693 0.53984 0 0 1 9.54713e-12 1.33276e-11 4.42108e-11 -1.87037e-11 -1.6372e-12 -4.5759e-11 1.25152e-11 -2.45628e-12 5.19418e-12 0.5 5.46118e-12 9.19846e-12 6.75248e-12 5.71834e-15 5.93015e-12 -7.9388e-12 
107 1 1.66076 1.61825 0.747451 0 0 1 -2.32833e-11 -1.00264e-11 -1.37584e-11 1.51838e-11 6.39392e-12 9.92482e-12 2.5833e-11 -1.23499e-12 4.34182e-12 0.5 2.81035e-11 2.41719e-13 -2.43547e-12 -9.1808e-12 4.85908e-12 -1.43542e-11 
529 2 2.67265 2.1996 1.06195 0 0 0 -3.52829e-12 -1.63645e-11 1.04298e-11 1.74611e-12 1.23453e-11 -1.1835e-11 2.39172e-11 2.24755e-12 7.00227e-12 0.5 -7.07948e-12 -2.03203e-11 -2.6531e-11 1.51645e-11 -1.24891e-11 4.75952e-12 
515 2 4.38643 0.435908 1.64385 0 0 0 4.43988e-12 -2.47658e-11 -2.17794e-11 2.17321e-12 2.84064e-11 1.27033e-11 1.462e-11 -2.14478e-12 5.23691e-12 0.5 9.94852e-12 -9.78111e-12 -2.82778e-11 -2.53275e-11 -5.61566e-12 3.25377e-12 
244 1 4.11373 0.570462 0.682724 0 1 1 3.99263e-12 1.08979e-11 -1.55456e-11 -5.58629e-12 -7.08114e-12 1.26393e-11 2.10579e-11 7.45011e-12 2.14918e-12 0.5 -5.29565e-12 -4.49898e-12 -2.85175e-11 1.88104e-12 2.49019e-12 1.6239e-12 
20 1 2.90179 0.570818 1.78382 0 0 0 9.27991e-13 -2.44437e-11 -2.32563e-11 -2.38671e-12 2.03657e-11 2.01241e-11 9.72651e-12 -5.62735e-12 6.76875e-12 0.5 -1.02223e-11 -2.67378e-11 -4.51723e-11 1.93476e-11 1.81678e-11 -3.42429e-11 
280 1 4.09077 1.582 1.14626 0 0 0 1.45866e-12 -5.41369e-12 -3.33054e-12 -5.04956e-12 5.7272e-12 1.47034e-12 2.3236e-11 -1.62859e-12 1.60721e-12 0.5 3.04852e-12 -9.40885e-12 -3.09261e-11 6.32775e-12 1.67133e-11 9.71522e-12 
620 2 1.3946 4.37082 0.857654 0 0 1 6.30979e-12 -2.86647e-11 3.72196e-11 5.69235e-12 3.00884e-11 -6.88168e-11 1.76202e-11 1.21119e-11 -1.10904e-11 0.5 -1.02904e-11 -4.69329e-11 -9.09721e-11 4.49619e-12 -1.1958e-11 1.23344e-11 
1000 2 3.60332 2.39824 0.339819 0 1 1 2.32499e-11 7.56092e-12 1.97844e-11 -3.74878e-11 6.02491e-12 -2.25538e-11 1.56994e-11 -2.14615e-12 4.48713e-13 0.5 -2.44441e-11 -4.5756e-11 -3.01314e-11 -5.59853e-12 -2.3133e-11 -9.11202e-12 
103 1 3.28431 3.68319 0.698947 0 0 1 2.43847e-12 -1.21994e-11 3.9734e-11 -7.75694e-13 8.21403e-12 -3.25789e-11 1.1435e-11 3.85114e-13 6.63384e-12 0.5 -1.41327e-11 -1.88576e-11 -1.85593e-11 1.38094e-11 -1.17399e-12 8.81189e-13 
622 2 0.930663 4.80385 0.0848388 0 0 1 5.87708e-12 -2.57214e-12 5.28485e-11 -1.20805e-11 9.2878e-12 -6.24722e-11 2.29069e-11 -9.84705e-13 -4.48178e-12 0.5 -2.59517e-12 3.56104e-12 -3.43682e-11 -6.93698e-13 -1.70139e-11 1.0456e-11 
506 2 0.74356 1.4513 1.18235 0 0 0 -3.08726e-11 -4.79672e-11 -2.785e-11 2.65923e-11 3.99676e-11 2.793e-11 1.91047e-11 -2.85269e-12 1.51365e-11 0.5 4.78428e-12 -6.01643e-11 -8.27304e-12 6.776e-11 1.31502e-11 -3.5134e-11 
626 2 1.28815 3.41645 0.566227 0 0 1 -2.76131e-11 -1.58277e-11 1.27975e-11 1.90371e-11 1.51997e-11 -1.09338e-11 1.4567e-11 -6.16241e-12 1.91099e-12 0.5 -3.67656e-11 -5.43238e-11 -9.38737e-12 3.10981e-11 2.19783e-11 -1.5306e-11 
553 2 0.744043 0.0774004 1.56305 0 0 0 -6.19145e-12 -3.54033e-11 -4.22576e-11 5.16165e-12 3.00652e-11 3.78149e-11 2.58972e-12 -9.86782e-12 1.67944e-11 0.5 5.36841e-12 6.41283e-13 3.93832e-12 4.13515e-12 1.03729e-12 -7.32828e-12 
135 1 1.54769 3.20472 1.67709 0 0 0 7.68081e-12 -4.46887e-11 7.72844e-12 -3.17797e-12 1.31152e-11 -7.95218e-12 1.37302e-11 -1.80852e-11 -6.00759e-12 0.5 1.40157e-12 -8.92664e-11 -1.72007e-11 2.21702e-11 8.57173e-12 -2.43253e-12 
624 2 4.32461 4.92098 1.47156 0 0 1 2.3739e-11 -1.63351e-12 3.11094e-11 -2.2143e-11 7.8526e-13 -2.61092e-11 8.83419e-12 -1.79246e-12 6.46092e-12 0.5 8.97419e-12 6.35263e-12 -2.46343e-11 1.00787e-11 -1.84106e-11 -1.80699e-11 
256 1 4.58719 1.36786 0.305 0 0 0 3.85843e-12 1.52182e-11 -6.7812e-12 -4.10114e-12 -1.29292e-11 5.63798e-12 2.21615e-11 4.08667e-12 -5.4324e-12 0.5 -3.44925e-12 -1.80248e-11 -1.94068e-11 -1.09297e-11 -5.80564e-12 -3.1618e-11 
260 1 3.31854 0.0700552 1.02517 0 0 0 1.10053e-11 -8.22005e-12 -2.75504e-11 -1.2116e-11 1.11579e-11 2.2647e-11 8.72135e-12 1.18471e-11 3.24774e-12 0.5 -4.76988e-12 -2.9853e-11 -3.57217e-11 1.62808e-12 2.83436e-12 -2.2592e-11 
616 2 3.19106 4.4806 1.50664 0 0 1 8.07213e-12 -3.3578e-11 2.94985e-11 -8.31131e-12 2.85697e-11 -2.75736e-11 -2.00449e-12 4.53798e-12 7.36909e-12 0.5 -1.53963e-11 -6.73545e-12 -8.29624e-12 9.55317e-12 7.12816e-13 -4.48226e-12 
106 1 1.74522 2.23558 1.52961 0 0 1 -4.03382e-12 -4.73671e-11 1.33706e-11 1.72919e-12 2.92991e-11 -1.54766e-11 1.83281e-11 -5.50227e-12 -4.02202e-12 0.5 2.64552e-11 -3.59009e-11 8.3621e-14 1.83784e-11 8.59558e-12 -1.3038e-11 
157 1 1.3897 4.17879 1.83903 0 0 0 1.44152e-11 -4.88196e-11 3.32254e-11 1.79187e-11 7.9634e-12 -4.52109e-11 1.81597e-11 2.46046e-12 2.63602e-12 0.5 -2.65487e-11 -8.19652e-11 -1.21878e-10 2.57128e-11 3.65581e-11 -2.55172e-11 
516 2 2.34691 0.89043 0.68796 0 0 0 -7.30609e-12 4.22733e-12 -9.3773e-12 1.78143e-12 -5.19589e-12 8.18122e-12 1.61528e-12 -3.45518e-12 2.60866e-12 0.5 1.0495e-11 -2.47886e-12 -4.89066e-12 -2.31075e-12 1.12257e-11 -1.48117e-11 
183 1 0.415258 4.58221 1.00381 0 0 0 9.70725e-12 -4.08547e-11 7.78589e-11 -7.04486e-12 3.5125e-11 -6.63974e-11 3.48943e-11 1.9755e-11 1.91765e-12 0.5 1.25973e-13 -2.05264e-12 4.51525e-12 3.57976e-12 -5.55388e-12 4.31691e-12 
625 2 0.399951 3.91216 0.210014 0 0 1 -4.60758e-12 1.31296e-12 4.084e-11 4.41311e-12 -6.67723e-13 -3.35709e-11 3.30461e-11 -3.83782e-12 -1.5661e-11 0.5 -1.34172e-12 1.08387e-12 -6.11722e-12 -1.26773e-12 -2.79361e-12 6.25197e-12 
91 1 2.22066 4.71676 1.69645 0 0 1 1.05765e-11 -4.14086e-11 4.02899e-11 -4.39948e-12 3.71199e-11 -3.58098e-11 -4.0756e-15 3.63518e-12 2.98417e-12 0.5 -1.74433e-11 -8.02781e-12 -4.35073e-12 -2.25187e-12 1.84482e-12 -3.82224e-12 
257 1 4.94043 2.69123 1.70827 0 0 0 6.81646e-12 -1.89298e-11 2.39615e-11 -7.42559e-12 6.83264e-12 -2.00666e-11 8.56345e-12 -4.46917e-13 -4.06971e-12 0.5 -4.31997e-11 -3.03719e-11 -7.05533e-11 3.20045e-12 -2.53889e-11 -1.23445e-11 
4 1 3.72174 1.12777 1.95711 0 0 0 2.27981e-12 -2.83951e-11 -1.58706e-11 -3.39687e-12 2.4868e-11 1.1745e-11 1.48003e-11 -8.38728e-13 2.28889e-12 0.5 -2.76625e-12 -5.15235e-12 -5.33096e-11 -7.88643e-12 4.84519e-12 2.51939e-11 
609 2 1.99624 4.76004 0.136921 0 0 1 5.95973e-12 -1.66789e-11 4.78335e-11 9.93654e-12 3.15825e-11 -4.1768e-11 7.11756e-12 -2.54577e-12 8.48023e-12 0.5 -6.6243e-11 -1.95586e-10 -2.85398e-11 5.16804e-11 9.01363e-12 -4.58352e-11 
117 1 3.12746 1.31374 1.15363 0 1 0 3.76308e-12 -1.44172e-11 -1.04202e-11 -5.31817e-12 1.04594e-11 7.48024e-12 1.87192e-11 1.29117e-12 2.59902e-12 0.5 8.98302e-12 -1.02352e-11 -3.10994e-12 1.33273e-11 -2.80458e-12 9.7618e-12 
511 2 1.08079 2.25054 0.230642 0 0 0 -1.32922e-11 1.32568e-11 2.25057e-12 1.30663e-11 -1.44906e-11 -1.15395e-11 3.219e-11 -7.72615e-12 -5.3914e-12 0.5 -8.80531e-12 -4.50715e-11 -1.06897e-10 2.11143e-11 5.40988e-11 -4.50947e-11 
911 2 0.492018 0.563612 0.697612 1 0 0 -6.71457e-12 -3.08424e-11 -4.09859e-11 3.95217e-12 3.00392e-11 3.56131e-11 2.50346e-12 -7.02629e-12 3.65075e-12 0.5 9.78555e-12 -4.19435e-11 -1.18085e-12 -2.86648e-12 3.19936e-12 -1.57428e-11 
668 2 0.00216515 3.81975 1.93315 0 0 0 -9.3606e-12 -8.5087e-11 3.91421e-11 1.27342e-11 7.45119e-11 -2.41081e-11 8.33053e-12 5.66121e-12 -8.21834e-12 0.5 -6.01895e-11 -1.44617e-10 -6.06933e-11 4.67113e-11 -1.52827e-11 -1.57479e-12 
90 1 2.93989 4.58015 0.420403 0 0 1 6.99183e-12 -8.18822e-12 4.77501e-11 2.9815e-11 1.36444e-11 -7.97416e-11 6.75415e-12 -1.40997e-12 9.09632e-12 0.5 1.17615e-12 6.78825e-12 1.49678e-12 3.27004e-11 3.50219e-12 7.35543e-12 
734 2 4.13742 3.24508 0.37494 0 1 1 1.28716e-11 1.30111e-11 4.24104e-11 -1.22085e-11 -1.09549e-11 -3.71816e-11 2.08285e-11 2.39957e-12 3.46019e-12 0.5 -2.20681e-11 -1.24967e-11 1.09797e-12 1.57785e-11 5.28681e-12 -1.14237e-11 
672 2 0.0675425 1.98557 1.68985 0 0 0 -3.66342e-11 -6.77235e-11 -1.46314e-11 3.00063e-11 5.60883e-11 2.02595e-11 2.05615e-11 -3.78148e-12 8.64892e-12 0.5 -7.32986e-11 -1.30341e-10 -5.25307e-11 5.20582e-11 4.08405e-11 1.66661e-13 
759 2 4.95866 2.03867 0.950748 0 0 0 4.44775e-12 -4.49959e-12 1.18329e-11 -3.61401e-12 1.3016e-12 -8.13441e-12 1.90288e-11 -4.24462e-12 -5.85629e-12 0.5 -1.97808e-12 -5.29336e-11 -2.58252e-11 -6.2473e-12 -5.43034e-12 -3.86102e-12 
21 1 1.84566 0.35675 2.43115 0 0 0 -9.29838e-12 -4.58362e-11 -3.46918e-11 7.99013e-12 3.93379e-11 3.0203e-11 9.3883e-12 -5.45906e-12 1.45461e-11 0.5 -2.35848e-12 -6.05199e-12 -5.67503e-13 5.09264e-12 -5.23524e-13 -1.59228e-12 
682 2 2.73058 4.0836 2.7725 0 0 0 8.3505e-12 -2.88729e-11 2.94773e-11 1.31002e-11 2.73412e-11 -2.77372e-11 -9.8857e-13 2.66044e-12 5.83258e-12 0.5 -6.60962e-11 -2.47259e-11 -3.21194e-12 5.80154e-11 1.99297e-11 2.44927e-11 
907 2 0.982097 4.62503 2.63573 1 0 0 3.3819e-12 -7.06372e-11 4.12618e-11 -2.0588e-11 9.22349e-11 6.83635e-12 3.13347e-12 -5.99903e-12 4.08015e-12 0.5 -7.89906e-11 -1.12889e-10 -1.01216e-10 2.86161e-11 3.71348e-11 -4.41813e-11 
144 1 1.68507 3.60062 2.81087 0 0 0 7.15173e-12 -5.9084e-11 7.41431e-12 -1.29173e-11 4.86825e-11 -6.51531e-12 -2.48912e-12 6.44775e-12 2.96874e-12 0.5 -3.42916e-11 -6.49903e-12 -1.33464e-11 2.1323e-11 -1.10783e-11 1.3083e-12 
675 2 2.83107 4.7385 3.54541 0 0 0 -5.93103e-12 -1.60475e-11 2.88982e-11 4.67941e-12 1.39881e-11 -2.66103e-11 -7.94435e-12 7.11526e-12 -3.99587e-13 0.5 2.83686e-12 1.0364e-11 2.32328e-11 1.14939e-11 -6.19677e-12 1.96632e-11 
502 2 4.38953 1.31124 3.26921 0 0 0 -8.84503e-12 -1.66667e-11 -1.27111e-11 1.07202e-11 2.70377e-11 1.49267e-11 3.09029e-12 -6.26375e-13 -9.02023e-13 0.5 -2.91704e-11 -3.7961e-12 -1.48695e-11 -1.10993e-11 1.39937e-11 3.20024e-11 
27 1 2.60908 0.300739 3.21066 0 0 0 -6.15854e-12 -3.71496e-11 -2.72092e-11 3.15202e-12 3.30782e-11 2.98691e-11 9.83104e-13 -5.1417e-12 8.3135e-12 0.5 -3.1211e-11 -3.4247e-11 -5.34331e-11 1.75435e-11 1.89197e-11 4.87405e-12 
965 2 1.35576 3.65812 3.79896 1 0 0 1.25563e-11 -7.2905e-11 3.54106e-12 1.57256e-11 3.95695e-11 4.10366e-12 -3.91007e-12 1.29347e-11 -9.08117e-12 0.5 -2.25585e-11 -4.98278e-11 -4.56749e-11 3.30225e-11 -2.02913e-11 3.16493e-11 
61 1 1.66165 0.448609 3.51352 0 0 0 -1.44171e-11 -6.31552e-11 -4.45396e-11 1.19265e-11 5.44756e-11 3.99782e-11 3.18372e-12 3.56257e-14 1.1935e-11 0.5 -2.24689e-11 -1.11957e-12 -4.57314e-12 6.08173e-12 1.15137e-11 -1.30556e-12 
680 2 1.1901 2.78151 3.34693 0 0 0 -1.71274e-11 -6.65038e-11 2.2204e-12 1.44448e-11 5.67408e-11 -3.51805e-12 2.13951e-12 6.20696e-12 -1.56952e-12 0.5 3.21952e-12 -1.46828e-11 -1.86997e-11 3.48407e-12 6.40589e-12 5.13914e-12 
251 1 4.71421 3.03382 3.89556 0 0 0 1.18899e-11 -2.31229e-11 2.30992e-11 2.87334e-11 1.79848e-11 -2.27308e-11 1.21148e-11 8.85771e-12 -1.26323e-11 0.5 -6.42881e-11 -1.09328e-11 -1.41548e-12 -2.54407e-11 1.79855e-11 2.19092e-11 
517 2 4.0089 2.89361 2.21821 0 0 0 9.93637e-12 -1.88816e-11 2.34972e-11 -2.31588e-12 6.08004e-12 -2.12476e-11 5.20422e-12 -1.30206e-12 -8.56386e-13 0.5 -2.5387e-12 -4.64253e-12 -1.57278e-11 2.63163e-12 -3.6247e-12 6.89512e-12 
6 1 3.42179 1.77987 2.73262 0 0 0 -1.11052e-11 -2.2751e-11 1.07599e-11 -1.83102e-11 1.3903e-11 7.82959e-12 1.38291e-11 -6.39941e-13 1.01979e-11 0.5 -8.59057e-11 6.95332e-12 4.05683e-12 2.42423e-11 3.33184e-11 1.3065e-11 
519 2 4.43345 3.61408 3.03093 0 0 0 4.38924e-12 -1.02343e-11 3.44402e-11 -5.31824e-12 1.31729e-11 -2.79537e-11 4.42808e-12 2.09069e-12 -1.81277e-12 0.5 1.17116e-12 1.8514e-11 1.51931e-11 -1.14422e-11 -6.05166e-12 9.11704e-12 
509 2 1.93621 1.51608 3.62332 0 0 0 7.72711e-12 -5.8856e-11 -3.73793e-11 -6.70861e-13 5.4943e-11 2.60431e-11 -2.5689e-12 1.81083e-11 -4.23969e-13 0.5 3.29335e-12 -7.05727e-12 -5.06357e-11 -7.2688e-12 1.21846e-11 1.50812e-11 
142 1 1.03537 1.94217 2.17003 0 0 0 -2.38812e-11 -5.48558e-11 -1.17037e-11 2.03657e-11 3.87949e-11 7.24526e-12 1.84081e-11 7.40744e-13 4.16291e-12 0.5 1.2372e-11 -8.34959e-12 -6.48533e-12 2.7698e-11 -1.4579e-11 9.2257e-12 
941 2 0.192203 2.2584 2.77344 1 0 0 -3.17213e-11 -7.82035e-11 -8.77541e-12 2.00519e-11 5.85318e-11 7.7519e-12 1.1289e-11 1.69979e-12 4.13656e-12 0.5 -9.18149e-12 -2.7682e-11 -4.65305e-11 -1.95583e-13 5.74215e-12 5.41721e-12 
919 2 0.650389 4.31552 3.53385 1 0 0 -1.89243e-12 -7.71713e-11 3.3561e-11 -2.61126e-11 9.56395e-11 -3.45227e-11 9.95246e-12 5.07019e-12 -1.2519e-11 0.5 -4.12325e-11 -6.69013e-11 -3.3642e-11 3.80257e-11 -4.12505e-12 2.27885e-11 
95 1 3.53903 3.77814 2.2694 0 0 1 1.21359e-11 -1.83624e-11 3.03577e-11 4.97213e-12 5.57509e-12 -2.10024e-11 3.94481e-13 5.31528e-13 2.65353e-12 0.5 -2.92064e-11 -1.06181e-11 -2.80607e-11 1.25523e-11 1.52856e-11 -1.09009e-11 
458 1 1.5569 4.7536 3.86468 1 0 0 1.21987e-13 -5.44389e-11 4.35306e-11 -9.33948e-13 4.63353e-11 -3.18357e-11 -8.34735e-12 2.4983e-12 4.02296e-12 0.5 -2.42532e-11 -1.57028e-11 -1.6387e-11 2.04446e-11 -3.09948e-12 -3.6818e-13 
41 1 1.14045 0.960462 2.01108 0 0 0 -1.70769e-11 -5.13864e-11 -2.74659e-11 1.26076e-11 3.6392e-11 2.29255e-11 1.68827e-11 -2.87377e-12 9.96629e-12 0.5 -1.69359e-11 -1.73279e-11 -3.3364e-11 1.24271e-11 2.1014e-11 -1.42324e-11 
814 2 0.27112 1.22753 3.40348 1 0 0 -8.12948e-12 -6.46073e-11 -2.21441e-11 1.81958e-11 1.36609e-11 2.45898e-11 8.41023e-12 -5.06576e-12 1.65084e-11 0.5 -1.91226e-11 -1.55689e-11 -1.83817e-11 5.56751e-12 3.22524e-11 3.02632e-11 
130 1 1.70518 2.6475 2.50033 0 0 0 -1.7462e-11 -5.73291e-11 5.64091e-13 1.32622e-11 4.65271e-11 1.7531e-13 1.47361e-11 -6.02403e-12 -6.34865e-12 0.5 -5.03849e-12 -3.35379e-11 -3.2736e-11 2.08889e-11 1.15504e-11 2.5466e-11 
12 1 2.70258 1.09575 2.61132 0 0 0 2.79356e-12 -3.17838e-11 -1.88619e-11 -1.9209e-11 1.23591e-11 1.81624e-11 1.00032e-11 -1.0131e-11 1.10916e-11 0.5 -4.91624e-11 -5.48534e-11 -3.53765e-11 2.93543e-11 1.50917e-11 1.75641e-12 
512 2 3.18635 2.03167 3.78747 0 0 0 -4.827e-13 -7.70792e-12 1.73176e-11 -9.46998e-13 6.32217e-12 -1.60273e-11 1.14271e-11 -1.90967e-12 7.55008e-12 0.5 -1.10025e-11 -2.14405e-11 -2.11318e-11 5.94738e-12 -6.31384e-12 2.41655e-11 
151 1 2.47925 3.30049 3.34132 0 0 0 6.44697e-12 -3.26316e-11 2.2736e-11 -7.4547e-12 3.77194e-11 -1.79874e-11 -5.04573e-12 -3.09838e-12 2.02135e-12 0.5 -1.38419e-11 -5.15972e-11 -5.02268e-11 2.02267e-11 7.14565e-12 4.82017e-12 
667 2 0.284319 1.3208 2.4071 0 0 0 -1.75109e-11 -6.79637e-11 -2.21629e-11 1.82956e-11 5.62299e-11 2.5428e-11 9.87273e-12 3.0825e-12 1.0404e-11 0.5 -9.54348e-12 -5.92785e-11 -4.88448e-11 1.54451e-11 -1.09426e-12 6.28718e-12 
38 1 3.79042 0.738149 3.87284 0 0 0 -5.42964e-12 -3.17041e-12 -1.66826e-11 -1.4924e-11 -8.00792e-12 8.93408e-12 -1.09545e-11 -4.01568e-12 1.875e-12 0.5 -4.86683e-11 -7.49461e-12 -7.87291e-11 -3.61742e-11 7.22668e-12 5.3793e-11 
936 2 0.319906 3.36948 3.50683 1 0 0 -3.01113e-11 -6.628e-11 1.58912e-11 2.01023e-11 6.13951e-11 -9.30796e-12 1.0714e-11 -8.23104e-12 -6.95288e-12 0.5 5.25243e-13 -8.14644e-11 -3.54824e-11 -1.39272e-14 3.48298e-11 4.56177e-11 
531 2 4.80013 0.808197 2.48028 0 0 0 -1.51742e-11 -3.08114e-11 -1.16e-11 1.13113e-11 2.89897e-11 8.999e-12 1.00537e-12 -3.21022e-12 -4.87844e-12 0.5 -1.27187e-11 5.27983e-13 -2.43154e-11 -1.42049e-11 -2.40718e-11 -1.13693e-11 
527 2 4.03024 4.31517 3.61908 0 0 0 7.59583e-12 -1.32668e-11 4.07304e-11 -9.10944e-12 1.24076e-11 -3.23286e-11 -5.92884e-12 -2.25042e-13 1.72901e-12 0.5 1.26887e-11 6.41316e-12 1.95782e-11 -3.34963e-12 -1.28259e-11 2.04529e-11 
383 1 4.36293 4.34454 2.28892 0 0 1 4.43787e-12 -7.16994e-12 2.82883e-11 2.05411e-12 8.97358e-12 -2.19487e-11 1.60741e-12 -4.50962e-12 -1.0519e-12 0.5 -1.85957e-11 -3.4879e-12 1.03038e-11 1.8964e-11 -5.22587e-12 -8.53399e-12 
992 2 0.695682 0.439322 3.85269 1 1 0 -4.69852e-12 -6.87912e-11 -3.38443e-11 3.92515e-13 -1.38422e-11 3.42682e-11 3.17046e-12 1.07787e-11 5.62054e-12 0.5 -1.88526e-11 2.77407e-12 2.26847e-12 1.52804e-12 -2.67636e-12 6.89217e-12 
521 2 4.93615 4.52796 3.25037 0 0 0 3.31911e-12 -9.97478e-12 3.18624e-11 -3.89274e-12 2.62104e-12 -2.17497e-11 -4.09084e-12 1.45995e-12 9.9633e-13 0.5 1.1042e-11 -1.47754e-11 -1.80304e-11 1.23029e-12 -4.08464e-12 2.13181e-11 
136 1 1.88498 1.67143 2.62265 0 0 0 -1.64854e-11 -6.03645e-11 -2.97628e-11 1.26931e-11 5.08647e-11 2.44436e-11 7.26497e-12 9.92898e-12 7.37717e-12 0.5 -5.09999e-11 -5.43277e-11 -3.79889e-11 3.87434e-11 -9.06463e-12 1.78552e-11 
540 2 4.51129 0.178592 3.415 0 0 0 -8.13308e-12 -1.66519e-11 -1.99171e-11 5.00062e-12 1.60771e-11 1.64385e-11 -6.21637e-12 5.08158e-12 -6.06948e-12 0.5 2.12303e-11 1.21952e-11 4.39768e-12 -1.11911e-11 -7.76002e-12 1.13266e-11 
510 2 3.85504 2.56842 3.17077 0 0 0 -1.24011e-11 -2.36084e-11 1.48207e-11 4.48182e-12 1.16587e-11 -1.76617e-11 2.10385e-12 -1.98687e-12 1.43694e-13 0.5 1.64991e-11 2.79924e-11 -1.47706e-11 8.69231e-12 3.25579e-12 2.25557e-11 
19 1 4.3655 1.84749 2.40882 0 0 0 -1.37363e-11 -3.47266e-15 1.83606e-12 9.57372e-11 -1.05817e-12 -3.09456e-11 4.60032e-12 1.39635e-12 2.70448e-12 0.5 -8.67427e-11 -1.50154e-12 -3.04549e-11 -4.35241e-13 3.37987e-11 6.10876e-12 
543 2 1.07326 1.78713 3.19513 0 0 0 -5.94591e-12 -6.4978e-11 -1.41418e-11 9.65219e-12 5.29323e-11 1.01485e-11 1.2817e-11 1.2125e-11 4.278e-12 0.5 -9.15237e-13 -8.39947e-12 -2.04716e-12 -1.10498e-11 6.42261e-12 5.02737e-12 
773 2 4.78774 2.22773 3.30763 0 0 0 -9.34942e-12 -1.7408e-11 1.20991e-11 9.10387e-12 1.95432e-11 -1.60627e-11 5.50642e-12 4.74473e-12 -4.51109e-12 0.5 1.45196e-11 -2.47465e-11 -6.43391e-11 1.88471e-12 7.66138e-12 7.42362e-11 
555 2 2.23907 2.5056 3.89852 0 0 0 -8.23437e-13 -2.70564e-11 2.80206e-11 -2.93586e-12 2.99764e-11 -2.41471e-11 -4.37569e-12 -9.83247e-13 3.35728e-12 0.5 2.06052e-11 2.27263e-11 1.96421e-11 1.24856e-11 -3.04463e-12 1.47273e-11 
429 1 0.306925 2.40106 3.75655 1 0 0 -2.50191e-11 -7.20608e-11 -1.09292e-11 1.71793e-11 6.10041e-11 9.29232e-12 6.57194e-12 3.20677e-12 1.26547e-11 0.5 -1.29316e-11 -1.25266e-10 -6.74414e-11 2.7657e-11 -1.9279e-11 6.61532e-11 
316 1 0.889712 0.512877 2.86992 1 0 0 -2.09359e-11 -6.83562e-11 -3.75575e-11 1.79536e-11 5.93032e-11 3.62766e-11 7.76057e-12 1.82693e-12 1.10031e-11 0.5 4.27157e-12 -9.66796e-12 -1.3429e-12 4.50053e-12 -1.61802e-13 9.2664e-12 
503 2 3.61689 0.768796 2.88623 0 0 0 1.15165e-12 -2.89292e-11 -1.71773e-11 -6.91924e-12 2.67583e-11 1.1827e-11 -1.15525e-12 -3.94576e-12 6.83027e-12 0.5 -1.26811e-11 6.21981e-13 -6.79625e-11 3.73824e-12 -6.88587e-12 1.93519e-11 
896 2 0.702247 3.66501 2.63024 1 0 0 2.81495e-12 -6.99281e-11 2.99574e-11 -1.17628e-11 5.35956e-11 -2.68285e-11 7.54186e-12 4.41833e-12 -3.27646e-12 0.5 -4.408e-11 -5.71041e-11 -7.82166e-11 3.50098e-12 -2.05115e-11 1.16452e-11 
690 2 1.93672 4.67095 2.92999 0 0 0 2.17049e-13 -4.06186e-11 4.48267e-11 -1.26729e-11 5.89925e-11 -3.09967e-11 -1.58715e-13 3.69874e-12 1.2586e-11 0.5 -7.63279e-11 -3.36737e-11 -1.55417e-11 4.50092e-11 -7.77012e-13 -8.28722e-12 
641 2 3.45948 3.5005 3.22725 0 0 0 4.17987e-12 -1.42674e-11 3.08635e-11 -4.70317e-13 9.43389e-12 -1.86078e-11 -3.36158e-12 -1.17606e-12 4.53428e-12 0.5 -7.17234e-12 7.36917e-12 -8.5759e-12 1.13355e-11 -1.70952e-11 3.21848e-11 
528 2 3.34275 4.80215 2.44243 0 0 0 8.74636e-12 -2.94519e-11 2.78044e-11 -2.41515e-11 5.38396e-12 -1.66013e-11 -1.1033e-12 1.04771e-12 2.14833e-12 0.5 2.34187e-12 2.53742e-12 -1.33894e-11 8.48795e-13 -7.52987e-12 -1.02755e-11 
225 1 2.66658 2.37982 2.99794 0 0 1 -1.74258e-11 -3.57644e-11 1.9941e-11 -8.75965e-12 3.83867e-11 -1.40904e-11 -3.41723e-12 7.36206e-12 2.24697e-12 0.5 -2.66209e-11 -5.15963e-11 -8.62523e-12 3.26861e-11 -9.80789e-12 -4.2828e-12 
119 1 0.614476 2.84343 2.06694 0 0 0 -3.18909e-11 -5.57394e-11 1.55425e-11 2.39753e-11 3.52512e-11 -2.18455e-12 1.77194e-11 2.5068e-12 1.15664e-13 0.5 2.76409e-12 -4.63212e-11 -7.16272e-11 9.91255e-12 1.8471e-11 -1.2226e-11 
94 1 2.46189 3.50067 2.00487 0 0 1 -2.98679e-12 -3.96474e-11 4.12022e-11 4.17961e-12 3.46925e-11 -3.09072e-11 6.48673e-12 -1.08699e-12 2.6212e-12 0.5 8.58248e-12 1.62108e-11 5.71781e-12 1.33449e-11 9.68538e-12 1.55419e-11 
522 2 2.58373 2.50801 2.00903 0 0 0 -7.81355e-12 -4.04544e-11 1.86019e-11 8.5681e-13 3.3789e-11 -1.58672e-11 1.32485e-11 -3.86799e-12 6.07661e-12 0.5 1.65985e-11 7.28918e-12 -1.95531e-11 1.11673e-11 9.94133e-12 4.97843e-12 
200 1 2.46549 0.208501 4.19599 0 1 0 6.66062e-12 -2.29898e-11 -2.44612e-11 2.72613e-12 -1.76048e-12 4.29115e-11 -1.28363e-11 -9.15422e-12 2.38639e-11 0.5 -2.34878e-11 -6.78097e-12 -2.59368e-11 9.13349e-12 2.18564e-11 2.51696e-12 
114 1 4.70709 1.00384 4.17137 0 0 0 -4.5661e-12 -1.87536e-12 -8.9672e-12 1.95956e-11 2.33436e-12 4.98479e-12 -4.73422e-12 -3.99693e-12 -4.72135e-12 0.5 -4.20661e-11 -6.5935e-12 -8.29081e-12 -1.1484e-11 -2.06166e-11 -3.66924e-12 
820 2 1.30996 2.29325 4.21136 1 0 0 -2.74829e-12 -5.05605e-11 9.40912e-12 -8.76028e-14 3.70565e-11 -3.24158e-12 -9.0005e-12 -4.6466e-12 1.46804e-11 0.5 1.78177e-11 2.07765e-11 -1.15892e-11 5.30025e-11 5.64134e-12 2.14222e-11 
47 1 4.65574 1.582 5.43553 0 0 0 5.97694e-12 8.50508e-12 1.30006e-12 -7.68728e-12 -5.44443e-12 -2.54536e-12 1.26445e-12 7.63066e-12 3.51177e-12 0.5 -1.8782e-11 -3.25099e-11 -1.36783e-11 -8.20096e-12 -1.68759e-11 2.90811e-11 
824 2 1.64908 3.83184 5.79238 1 0 0 3.79741e-12 1.46561e-11 4.54947e-11 -6.93441e-12 -8.02442e-12 -3.16741e-11 -8.95632e-12 2.18932e-12 -2.76376e-12 0.5 -2.54006e-12 -4.14221e-12 -1.51773e-11 -7.31327e-14 -5.04828e-12 6.78802e-12 
172 1 3.44268 0.338821 4.72114 0 1 0 -1.00033e-11 1.80641e-11 -9.93455e-12 1.03304e-11 -1.56091e-11 1.54853e-11 -1.62791e-11 -4.0847e-12 9.37918e-12 0.5 -2.69814e-11 -2.78933e-11 -9.25313e-11 -2.34696e-11 2.3649e-11 3.91287e-11 
718 2 0.202285 2.03673 5.5128 0 1 0 -1.00147e-11 -2.30528e-11 1.56903e-11 1.57026e-11 1.38399e-11 -1.09017e-11 -1.16689e-11 -4.22357e-12 -2.99917e-12 0.5 -5.49875e-11 -1.47189e-11 -3.55311e-11 2.78228e-11 -2.96975e-11 7.0438e-11 
505 2 0.484433 3.5018 5.83385 0 0 -1 -4.24528e-12 1.17707e-11 3.98684e-11 4.76292e-11 -2.12688e-11 8.56958e-12 2.40229e-12 -5.58632e-12 1.5008e-11 0.5 -2.05639e-11 -1.13254e-10 -6.73646e-11 7.08467e-12 -1.72284e-11 9.00434e-11 
524 2 3.99535 2.7352 5.70679 0 0 0 2.74419e-11 5.11801e-11 4.43929e-11 -2.42964e-11 -4.27227e-11 -4.036e-11 -1.08972e-11 3.11538e-11 1.37873e-11 0.5 1.37614e-12 7.66931e-12 9.68078e-12 -6.96576e-12 -7.88518e-12 8.70942e-12 
839 2 0.579387 1.61472 4.31101 1 0 0 7.10198e-12 -6.65714e-11 -1.39064e-11 -9.94377e-12 5.90408e-11 1.47929e-11 -4.45462e-12 1.18841e-12 1.25826e-11 0.5 -8.87403e-12 -7.42961e-11 -4.29386e-11 6.20097e-11 -8.84756e-12 7.77854e-11 
937 2 2.44361 3.38654 4.3372 1 0 0 6.48224e-12 -2.23508e-11 2.12735e-11 -6.39813e-12 2.07338e-11 -1.80797e-11 -8.86559e-12 -4.39391e-12 1.21295e-11 0.5 2.94514e-11 2.61095e-11 -4.6777e-11 3.73215e-11 -2.38965e-12 1.98617e-11 
811 2 2.60623 3.94632 5.52498 1 0 0 -1.39026e-12 1.59415e-11 2.75254e-11 -3.0113e-12 -1.30718e-11 -2.35662e-11 -1.0417e-11 -4.18044e-12 -5.31161e-14 0.5 -2.15581e-12 -1.66131e-11 -5.5095e-12 -6.03214e-12 -1.0022e-11 1.86947e-11 
827 2 1.52088 3.18133 4.66349 1 0 0 1.04318e-11 -5.04918e-11 1.54724e-11 -1.0368e-11 4.04774e-11 -1.3681e-11 -1.55738e-11 -7.03317e-12 2.54171e-12 0.5 1.98475e-11 -1.10131e-12 -3.7466e-11 7.07315e-12 7.16189e-13 3.11758e-11 
149 1 4.05563 3.93275 4.61881 0 0 0 -1.92539e-12 1.13818e-11 3.42037e-11 1.46044e-12 -1.08233e-11 -3.34711e-11 -6.8585e-12 2.50424e-12 9.43132e-12 0.5 -2.1042e-11 -1.6953e-11 1.22301e-11 6.07656e-11 -3.79478e-11 1.69735e-11 
925 2 0.623246 3.59905 4.52293 1 0 0 1.47735e-11 -4.30946e-11 8.13838e-12 -1.40681e-11 3.65057e-11 -7.93831e-12 -1.45371e-11 6.85488e-12 -1.8817e-12 0.5 2.0214e-11 -2.34692e-11 -5.69005e-12 -6.86505e-12 -3.47457e-12 1.15862e-11 
168 1 3.33522 4.60361 5.33159 0 0 0 1.46367e-12 1.44876e-11 3.43856e-11 -3.5693e-12 -1.31321e-11 -2.98004e-11 -9.90423e-12 -4.8279e-12 8.78192e-12 0.5 -2.8701e-11 -2.19251e-11 -2.32704e-11 1.21617e-11 -1.86623e-11 1.88122e-11 
928 2 1.57471 4.4088 4.9787 1 0 0 7.70416e-12 1.15133e-11 4.32338e-11 7.28476e-13 -1.40115e-11 -3.66383e-11 -5.79811e-12 3.46761e-12 -5.37366e-12 0.5 -6.42594e-12 -1.24578e-11 -9.76013e-12 -6.15621e-12 -3.4354e-12 1.13192e-11 
148 1 3.93983 3.74234 5.7457 0 0 0 -7.67954e-12 4.98232e-11 4.88881e-11 1.21693e-11 -3.73618e-11 -2.74391e-11 -1.33672e-11 -4.12132e-12 2.20358e-11 0.5 1.56284e-11 2.7102e-11 4.14419e-11 2.17101e-11 2.72775e-11 2.25802e-11 
914 2 4.69244 4.38506 5.24423 0 0 0 -1.69866e-11 3.26595e-11 3.45193e-11 1.25692e-11 -2.77266e-11 -3.14891e-11 -2.02633e-11 -2.55815e-12 6.14778e-13 0.5 -6.82844e-13 7.16491e-12 1.16436e-11 2.99179e-12 3.82132e-12 7.34287e-12 
23 1 2.87773 1.11847 4.05716 0 0 0 -1.00119e-11 -1.51446e-11 -2.00339e-11 3.10969e-13 1.47885e-11 1.78591e-11 6.60187e-12 1.27481e-12 6.09962e-12 0.5 -2.67632e-11 -1.97591e-11 -2.02664e-11 -3.57288e-12 1.29597e-11 1.87392e-11 
594 2 2.05586 1.97089 4.80241 0 0 0 6.08992e-12 4.55656e-12 2.53835e-11 -9.2658e-12 -4.67663e-12 -2.41991e-11 5.79275e-12 -6.07068e-12 1.85019e-11 0.5 2.00517e-12 -2.98822e-11 -6.34451e-12 2.59724e-11 -1.27781e-11 1.89364e-11 
539 2 3.78455 1.04074 5.46912 0 0 0 -2.10746e-12 3.76876e-11 7.48298e-12 -1.95344e-12 -3.57733e-11 -9.49347e-12 -6.00464e-12 1.09821e-11 -2.19248e-12 0.5 -8.12923e-12 -9.18915e-11 -4.1488e-11 -2.99571e-11 -2.8746e-11 8.5096e-11 
730 2 0.461765 1.11568 5.16957 0 1 0 -6.71336e-12 -2.54531e-11 7.16183e-12 6.42766e-12 1.50993e-11 -4.71045e-12 -5.2192e-12 -2.74171e-12 1.76464e-11 0.5 2.97612e-11 8.14556e-13 -2.46736e-11 5.62813e-12 -7.7234e-12 4.99103e-11 
689 2 3.51933 0.103669 5.69619 0 1 0 -8.84022e-12 3.56722e-11 -1.01572e-11 1.29303e-11 -3.10111e-11 5.4338e-12 -3.71513e-12 -2.37471e-12 6.44298e-13 0.5 -4.09421e-11 -1.11775e-10 -9.34868e-11 -1.48233e-11 5.73533e-12 8.39884e-11 
450 1 0.619288 4.79871 4.46892 1 0 0 3.92687e-11 -3.02991e-11 3.18033e-11 -3.12998e-11 2.97982e-11 -3.38776e-11 -2.76504e-11 -6.62863e-12 5.27524e-12 0.5 -1.37789e-11 -3.86802e-11 -8.81453e-11 4.49229e-12 -1.6018e-11 4.78134e-11 
549 2 4.49944 0.500888 5.01435 0 0 0 -2.18987e-11 1.43103e-11 -3.05367e-12 1.84928e-11 -8.19913e-12 5.10853e-13 -4.04208e-12 3.09513e-12 -1.08232e-11 0.5 3.50901e-11 4.09082e-11 1.64078e-11 -2.12545e-11 -9.647e-12 2.17396e-11 
591 2 1.44655 1.12499 4.40334 0 0 0 1.67564e-11 -5.07825e-11 -2.84221e-11 -6.59687e-12 6.35708e-11 2.58232e-11 -7.04676e-12 9.76149e-12 4.67214e-13 0.5 -3.77539e-11 -6.46851e-11 -3.74888e-11 1.67063e-11 3.59922e-12 3.9284e-11 
243 1 1.20287 1.83742 5.34381 0 1 0 -1.25492e-11 -4.20754e-12 9.43292e-13 5.1884e-12 -4.24236e-13 7.29814e-12 -5.077e-12 -2.75771e-12 9.3485e-12 0.5 -1.21027e-11 -1.54802e-11 -1.52052e-12 2.41035e-11 -1.14776e-11 2.06979e-11 