ITEM: TIMESTEP
199000
ITEM: NUMBER OF ATOMS
1000
ITEM: BOX BOUNDS xy xz yz pp pp pp
0.0000000000000000e+00 1.0000000000000000e+01 0.0000000000000000e+00
0.0000000000000000e+00 1.0000000000000000e+01 0.0000000000000000e+00
0.0000000000000000e+00 1.0000000000000000e+01 0.0000000000000000e+00
ITEM: ATOMS id type x y z ix iy iz vx vy vz fx fy fz omegax omegay omegaz radius c_2[1] c_2[2] c_2[3] c_2[4] c_2[5] c_2[6] 
120 1 3.15852 1.54146 0.0722925 0 1 0 -1.42411e-09 4.29564e-09 2.74114e-09 1.28957e-09 -3.63669e-09 -2.40003e-09 2.55636e-09 4.58361e-10 -1.50593e-09 0.5 -2.13294e-09 -1.13084e-08 -1.05566e-09 -1.23502e-09 -5.81692e-10 -2.72907e-09 
525 2 2.11627 1.23431 1.69988 0 0 0 -3.88416e-09 -1.00095e-08 -6.72914e-09 3.23155e-09 8.53907e-09 5.91703e-09 -9.79872e-10 7.26887e-10 3.14972e-09 0.5 1.85852e-10 -6.84518e-10 4.03194e-10 8.62786e-10 3.85963e-10 -2.3365e-10 
371 1 4.95931 3.68326 1.58374 0 0 1 2.21629e-09 -3.82838e-09 5.99447e-09 -1.89549e-09 3.40359e-09 -5.26052e-09 4.79751e-10 -3.49944e-10 2.8791e-10 0.5 -1.38801e-09 -5.7899e-09 3.73122e-09 -6.88279e-10 -7.23183e-10 7.55928e-10 
18 1 1.98117 2.69195 0.532518 0 0 0 -1.95472e-09 -1.60918e-10 6.74511e-09 1.61851e-09 1.32658e-10 -5.80057e-09 4.24399e-09 -1.41823e-09 1.35871e-09 0.5 -3.60552e-09 -8.32085e-09 -4.95133e-09 6.73006e-09 2.91067e-09 -3.73552e-09 
868 2 2.87004 3.00634 0.0289121 0 0 1 1.26536e-09 -8.50916e-10 5.78284e-09 -1.00556e-09 7.40054e-10 -5.03796e-09 3.60275e-09 -6.62339e-10 1.51788e-09 0.5 -5.61772e-09 -8.74923e-09 -2.08554e-09 6.50981e-09 -2.71493e-10 4.54705e-10 
25 1 1.41548 0.708705 1.0832 0 0 0 -1.53446e-09 -3.51946e-09 -6.82846e-09 1.30271e-09 2.91965e-09 6.03842e-09 2.974e-09 -7.7746e-10 1.86828e-09 0.5 -2.47651e-09 -1.77803e-08 -9.8635e-09 6.42157e-09 4.87874e-09 -7.91715e-09 
378 1 4.61919 2.40719 0.0725816 0 0 1 4.24402e-10 2.85758e-09 4.45948e-09 -3.29178e-10 -2.36539e-09 -3.93015e-09 4.01064e-09 1.00625e-09 -8.02754e-10 0.5 -2.33782e-09 -6.15355e-09 -3.49373e-09 -4.95248e-10 -7.0876e-10 -4.66794e-09 
8 1 3.44143 2.06796 1.74253 0 0 0 -2.23989e-10 -4.53224e-09 1.79501e-09 1.54429e-10 3.94116e-09 -1.612e-09 3.42714e-09 -8.72965e-10 7.23985e-10 0.5 1.57325e-09 6.66889e-10 1.64297e-09 1.32466e-09 -3.18689e-10 1.19912e-09 
629 2 4.07713 2.6156 1.19812 0 0 1 1.12352e-09 -2.18886e-09 5.68179e-09 -1.02316e-09 1.96768e-09 -4.91704e-09 3.87602e-09 -1.04877e-09 1.11788e-10 0.5 -6.25897e-09 -1.50244e-09 -5.49999e-09 9.55272e-10 -4.21356e-09 -2.32081e-09 
5 1 2.34651 3.9005 1.05345 0 0 0 -6.71585e-10 -7.64469e-09 7.74366e-09 6.2442e-10 6.61215e-09 -6.67656e-09 2.79563e-10 5.2977e-10 1.58718e-09 0.5 -5.0536e-10 -8.61589e-10 -1.23244e-09 1.06802e-09 2.80838e-10 -2.64535e-10 
650 2 0.459129 3.43666 1.12967 0 0 0 -4.6242e-09 -8.01846e-09 1.44406e-09 3.95682e-09 6.78558e-09 -1.1005e-09 4.58501e-09 4.26462e-10 5.51641e-11 0.5 -6.2628e-09 -7.08991e-09 -7.62568e-09 5.12917e-09 5.26163e-09 -3.39921e-09 
14 1 3.29515 3.13364 1.54473 0 0 0 3.20274e-10 -3.82036e-09 6.31109e-09 -2.57755e-10 3.37672e-09 -5.4918e-09 1.08855e-09 8.03913e-10 5.27031e-10 0.5 -5.35517e-10 -1.6953e-09 -3.27548e-09 2.56472e-09 -4.28857e-10 -1.52066e-09 
264 1 3.99643 3.86789 1.37953 0 0 0 2.11869e-09 -4.39885e-09 6.07167e-09 -1.81447e-09 3.89896e-09 -5.31202e-09 1.72635e-09 3.83567e-10 2.94732e-10 0.5 -1.62078e-09 3.13358e-11 -3.12287e-09 2.20183e-09 4.97295e-11 -6.30494e-10 
223 1 0.747634 2.47805 1.14565 0 0 1 -4.76338e-09 -7.94522e-09 1.37105e-09 4.03583e-09 6.70461e-09 -1.07967e-09 4.54652e-09 -1.79299e-09 6.71011e-10 0.5 -2.99805e-09 -7.72222e-09 -1.75994e-08 2.65302e-09 7.06223e-09 -4.46744e-09 
364 1 4.4227 4.23693 0.53984 0 0 1 8.88184e-10 2.01399e-09 8.20076e-09 -6.25809e-10 -1.68745e-09 -7.12781e-09 2.313e-09 -2.96754e-10 1.04262e-09 0.5 1.40552e-10 8.03192e-10 2.28135e-10 3.44593e-10 1.19656e-09 -1.17107e-09 
107 1 1.66076 1.61825 0.747451 0 0 1 -3.61363e-09 -1.6077e-09 -3.06103e-09 3.01406e-09 1.31072e-09 2.7913e-09 4.6131e-09 -3.48406e-10 5.74643e-10 0.5 3.14637e-09 -4.12467e-09 -4.11356e-09 -1.28838e-10 1.70407e-11 -2.68558e-09 
529 2 2.67265 2.1996 1.06195 0 0 0 -1.16804e-10 -2.71536e-09 1.90916e-09 1.2946e-11 2.30966e-09 -1.62836e-09 4.19606e-09 1.43188e-10 1.1524e-09 0.5 -1.34337e-09 -3.13031e-09 -3.65791e-09 2.3129e-09 -1.44368e-09 8.00139e-10 
515 2 4.38643 0.435908 1.64385 0 0 0 5.59736e-10 -4.75438e-09 -3.19937e-09 -4.63645e-10 4.14305e-09 2.65519e-09 2.55877e-09 -2.49063e-10 6.54499e-10 0.5 -1.72967e-10 -2.45554e-09 -5.38416e-09 -4.76654e-09 1.00105e-10 9.93557e-10 
244 1 4.11373 0.570462 0.682724 0 1 1 6.61786e-10 1.4013e-09 -2.18718e-09 -5.89003e-10 -1.13875e-09 1.80543e-09 3.69839e-09 1.15602e-09 1.38706e-10 0.5 -1.77972e-09 -1.60036e-09 -5.20421e-09 -3.32719e-10 1.08281e-09 7.10529e-10 
20 1 2.90179 0.570818 1.78382 0 0 0 2.55468e-10 -4.41026e-09 -3.88972e-09 -2.34085e-10 3.80281e-09 3.30546e-09 1.69275e-09 -1.05361e-09 9.67054e-10 0.5 -2.79486e-09 -6.61785e-09 -1.00451e-08 2.69751e-09 4.39699e-09 -6.14889e-09 
280 1 4.09077 1.582 1.14626 0 0 0 4.96785e-10 -1.34124e-09 4.78459e-11 -4.53121e-10 1.22293e-09 -1.48814e-10 3.93811e-09 -3.79121e-10 1.33849e-10 0.5 -1.28259e-09 -2.25767e-09 -6.62421e-09 6.98417e-10 3.81793e-09 1.46952e-09 
620 2 1.3946 4.37082 0.857654 0 0 1 2.9261e-10 -5.11388e-09 6.10381e-09 -9.79184e-11 4.40543e-09 -5.16223e-09 3.14938e-09 2.04007e-09 -1.63787e-09 0.5 -1.62543e-09 -7.7119e-09 -1.12336e-08 2.00801e-10 -1.02118e-09 1.14188e-09 
1000 2 3.60332 2.39824 0.339819 0 1 1 3.40602e-09 1.1655e-09 4.06553e-09 -2.82042e-09 -9.73e-10 -3.59309e-09 2.84503e-09 -2.18206e-10 -6.71652e-11 0.5 -4.88909e-09 -8.54492e-09 -5.24615e-09 -4.23041e-10 -4.20227e-09 -1.31851e-09 
103 1 3.28431 3.68319 0.698947 0 0 1 2.05307e-10 -2.22948e-09 7.54056e-09 -1.438e-10 1.94862e-09 -6.57548e-09 2.25623e-09 1.35949e-10 1.19422e-09 0.5 -1.85158e-09 -1.74835e-09 -2.55219e-09 1.78723e-09 1.88883e-10 -3.05391e-10 
622 2 0.930663 4.80385 0.0848388 0 0 1 1.70383e-10 -3.12512e-10 8.8659e-09 1.14046e-11 2.35933e-10 -7.5247e-09 4.17046e-09 -3.33716e-10 -5.48431e-10 0.5 -9.19149e-11 8.2921e-10 -5.28555e-09 -4.70313e-10 -2.28756e-09 1.19078e-09 
506 2 0.74356 1.4513 1.18235 0 0 0 -5.14023e-09 -8.07802e-09 -5.86826e-09 4.37811e-09 6.83013e-09 5.22033e-09 3.56514e-09 -6.46651e-10 2.39591e-09 0.5 1.39639e-09 -1.05616e-08 -1.72082e-09 1.21719e-08 2.5414e-09 -6.47484e-09 
626 2 1.28815 3.41645 0.566227 0 0 1 -4.56277e-09 -2.96617e-09 1.7001e-09 3.89155e-09 2.56608e-09 -1.34537e-09 2.32194e-09 -1.34393e-09 5.20748e-10 0.5 -6.04884e-09 -8.78072e-09 -1.64724e-09 4.86372e-09 3.97162e-09 -2.572e-09 
553 2 0.744043 0.0774004 1.56305 0 0 0 -9.77251e-10 -6.04597e-09 -8.82988e-09 7.98188e-10 5.13268e-09 7.83522e-09 3.49926e-10 -1.85649e-09 2.91754e-09 0.5 1.10812e-09 5.08731e-10 8.86465e-10 1.6818e-10 4.078e-10 -1.39914e-09 
135 1 1.54769 3.20472 1.67709 0 0 0 1.6572e-09 -7.66213e-09 8.4342e-10 -1.4808e-09 6.55129e-09 -6.2306e-10 2.51301e-09 -3.48592e-09 -8.73213e-10 0.5 3.95198e-10 -1.58042e-08 -3.16353e-09 3.95915e-09 1.61363e-09 -9.61317e-11 
624 2 4.32461 4.92098 1.47156 0 0 1 3.36882e-09 -1.16123e-09 6.20796e-09 -2.75312e-09 1.16461e-09 -5.45713e-09 1.62692e-09 -4.55849e-11 1.01316e-09 0.5 1.53162e-09 1.20568e-09 -3.95926e-09 1.54506e-09 -2.83957e-09 -3.29603e-09 
256 1 4.58719 1.36786 0.305 0 0 0 8.02118e-10 2.04512e-09 -6.35706e-10 -7.16756e-10 -1.66731e-09 4.44627e-10 3.89113e-09 7.48996e-10 -1.14167e-09 0.5 -9.33118e-10 -3.5473e-09 -4.5731e-09 -2.22982e-09 3.63582e-10 -5.13269e-09 
260 1 3.31854 0.0700552 1.02517 0 0 0 1.56714e-09 -1.86403e-09 -4.85374e-09 -1.26529e-09 1.64867e-09 4.12435e-09 1.64117e-09 1.91834e-09 1.07563e-10 0.5 -2.06182e-09 -6.46435e-09 -7.31047e-09 -1.04585e-10 1.11449e-09 -4.43401e-09 
616 2 3.19106 4.4806 1.50664 0 0 1 1.60098e-09 -6.22947e-09 5.91157e-09 -1.42006e-09 5.41907e-09 -5.19453e-09 -3.49907e-10 6.86402e-10 1.09229e-09 0.5 -2.91573e-09 -1.17235e-09 -1.30932e-09 1.76885e-09 2.93169e-10 -7.59879e-10 
106 1 1.74522 2.23558 1.52961 0 0 1 -6.62217e-11 -8.14918e-09 1.72065e-09 -3.17786e-11 6.95608e-09 -1.33937e-09 3.27196e-09 -1.19862e-09 -7.52521e-10 0.5 2.1656e-09 -8.36695e-09 -2.63359e-09 2.55156e-09 2.41516e-09 -3.23974e-09 
157 1 1.3897 4.17879 1.83903 0 0 0 2.29515e-09 -8.3275e-09 5.48715e-09 -1.95495e-09 7.14812e-09 -4.63763e-09 3.16062e-09 5.14439e-10 4.12064e-10 0.5 -3.45116e-09 -1.18951e-08 -1.25237e-08 2.75695e-09 4.07158e-09 -2.37607e-09 
516 2 2.34691 0.89043 0.68796 0 0 0 -8.51754e-10 9.25921e-10 -1.98891e-09 6.85163e-10 -7.81345e-10 1.78871e-09 3.97478e-10 -1.0985e-09 1.59651e-10 0.5 6.87299e-10 -3.57914e-09 -9.98373e-10 8.40317e-10 2.1298e-09 -3.16757e-09 
183 1 0.415258 4.58221 1.00381 0 0 0 8.14131e-10 -7.24972e-09 1.28408e-08 -5.2306e-10 6.22927e-09 -1.08687e-08 6.19574e-09 3.23339e-09 3.58199e-10 0.5 1.00653e-10 -3.9667e-10 7.13204e-10 5.62239e-10 -9.15076e-10 6.85265e-10 
625 2 0.399951 3.91216 0.210014 0 0 1 -1.53516e-09 2.73484e-10 6.32223e-09 1.4507e-09 -2.57988e-10 -5.26249e-09 5.93926e-09 -5.32227e-10 -2.58961e-09 0.5 -2.42967e-10 8.47394e-11 -1.1157e-09 -2.56579e-10 -4.65848e-10 1.07936e-09 
91 1 2.22066 4.71676 1.69645 0 0 1 1.97915e-09 -7.47627e-09 7.12957e-09 -1.73017e-09 6.46337e-09 -6.13205e-09 1.51597e-10 2.35374e-10 2.82738e-10 0.5 -3.23082e-09 -2.00245e-09 -8.93002e-10 -6.76764e-10 5.79318e-10 -7.47312e-10 
257 1 4.94043 2.69123 1.70827 0 0 0 1.24802e-09 -3.96777e-09 4.74519e-09 -1.09349e-09 3.53858e-09 -4.17271e-09 1.59243e-09 2.11083e-11 -5.92714e-10 0.5 -7.14294e-09 -4.95521e-09 -1.23565e-08 5.41197e-10 -4.14489e-09 -2.39889e-09 
4 1 3.72174 1.12777 1.95711 0 0 0 4.07175e-10 -5.23239e-09 -2.17062e-09 -3.56008e-10 4.53877e-09 1.77121e-09 2.56187e-09 -2.03024e-10 2.47491e-10 0.5 -9.36195e-10 -1.6231e-09 -8.94935e-09 -1.59555e-09 1.40515e-09 4.37315e-09 
609 2 1.99624 4.76004 0.136921 0 0 1 5.18977e-10 -2.80193e-09 8.60946e-09 -3.5861e-10 2.44024e-09 -7.40962e-09 1.28843e-09 -8.47827e-10 1.39161e-09 0.5 -1.41356e-08 -4.34908e-08 -5.98149e-09 1.23134e-08 2.86594e-09 -9.31104e-09 
117 1 3.12746 1.31374 1.15363 0 1 0 8.23482e-10 -2.59186e-09 -1.54309e-09 -7.15412e-10 2.25219e-09 1.29222e-09 3.32561e-09 -8.30555e-11 2.54231e-10 0.5 5.50989e-10 -2.34456e-09 -4.86817e-10 1.43811e-09 2.30294e-12 1.78003e-09 
511 2 1.08079 2.25054 0.230642 0 0 0 -1.78055e-09 2.53021e-09 -1.52422e-10 1.49737e-09 -2.26992e-09 2.33613e-10 5.76647e-09 -1.2908e-09 -1.13352e-09 0.5 -2.29932e-09 -6.95008e-09 -1.5767e-08 1.47592e-09 6.6582e-09 -4.67893e-09 
911 2 0.492018 0.563612 0.697612 1 0 0 -1.21704e-09 -4.55417e-09 -8.36418e-09 1.02896e-09 3.78291e-09 7.39861e-09 6.49438e-10 -1.17701e-09 3.52093e-10 0.5 1.8302e-09 -7.93308e-09 -3.81053e-11 -7.88449e-10 6.31857e-10 -3.14381e-09 
668 2 0.00216515 3.81975 1.93315 0 0 0 -1.10193e-09 -1.42892e-08 6.23726e-09 8.62886e-10 1.21533e-08 -5.24854e-09 1.47959e-09 1.13644e-09 -1.27854e-09 0.5 -1.12989e-08 -2.73065e-08 -1.15067e-08 8.27503e-09 -3.23107e-09 -2.49863e-10 
90 1 2.93989 4.58015 0.420403 0 0 1 4.57419e-10 -1.65132e-09 9.12784e-09 -2.49517e-10 1.4781e-09 -7.98476e-09 1.3379e-09 -3.39482e-10 1.59217e-09 0.5 -3.32106e-09 2.82622e-09 -8.64735e-10 6.09351e-09 3.17454e-09 1.06186e-09 
734 2 4.13742 3.24508 0.37494 0 1 1 1.97715e-09 1.87364e-09 7.98799e-09 -1.66439e-09 -1.54107e-09 -6.96825e-09 3.66547e-09 4.55444e-10 5.40481e-10 0.5 -3.04658e-09 -2.04424e-09 -1.02241e-10 2.04936e-09 1.07719e-09 -1.67437e-09 
672 2 0.0675425 1.98557 1.68985 0 0 0 -6.0756e-09 -1.14558e-08 -3.55026e-09 5.18911e-09 9.75638e-09 3.22588e-09 3.77448e-09 -7.14418e-10 1.35398e-09 0.5 -1.28544e-08 -2.67277e-08 -9.92393e-09 1.04814e-08 7.03219e-09 -7.3604e-11 
759 2 4.95866 2.03867 0.950748 0 0 0 1.06406e-09 -1.36936e-09 2.50104e-09 -9.64179e-10 1.28009e-09 -2.22597e-09 3.37346e-09 -5.73216e-10 -9.28312e-10 0.5 -6.60529e-10 -8.98782e-09 -4.32335e-09 -1.35737e-09 -7.8089e-10 -1.04933e-09 
21 1 1.84566 0.35675 2.43115 0 0 0 -1.71597e-09 -8.08926e-09 -6.54602e-09 1.49659e-09 6.95557e-09 5.70713e-09 1.59355e-09 -1.43733e-09 2.46457e-09 0.5 1.58421e-11 -3.98235e-10 -1.15439e-10 4.89322e-10 2.05732e-10 -6.97114e-10 
682 2 2.73058 4.0836 2.7725 0 0 0 1.47745e-09 -5.18038e-09 5.49739e-09 -1.30573e-09 4.49657e-09 -4.76676e-09 -9.97725e-11 2.93824e-10 7.54888e-10 0.5 -7.89439e-09 -4.75299e-09 -8.65168e-10 5.25025e-09 3.24163e-09 5.91452e-09 
907 2 0.982097 4.62503 2.63573 1 0 0 9.39763e-10 -1.18227e-08 6.75588e-09 -8.5032e-10 1.00499e-08 -5.71396e-09 5.3955e-10 -1.14116e-09 6.70527e-10 0.5 -8.62257e-09 -1.01896e-08 -1.17846e-08 4.18985e-09 4.94377e-09 -3.61464e-09 
144 1 1.68507 3.60062 2.81087 0 0 0 1.73798e-09 -1.01249e-08 1.23034e-09 -1.56589e-09 8.65254e-09 -1.03319e-09 -2.87711e-10 7.9892e-10 2.45555e-10 0.5 -5.84448e-09 -1.4713e-09 -2.30905e-09 3.41979e-09 -1.44234e-09 7.15785e-11 
675 2 2.83107 4.7385 3.54541 0 0 0 -1.96163e-10 -3.34678e-09 5.52645e-09 -4.37956e-12 2.98394e-09 -4.81682e-09 -1.30487e-09 9.7768e-10 -1.30078e-10 0.5 4.14994e-10 1.83631e-09 3.69778e-09 1.78748e-09 -7.92146e-10 3.20551e-09 
502 2 4.38953 1.31124 3.26921 0 0 0 -7.96321e-10 -3.56554e-09 -1.76111e-09 5.49727e-10 3.18142e-09 1.42603e-09 5.95226e-10 6.04421e-11 -3.11324e-10 0.5 -6.04811e-09 -2.97786e-09 -3.91428e-09 -3.05755e-09 2.78001e-09 6.3331e-09 
27 1 2.60908 0.300739 3.21066 0 0 0 -4.59409e-10 -6.49767e-09 -4.59205e-09 2.847e-10 5.57606e-09 3.92706e-09 3.1907e-11 -9.53673e-10 1.24201e-09 0.5 -5.49593e-09 -7.02085e-09 -1.30656e-08 2.83287e-09 4.29469e-09 1.15111e-09 
965 2 1.35576 3.65812 3.79896 1 0 0 2.57654e-09 -1.22176e-08 3.74428e-10 -2.26475e-09 1.0372e-08 -2.58386e-10 -7.12629e-10 2.03393e-09 -1.60859e-09 0.5 -2.29697e-09 -7.03379e-09 -7.63134e-09 4.09448e-09 -2.66972e-09 4.7756e-09 
61 1 1.66165 0.448609 3.51352 0 0 0 -2.11434e-09 -1.0472e-08 -8.56841e-09 1.73696e-09 8.873e-09 7.49519e-09 3.65484e-10 -3.13326e-10 1.97668e-09 0.5 -3.85169e-09 -1.7504e-10 -7.79599e-10 9.76257e-10 2.47004e-09 -2.79753e-10 
680 2 1.1901 2.78151 3.34693 0 0 0 -2.48721e-09 -1.10881e-08 7.32723e-11 2.0506e-09 9.40833e-09 1.01583e-11 4.44929e-10 1.07116e-09 -2.66176e-10 0.5 2.20393e-10 -2.35849e-09 -3.51302e-09 5.70357e-10 1.43201e-09 1.02467e-09 
251 1 4.71421 3.03382 3.89556 0 0 0 2.80325e-09 -4.63029e-09 4.65089e-09 -2.54376e-09 4.09536e-09 -4.09251e-09 2.03294e-09 1.48968e-09 -2.20604e-09 0.5 -7.02497e-09 -1.34724e-09 2.56672e-10 -4.79437e-09 2.19796e-09 4.11798e-09 
517 2 4.0089 2.89361 2.21821 0 0 0 1.74628e-09 -4.212e-09 4.4697e-09 -1.4962e-09 3.78179e-09 -3.90441e-09 8.52118e-10 7.64356e-11 -2.956e-10 0.5 -9.51998e-11 -5.49247e-11 -2.42633e-09 -4.77803e-11 -5.28437e-10 1.20237e-09 
6 1 3.42179 1.77987 2.73262 0 0 0 -1.04524e-09 -4.17575e-09 2.21414e-09 8.04233e-10 3.63359e-09 -1.98174e-09 2.40661e-09 -2.85275e-10 1.62236e-09 0.5 -7.21153e-09 1.76021e-09 1.1315e-09 3.1344e-09 3.35495e-09 2.2833e-09 
519 2 4.43345 3.61408 3.03093 0 0 0 1.00896e-09 -2.69847e-09 6.72852e-09 -9.2099e-10 2.47788e-09 -5.88747e-09 8.12963e-10 5.30144e-10 -2.71824e-10 0.5 4.49873e-10 3.85928e-09 2.70644e-09 -2.67313e-09 -1.11051e-09 2.04345e-09 
509 2 1.93621 1.51608 3.62332 0 0 0 1.95618e-09 -9.675e-09 -7.2014e-09 -1.79403e-09 8.17562e-09 6.32874e-09 -5.8191e-10 3.18526e-09 -4.23746e-11 0.5 9.16075e-10 -1.04986e-09 -8.2474e-09 -1.04476e-09 1.79108e-09 2.33894e-09 
142 1 1.03537 1.94217 2.17003 0 0 0 -3.69342e-09 -9.1937e-09 -2.77103e-09 3.08628e-09 7.81189e-09 2.50365e-09 3.2975e-09 5.22697e-11 6.48396e-10 0.5 -2.34478e-10 -1.77651e-09 -2.01527e-09 2.84473e-09 -1.21401e-09 2.45179e-09 
941 2 0.192203 2.2584 2.77344 1 0 0 -5.06629e-09 -1.32964e-08 -2.25357e-09 4.29231e-09 1.13511e-08 2.07198e-09 2.00465e-09 2.70389e-10 5.63656e-10 0.5 -1.63719e-09 -5.37858e-09 -7.43573e-09 2.79249e-10 9.45215e-10 5.4611e-10 
919 2 0.650389 4.31552 3.53385 1 0 0 -7.42935e-11 -1.30376e-08 5.38504e-09 9.98258e-12 1.10869e-08 -4.52858e-09 1.74005e-09 7.2475e-10 -2.07282e-09 0.5 -5.33672e-09 -9.37335e-09 -5.39115e-09 5.2587e-09 -1.10176e-10 3.3415e-09 
95 1 3.53903 3.77814 2.2694 0 0 1 2.15817e-09 -4.06632e-09 5.91232e-09 -1.85262e-09 3.65286e-09 -5.17741e-09 1.17426e-10 8.88494e-11 3.35646e-10 0.5 -3.50622e-09 -1.16045e-09 -6.64216e-09 8.21636e-10 2.08007e-09 -8.85537e-10 
458 1 1.5569 4.7536 3.86468 1 0 0 5.84283e-10 -8.98467e-09 7.68083e-09 -6.07601e-10 7.6128e-09 -6.59801e-09 -1.62006e-09 3.81155e-10 5.84837e-10 0.5 -3.67556e-09 -2.29202e-09 -2.16968e-09 3.04687e-09 -6.30014e-10 -8.60417e-11 
41 1 1.14045 0.960462 2.01108 0 0 0 -2.6018e-09 -8.56687e-09 -5.77268e-09 2.16489e-09 7.2681e-09 5.1192e-09 2.91044e-09 -4.32072e-10 1.52623e-09 0.5 -2.84201e-09 -2.51238e-09 -6.8399e-09 1.70411e-09 4.21778e-09 -2.28547e-09 
814 2 0.27112 1.22753 3.40348 1 0 0 -7.99608e-10 -1.09667e-08 -4.85075e-09 5.83783e-10 9.31016e-09 4.34974e-09 1.59173e-09 -9.74991e-10 2.95202e-09 0.5 -5.64111e-09 -5.88808e-09 -6.90536e-09 2.2982e-09 5.01846e-09 7.33755e-09 
130 1 1.70518 2.6475 2.50033 0 0 0 -2.77844e-09 -9.68398e-09 -3.27078e-10 2.3384e-09 8.25447e-09 3.53639e-10 2.64835e-09 -1.06016e-09 -1.17212e-09 0.5 -1.64061e-09 -7.32004e-09 -6.47067e-09 3.73265e-09 2.41967e-09 4.73913e-09 
12 1 2.70258 1.09575 2.61132 0 0 0 1.07756e-09 -5.48216e-09 -3.0089e-09 -9.88179e-10 4.68567e-09 2.56616e-09 1.62239e-09 -1.9487e-09 1.72435e-09 0.5 -8.95918e-09 -1.06732e-08 -7.40831e-09 5.98349e-09 3.41699e-09 3.30732e-10 
512 2 3.18635 2.03167 3.78747 0 0 0 8.26515e-10 -1.3582e-09 2.91271e-09 -8.72569e-10 1.1442e-09 -2.47037e-09 1.93168e-09 -4.56687e-10 1.31966e-09 0.5 -2.05251e-09 -3.96721e-09 -3.55371e-09 8.12148e-10 -8.30677e-10 4.23239e-09 
151 1 2.47925 3.30049 3.34132 0 0 0 1.26077e-09 -6.1241e-09 4.106e-09 -1.09402e-09 5.32351e-09 -3.54158e-09 -6.78767e-10 -6.42861e-10 4.30986e-10 0.5 -2.64894e-09 -9.56587e-09 -9.01884e-09 2.37778e-09 2.01138e-09 2.4911e-09 
667 2 0.284319 1.3208 2.4071 0 0 0 -2.60757e-09 -1.13244e-08 -4.79664e-09 2.17662e-09 9.63454e-09 4.30541e-09 1.90724e-09 5.82456e-10 1.72057e-09 0.5 -3.30537e-09 -1.52496e-08 -1.17634e-08 8.76228e-10 -9.99822e-11 1.52703e-09 
38 1 3.79042 0.738149 3.87284 0 0 0 2.82805e-10 -7.75566e-10 -2.3828e-09 -4.37065e-10 7.18448e-10 1.98202e-09 -2.01976e-09 -5.77411e-10 1.74731e-10 0.5 -5.64675e-09 -1.78224e-09 -1.43251e-08 -6.39871e-09 3.24186e-09 1.0405e-08 
936 2 0.319906 3.36948 3.50683 1 0 0 -4.69775e-09 -1.12676e-08 2.09917e-09 3.96203e-09 9.57465e-09 -1.67336e-09 1.90621e-09 -1.59999e-09 -1.148e-09 0.5 4.77881e-10 -1.13944e-08 -4.6615e-09 1.73382e-10 5.38894e-09 7.31071e-09 
531 2 4.80013 0.808197 2.48028 0 0 0 -2.20796e-09 -6.15903e-09 -1.58209e-09 1.8189e-09 5.43521e-09 1.27767e-09 1.8734e-10 -2.6483e-10 -9.92078e-10 0.5 -2.06063e-09 1.76606e-10 -4.25357e-09 -2.52947e-09 -4.01427e-09 -2.08098e-09 
527 2 4.03024 4.31517 3.61908 0 0 0 1.83895e-09 -2.95855e-09 7.69593e-09 -1.67729e-09 2.66975e-09 -6.71323e-09 -1.00823e-09 -1.88009e-11 3.48441e-10 0.5 -4.31144e-10 7.24154e-10 3.00659e-09 -2.05187e-09 -1.16156e-09 3.98597e-09 
383 1 4.36293 4.34454 2.28892 0 0 1 7.71445e-10 -2.0427e-09 5.74285e-09 -6.65926e-10 1.88732e-09 -5.06852e-09 3.19093e-10 -5.87078e-10 4.3549e-11 0.5 -3.58089e-09 -6.98928e-10 1.95846e-09 3.18213e-09 -8.8062e-10 -1.61658e-09 
992 2 0.695682 0.439322 3.85269 1 1 0 -4.03404e-10 -1.16375e-08 -6.88841e-09 2.46136e-10 9.86536e-09 6.05672e-09 4.32695e-10 1.76711e-09 1.11295e-09 0.5 -4.63107e-09 -1.15264e-08 -2.60939e-09 3.37671e-09 -1.63467e-09 6.00888e-09 
521 2 4.93615 4.52796 3.25037 0 0 0 1.08918e-09 -2.20642e-09 6.29426e-09 -1.03953e-09 1.98957e-09 -5.53786e-09 -7.32182e-10 4.39747e-10 3.50504e-10 0.5 9.33424e-10 -2.97738e-09 -3.19301e-09 -4.40613e-11 -5.24651e-10 3.8054e-09 
136 1 1.88498 1.67143 2.62265 0 0 0 -2.36756e-09 -1.03122e-08 -5.92583e-09 1.9519e-09 8.79131e-09 5.2352e-09 1.13972e-09 1.64072e-09 1.23118e-09 0.5 -1.0368e-08 -1.06439e-08 -6.93687e-09 7.41886e-09 -9.88743e-10 3.12705e-09 
540 2 4.51129 0.178592 3.415 0 0 0 -7.02472e-10 -3.70829e-09 -2.84833e-09 4.75848e-10 3.33748e-09 2.32304e-09 -1.65251e-09 9.09982e-10 -1.20711e-09 0.5 3.18886e-09 2.03255e-09 5.20327e-10 -1.92848e-09 -1.32358e-09 1.89082e-09 
510 2 3.85504 2.56842 3.17077 0 0 0 -1.3625e-09 -4.50502e-09 3.28805e-09 1.03137e-09 3.95798e-09 -2.94233e-09 4.00595e-10 -2.33307e-10 6.8926e-11 0.5 2.8564e-09 4.20342e-09 -2.62596e-09 7.93227e-10 4.52597e-10 3.56772e-09 
19 1 4.3655 1.84749 2.40882 0 0 0 -1.72425e-09 -5.30523e-10 9.9016e-10 1.3262e-09 5.39185e-10 -9.64075e-10 9.73413e-10 2.68664e-10 2.32321e-10 0.5 -1.04666e-08 -4.29587e-10 -5.48995e-09 5.51376e-10 4.66409e-09 1.01249e-09 
543 2 1.07326 1.78713 3.19513 0 0 0 -4.62522e-10 -1.08054e-08 -3.12356e-09 2.85902e-10 9.15858e-09 2.82204e-09 2.30062e-09 2.08809e-09 7.85381e-10 0.5 -9.35847e-10 -1.38425e-09 -5.39908e-10 -2.01207e-09 1.68636e-09 9.91347e-10 
773 2 4.78774 2.22773 3.30763 0 0 0 -9.19937e-10 -3.70271e-09 2.80319e-09 6.60255e-10 3.30659e-09 -2.51173e-09 9.40146e-10 9.84446e-10 -7.66372e-10 0.5 5.18291e-10 -8.32625e-09 -1.60329e-08 -1.44814e-09 3.18889e-09 1.63146e-08 
555 2 2.23907 2.5056 3.89852 0 0 0 7.3355e-10 -5.34016e-09 4.99845e-09 -7.72312e-10 4.68902e-09 -4.30915e-09 -6.74396e-10 -1.76892e-10 6.05066e-10 0.5 2.3243e-09 2.8394e-09 2.90418e-09 1.28721e-09 1.11403e-10 3.22791e-09 
429 1 0.306925 2.40106 3.75655 1 0 0 -3.74006e-09 -1.2305e-08 -2.55062e-09 3.13112e-09 1.04654e-08 2.32598e-09 1.24513e-09 5.14028e-10 2.25259e-09 0.5 -2.1826e-09 -1.84414e-08 -1.05428e-08 4.2825e-09 -2.78795e-09 1.02058e-08 
316 1 0.889712 0.512877 2.86992 1 0 0 -3.21895e-09 -1.13625e-08 -7.4497e-09 2.68143e-09 9.64435e-09 6.54746e-09 1.3112e-09 2.07248e-10 1.78447e-09 0.5 9.08968e-10 -2.22019e-09 -1.72107e-09 7.58058e-10 5.49491e-10 2.19957e-09 
503 2 3.61689 0.768796 2.88623 0 0 0 5.75071e-10 -5.2933e-09 -2.33968e-09 -5.33611e-10 4.58972e-09 1.9043e-09 -2.7217e-10 -4.3692e-10 9.74752e-10 0.5 -2.18065e-09 2.04179e-10 -1.11663e-08 5.51355e-10 -1.0295e-09 3.16069e-09 
896 2 0.702247 3.66501 2.63024 1 0 0 1.10328e-09 -1.18581e-08 4.56705e-09 -1.03883e-09 1.00794e-08 -3.80331e-09 1.39207e-09 6.38287e-10 -6.16355e-10 0.5 -7.83046e-09 -3.83857e-09 -1.19542e-08 2.13615e-09 -4.23356e-09 3.53258e-09 
690 2 1.93672 4.67095 2.92999 0 0 0 4.13583e-10 -7.21792e-09 7.74859e-09 -3.99413e-10 6.18998e-09 -6.63451e-09 -1.54557e-10 4.56435e-10 1.95451e-09 0.5 -8.3842e-09 -4.19697e-09 -1.75262e-09 5.57693e-09 -1.10649e-10 -9.29145e-10 
641 2 3.45948 3.5005 3.22725 0 0 0 9.21688e-10 -3.08222e-09 6.05285e-09 -8.33392e-10 2.76735e-09 -5.31392e-09 -6.31074e-10 -1.4294e-10 7.70116e-10 0.5 -9.61517e-10 1.06525e-09 -5.35533e-09 1.49956e-09 -2.7937e-09 6.64788e-09 
528 2 3.34275 4.80215 2.44243 0 0 0 1.85311e-09 -5.46098e-09 5.58167e-09 -1.66795e-09 4.74814e-09 -4.90261e-09 -1.00823e-10 1.89856e-10 3.39654e-10 0.5 -6.34981e-10 -1.18396e-09 -2.52025e-09 -1.15742e-09 -4.82263e-10 -6.91494e-10 
225 1 2.66658 2.37982 2.99794 0 0 1 -2.41161e-09 -6.51787e-09 3.41713e-09 1.98673e-09 5.63302e-09 -2.91828e-09 -5.37336e-10 1.32772e-09 6.42236e-10 0.5 -2.71964e-09 -6.94169e-09 -7.10257e-10 4.19387e-09 -2.23421e-09 -1.31778e-11 
119 1 0.614476 2.84343 2.06694 0 0 0 -5.10521e-09 -9.35549e-09 1.88336e-09 4.31342e-09 7.95695e-09 -1.51739e-09 3.16141e-09 3.61034e-10 -8.99162e-11 0.5 1.47575e-09 -4.65121e-09 -8.14906e-09 1.61493e-09 3.13495e-09 2.93976e-10 
94 1 2.46189 3.50067 2.00487 0 0 1 -3.65829e-10 -6.96335e-09 7.42821e-09 2.85636e-10 5.98779e-09 -6.4003e-09 1.22203e-09 -3.08391e-10 4.00199e-10 0.5 1.70262e-09 2.38524e-09 8.64289e-10 2.15455e-09 1.7572e-09 2.78498e-09 
522 2 2.58373 2.50801 2.00903 0 0 0 -1.09761e-09 -7.08491e-09 3.24076e-09 9.04331e-10 6.09031e-09 -2.77242e-09 2.43916e-09 -9.00446e-10 9.61445e-10 0.5 5.78665e-10 6.29974e-10 -2.76179e-09 2.22942e-09 2.20709e-09 7.97354e-10 
200 1 2.46549 0.208501 4.19599 0 1 0 2.26451e-09 -3.88469e-09 -3.94797e-09 -2.14736e-09 3.2849e-09 3.39851e-09 -2.37376e-09 -1.6603e-09 3.90984e-09 0.5 -5.63585e-09 -3.04503e-09 -1.01912e-08 1.73808e-09 3.65261e-09 2.71158e-09 
114 1 4.70709 1.00384 4.17137 0 0 0 -8.63051e-11 -9.15679e-10 -1.11667e-09 -5.81546e-11 9.16131e-10 8.92777e-10 -8.44669e-10 -5.63239e-10 -9.12785e-10 0.5 -3.60664e-09 4.87765e-11 -9.35499e-10 -4.48641e-10 -2.32645e-09 -1.748e-10 
820 2 1.30996 2.29325 4.21136 1 0 0 6.11883e-11 -8.37514e-09 1.2535e-09 -1.2938e-10 7.10867e-09 -9.97178e-10 -1.46834e-09 -9.9064e-10 2.36553e-09 0.5 1.00449e-09 2.38978e-09 -2.40594e-09 7.47058e-09 1.7848e-09 4.04787e-09 
47 1 4.65574 1.582 5.43553 0 0 0 2.2851e-09 6.78927e-10 7.40799e-10 -2.18517e-09 -4.33568e-10 -7.21002e-10 2.88031e-10 1.43997e-09 6.44094e-10 0.5 -3.8126e-09 -6.39418e-09 -2.60792e-09 -1.56955e-09 -3.14898e-09 5.33298e-09 
824 2 1.64908 3.83184 5.79238 1 0 0 8.02179e-10 2.43711e-09 7.8338e-09 -7.06417e-10 -2.07881e-09 -6.67702e-09 -1.96866e-09 2.26683e-10 -6.52871e-10 0.5 -1.25136e-09 -1.01633e-09 -4.44489e-09 -2.46848e-10 -3.64904e-11 1.58196e-09 
172 1 3.44268 0.338821 4.72114 0 1 0 -4.2609e-10 3.07457e-09 -8.55352e-10 1.31024e-10 -2.62642e-09 5.82357e-10 -2.72456e-09 -7.31268e-10 1.29595e-09 0.5 -5.14097e-09 -5.3982e-09 -1.8706e-08 -4.52245e-09 4.55533e-09 7.79955e-09 
718 2 0.202285 2.03673 5.5128 0 1 0 -9.24088e-10 -3.43893e-09 2.13603e-09 6.63048e-10 2.83243e-09 -1.70677e-09 -2.04282e-09 -8.9519e-10 -2.99924e-10 0.5 -8.90513e-09 -2.08005e-09 -5.84304e-09 4.2904e-09 -4.52242e-09 1.21918e-08 
505 2 0.484433 3.5018 5.83385 0 0 -1 -9.43034e-10 3.157e-09 6.04018e-09 7.85699e-10 -2.88579e-09 -5.11064e-09 4.32659e-10 -1.03839e-09 2.74043e-09 0.5 -1.28537e-11 -1.54901e-08 -8.00218e-09 9.47519e-10 -2.16438e-10 1.28721e-08 
524 2 3.99535 2.7352 5.70679 0 0 0 6.39526e-09 8.06646e-09 8.85884e-09 -5.77422e-09 -6.76989e-09 -7.81655e-09 -2.10229e-09 5.9645e-09 2.95131e-09 0.5 1.61611e-10 1.43091e-09 1.69228e-09 -1.22193e-09 -1.37704e-09 1.46712e-09 
839 2 0.579387 1.61472 4.31101 1 0 0 1.7554e-09 -1.11632e-08 -3.62266e-09 -1.58851e-09 9.50461e-09 3.28303e-09 -7.43188e-10 5.52768e-11 2.355e-09 0.5 -8.05629e-10 -1.19128e-08 -7.11776e-09 8.29012e-09 -6.91067e-10 1.26729e-08 
937 2 2.44361 3.38654 4.3372 1 0 0 1.52215e-09 -4.45157e-09 3.8759e-09 -1.37339e-09 3.91188e-09 -3.34737e-09 -1.58402e-09 -9.71561e-10 1.93892e-09 0.5 3.48908e-09 3.77841e-09 -8.09385e-09 5.37472e-09 4.41966e-10 3.81331e-09 
811 2 2.60623 3.94632 5.52498 1 0 0 -3.56571e-12 2.3345e-09 4.94158e-09 -3.57331e-11 -1.92152e-09 -4.23908e-09 -1.91599e-09 -1.05898e-09 1.23565e-11 0.5 -8.52248e-10 -3.49598e-09 -1.18139e-09 -1.45156e-09 -1.43856e-09 3.69171e-09 
827 2 1.52088 3.18133 4.66349 1 0 0 1.88085e-09 -8.44422e-09 2.45179e-09 -1.61688e-09 7.15947e-09 -2.02903e-09 -2.73402e-09 -1.36227e-09 7.28285e-11 0.5 2.0782e-09 -5.57615e-10 -6.62647e-09 6.63336e-10 5.80736e-10 5.34155e-09 
149 1 4.05563 3.93275 4.61881 0 0 0 3.40522e-10 1.3255e-09 6.56368e-09 -4.22632e-10 -1.01622e-09 -5.74494e-09 -1.00039e-09 4.07934e-10 1.64851e-09 0.5 -3.34527e-09 -3.07349e-09 2.27421e-09 9.79011e-09 -6.11267e-09 2.80421e-09 
925 2 0.623246 3.59905 4.52293 1 0 0 2.89495e-09 -6.67117e-09 1.03158e-09 -2.52785e-09 5.55636e-09 -8.01022e-10 -2.50723e-09 1.0563e-09 -4.39215e-10 0.5 2.37985e-09 -4.15996e-09 -1.14922e-09 -1.00874e-09 -7.65071e-10 2.13663e-09 
168 1 3.33522 4.60361 5.33159 0 0 0 6.57005e-10 2.06672e-09 6.759e-09 -6.39535e-10 -1.68469e-09 -5.91364e-09 -1.65148e-09 -9.89768e-10 1.52253e-09 0.5 -5.18549e-09 -4.10037e-09 -4.30842e-09 1.58849e-09 -2.78182e-09 3.46847e-09 
928 2 1.57471 4.4088 4.9787 1 0 0 1.37324e-09 1.63152e-09 7.28406e-09 -1.19436e-09 -1.34814e-09 -6.17475e-09 -1.21457e-09 3.88172e-10 -1.15224e-09 0.5 -2.16906e-09 -2.71246e-09 -2.80034e-09 -1.3506e-09 1.70788e-10 2.45311e-09 
148 1 3.93983 3.74234 5.7457 0 0 0 -6.08742e-10 7.80552e-09 9.39644e-09 4.07528e-10 -6.5439e-09 -8.18438e-09 -2.27959e-09 -7.97831e-10 4.10709e-09 0.5 2.33406e-09 4.65368e-09 5.71176e-09 3.42245e-09 3.94447e-09 3.41954e-09 
914 2 4.69244 4.38506 5.24423 0 0 0 -2.46041e-09 4.60369e-09 7.10738e-09 2.00702e-09 -3.7491e-09 -6.29678e-09 -3.44451e-09 -8.42151e-10 -2.69369e-10 0.5 -1.55681e-10 1.21739e-09 2.10968e-09 3.83158e-10 7.20599e-10 1.33422e-09 
23 1 2.87773 1.11847 4.05716 0 0 0 -6.17394e-10 -2.67208e-09 -3.42596e-09 3.38528e-10 2.27495e-09 2.95278e-09 9.56932e-10 -6.00383e-11 9.87165e-10 0.5 -4.40696e-09 -4.19101e-09 -3.52501e-09 -1.52802e-09 2.20932e-09 3.31342e-09 
594 2 2.05586 1.97089 4.80241 0 0 0 1.7351e-09 1.04714e-09 3.76426e-09 -1.6017e-09 -9.66777e-10 -3.10139e-09 9.58312e-10 -1.13701e-09 3.22147e-09 0.5 4.23819e-11 -5.51458e-09 -1.17472e-09 4.30473e-09 -2.08902e-09 3.35824e-09 
539 2 3.78455 1.04074 5.46912 0 0 0 7.97133e-10 6.24223e-09 2.03344e-09 -8.85687e-10 -5.30123e-09 -1.87851e-09 -1.10298e-09 2.01333e-09 -4.4007e-10 0.5 -1.89527e-09 -1.81696e-08 -7.88807e-09 -5.77301e-09 -4.9413e-09 1.53127e-08 
730 2 0.461765 1.11568 5.16957 0 1 0 -1.74032e-10 -3.75055e-09 4.255e-10 -1.1539e-11 3.09878e-09 -2.33851e-10 -9.18737e-10 -5.27002e-10 3.09036e-09 0.5 4.96824e-09 -8.92242e-10 -4.21425e-09 9.34752e-10 -1.17269e-09 8.75207e-09 
689 2 3.51933 0.103669 5.69619 0 1 0 -6.0919e-10 5.87725e-09 -1.09278e-09 3.36287e-10 -4.98453e-09 8.15639e-10 -6.66349e-10 -7.12261e-10 -1.11854e-10 0.5 -7.46832e-09 -2.22428e-08 -1.92641e-08 -2.46614e-09 5.76505e-10 1.6686e-08 
450 1 0.619288 4.79871 4.46892 1 0 0 6.82332e-09 -4.91764e-09 5.08674e-09 -5.87978e-09 4.13066e-09 -4.24172e-09 -4.86949e-09 -1.20679e-09 8.73678e-10 0.5 -2.37377e-09 -6.64838e-09 -1.43196e-08 5.81892e-10 -2.52072e-09 7.9332e-09 
549 2 4.49944 0.500888 5.01435 0 0 0 -2.89321e-09 1.99865e-09 4.07066e-11 2.30768e-09 -1.63391e-09 -1.50362e-10 -7.76061e-10 7.95021e-10 -2.01076e-09 0.5 5.74161e-09 7.56159e-09 3.57132e-09 -3.43709e-09 -2.0747e-09 3.6355e-09 
591 2 1.44655 1.12499 4.40334 0 0 0 3.45897e-09 -8.36862e-09 -5.71359e-09 -3.08182e-09 7.04287e-09 5.0485e-09 -1.44201e-09 1.56773e-09 2.93133e-10 0.5 -4.63171e-09 -7.14669e-09 -5.54653e-09 1.84446e-09 6.27294e-10 5.47869e-09 
243 1 1.20287 1.83742 5.34381 0 1 0 -1.32349e-09 -1.41254e-10 -3.26436e-10 9.85891e-10 -1.75579e-12 3.85493e-10 -7.83173e-10 -5.95152e-10 1.71047e-09 0.5 -2.56448e-09 -2.79713e-09 -1.11638e-09 3.63817e-09 -1.28563e-09 4.08705e-09 