ITEM: TIMESTEP
222500
ITEM: NUMBER OF ATOMS
1000
ITEM: BOX BOUNDS xy xz yz pp pp pp
0.0000000000000000e+00 1.0000000000000000e+01 0.0000000000000000e+00
0.0000000000000000e+00 1.0000000000000000e+01 0.0000000000000000e+00
0.0000000000000000e+00 1.0000000000000000e+01 0.0000000000000000e+00
ITEM: ATOMS id type x y z ix iy iz vx vy vz fx fy fz omegax omegay omegaz radius c_2[1] c_2[2] c_2[3] c_2[4] c_2[5] c_2[6] 
120 1 3.15852 1.54146 0.0722925 0 1 0 -2.44745e-11 9.41169e-11 5.27871e-11 2.2535e-11 -7.52849e-11 -4.63001e-11 5.39028e-11 1.48891e-11 -3.07211e-11 0.5 -4.34753e-11 -2.38669e-10 -2.30729e-11 -2.55378e-11 -1.40969e-11 -5.92684e-11 
525 2 2.11627 1.23431 1.69988 0 0 0 -9.16397e-11 -2.16829e-10 -1.30869e-10 7.6694e-11 1.85163e-10 1.14856e-10 -1.84602e-11 2.10397e-11 7.26243e-11 0.5 5.20551e-12 -1.43708e-11 8.72009e-12 1.82835e-11 6.344e-12 -3.30646e-12 
371 1 4.95931 3.68326 1.58374 0 0 1 4.8004e-11 -6.98321e-11 1.17024e-10 -3.65797e-11 1.0714e-10 -1.14855e-10 9.54258e-12 -8.41677e-12 4.58365e-12 0.5 -3.37125e-11 -1.51838e-10 7.41951e-11 -1.59019e-11 -1.84445e-11 1.82006e-11 
18 1 1.98117 2.69195 0.532518 0 0 0 -4.70964e-11 -3.16293e-12 1.4259e-10 4.6046e-11 -1.523e-12 -1.1685e-10 9.18896e-11 -2.98644e-11 2.9941e-11 0.5 -8.4155e-11 -1.78073e-10 -1.06656e-10 1.45174e-10 5.63982e-11 -7.77952e-11 
868 2 2.87004 3.00634 0.0289121 0 0 1 3.37834e-11 -1.55418e-11 1.16051e-10 -2.35332e-11 -1.38065e-12 -9.94599e-11 7.66002e-11 -1.36266e-11 3.26098e-11 0.5 -1.33364e-10 -2.02932e-10 -5.40823e-11 1.49714e-10 -1.35821e-11 1.47321e-11 
25 1 1.41548 0.708705 1.0832 0 0 0 -3.41321e-11 -8.13411e-11 -1.28298e-10 3.19923e-11 4.56585e-11 1.24613e-10 6.13817e-11 -1.59907e-11 4.43398e-11 0.5 -5.01834e-11 -3.69278e-10 -1.96663e-10 1.39315e-10 9.54744e-11 -1.65076e-10 
378 1 4.61919 2.40719 0.0725816 0 0 1 1.22103e-11 6.86332e-11 8.55952e-11 -8.66527e-12 -5.71274e-11 -7.28329e-11 8.39814e-11 2.00176e-11 -1.8399e-11 0.5 -5.07429e-11 -1.34013e-10 -7.21127e-11 -2.5287e-12 -1.04486e-11 -9.71053e-11 
8 1 3.44143 2.06796 1.74253 0 0 0 -7.9003e-12 -9.14048e-11 3.13593e-11 1.19558e-11 7.84376e-11 -2.81276e-11 7.32881e-11 -1.67026e-11 1.75921e-11 0.5 5.56033e-11 3.62204e-11 4.38085e-11 2.67944e-11 -2.24798e-11 2.26695e-11 
629 2 4.07713 2.6156 1.19812 0 0 1 2.20476e-11 -4.13023e-11 1.15192e-10 -7.78551e-12 2.21082e-11 -1.05609e-10 8.12581e-11 -2.48564e-11 2.97149e-12 0.5 -1.44427e-10 -3.0493e-11 -1.15234e-10 3.46852e-11 -9.71089e-11 -6.33888e-11 
5 1 2.34651 3.9005 1.05345 0 0 0 -1.00204e-11 -1.57577e-10 1.6143e-10 9.42276e-12 1.36553e-10 -1.39434e-10 7.40208e-12 1.04313e-11 3.35312e-11 0.5 -8.62828e-12 -1.65574e-11 -2.27831e-11 2.19362e-11 3.41005e-12 -4.47884e-12 
650 2 0.459129 3.43666 1.12967 0 0 0 -9.98497e-11 -1.79056e-10 4.16639e-11 8.57957e-11 1.50883e-10 -2.85051e-11 1.01136e-10 5.68485e-12 8.47068e-13 0.5 -1.28254e-10 -1.42218e-10 -1.56531e-10 1.09407e-10 1.07058e-10 -6.99139e-11 
14 1 3.29515 3.13364 1.54473 0 0 0 4.57662e-12 -7.05865e-11 1.2765e-10 -1.53137e-11 7.60733e-11 -1.00823e-10 1.99732e-11 1.71096e-11 1.15434e-11 0.5 -2.32998e-11 -4.11802e-11 -7.7829e-11 6.81063e-11 -4.77328e-12 -3.58796e-11 
264 1 3.99643 3.86789 1.37953 0 0 0 4.57205e-11 -8.25e-11 1.19671e-10 -4.28371e-11 7.38692e-11 -1.04734e-10 3.31676e-11 6.33798e-12 7.05518e-12 0.5 -3.33835e-11 4.59918e-12 -6.20269e-11 5.13224e-11 -9.13806e-12 -1.71227e-11 
223 1 0.747634 2.47805 1.14565 0 0 1 -1.07617e-10 -1.79129e-10 3.79022e-11 9.22266e-11 1.51186e-10 -2.99615e-11 9.49545e-11 -3.72332e-11 1.40412e-11 0.5 -4.17066e-11 -1.4136e-10 -2.54678e-10 5.52497e-11 1.08167e-10 -6.97341e-11 
364 1 4.4227 4.23693 0.53984 0 0 1 3.01853e-11 4.77296e-11 1.65962e-10 -2.88565e-11 -3.36815e-11 -1.57073e-10 4.73062e-11 -8.57257e-12 1.90001e-11 0.5 8.62295e-12 2.11818e-11 1.71748e-11 8.6673e-12 2.11645e-11 -2.85215e-11 
107 1 1.66076 1.61825 0.747451 0 0 1 -8.23185e-11 -4.05972e-11 -5.09472e-11 7.58021e-11 2.08034e-11 6.29079e-11 9.67537e-11 -7.91306e-12 1.49147e-11 0.5 5.11136e-11 -1.032e-10 -1.02809e-10 1.02627e-11 -7.28461e-12 -5.81261e-11 
529 2 2.67265 2.1996 1.06195 0 0 0 -1.0475e-11 -5.93538e-11 4.10404e-11 9.15057e-12 4.21083e-11 -1.72206e-11 8.8195e-11 6.91906e-12 2.61263e-11 0.5 -2.46189e-11 -6.08427e-11 -7.30187e-11 4.7975e-11 -4.02214e-11 2.09235e-11 
515 2 4.38643 0.435908 1.64385 0 0 0 1.33082e-11 -9.64856e-11 -7.63523e-11 1.88367e-12 1.05866e-10 4.44239e-11 5.48442e-11 -7.48944e-12 1.77833e-11 0.5 4.97817e-11 -2.92758e-11 -8.85526e-11 -8.90389e-11 -2.22594e-11 8.3268e-12 
244 1 4.11373 0.570462 0.682724 0 1 1 1.59663e-11 3.8607e-11 -5.55418e-11 -1.16495e-11 -3.11135e-11 3.82684e-11 7.85459e-11 2.6311e-11 6.71461e-12 0.5 -3.05722e-11 -2.74703e-11 -8.64067e-11 -2.73543e-12 2.00724e-11 8.32833e-12 
20 1 2.90179 0.570818 1.78382 0 0 0 3.8044e-12 -9.15037e-11 -8.50818e-11 2.45388e-12 7.34547e-11 4.87038e-11 3.66134e-11 -2.04666e-11 2.41632e-11 0.5 -4.8057e-11 -1.26494e-10 -2.12772e-10 7.4413e-11 8.59162e-11 -1.45526e-10 
280 1 4.09077 1.582 1.14626 0 0 0 7.53719e-12 -2.18402e-11 -7.7687e-12 -2.84006e-12 1.72264e-11 -4.23508e-12 8.49939e-11 -7.24074e-12 5.62541e-12 0.5 -2.76101e-12 -4.44854e-11 -1.28599e-10 2.31282e-11 7.10391e-11 3.24446e-11 
620 2 1.3946 4.37082 0.857654 0 0 1 2.08394e-11 -1.07118e-10 1.36246e-10 -1.47009e-11 9.54235e-11 -1.21529e-10 6.65346e-11 4.4413e-11 -3.83404e-11 0.5 -3.17245e-11 -1.60307e-10 -2.3894e-10 9.93661e-12 -3.16305e-11 2.29443e-11 
1000 2 3.60332 2.39824 0.339819 0 1 1 8.0285e-11 2.78509e-11 7.66842e-11 -6.01889e-11 -3.24151e-11 -6.81333e-11 5.94144e-11 -6.28877e-12 2.29911e-13 0.5 -1.13164e-10 -1.82284e-10 -1.18447e-10 -8.27724e-13 -9.67103e-11 -2.6592e-11 
103 1 3.28431 3.68319 0.698947 0 0 1 7.34969e-12 -4.29865e-11 1.50651e-10 -3.98047e-12 2.83608e-11 -1.31473e-10 4.43989e-11 1.7496e-12 2.40474e-11 0.5 -4.85624e-11 -5.51838e-11 -6.32208e-11 4.45327e-11 -3.94606e-12 -2.46568e-12 
622 2 0.930663 4.80385 0.0848388 0 0 1 1.5935e-11 -7.0668e-12 1.93443e-10 -1.54008e-11 1.00525e-11 -1.71557e-10 8.59531e-11 -4.56549e-12 -1.36812e-11 0.5 -2.9718e-12 1.78102e-11 -1.16511e-10 -6.34739e-12 -5.19238e-11 2.64262e-11 
506 2 0.74356 1.4513 1.18235 0 0 0 -1.13257e-10 -1.80974e-10 -1.09023e-10 1.01394e-10 1.39556e-10 8.73031e-11 7.23944e-11 -1.19357e-11 5.31139e-11 0.5 2.11433e-11 -2.34892e-10 -4.2812e-11 2.69112e-10 5.56375e-11 -1.44038e-10 
626 2 1.28815 3.41645 0.566227 0 0 1 -9.92909e-11 -6.04271e-11 4.52689e-11 8.04843e-11 4.98481e-11 -3.54315e-11 5.35412e-11 -2.44653e-11 8.1171e-12 0.5 -1.27716e-10 -1.87577e-10 -3.36302e-11 1.08325e-10 8.01046e-11 -5.42298e-11 
553 2 0.744043 0.0774004 1.56305 0 0 0 -2.4428e-11 -1.32955e-10 -1.64848e-10 2.0573e-11 1.13512e-10 1.43261e-10 8.20338e-12 -3.66989e-11 6.18291e-11 0.5 2.49051e-11 9.61943e-12 2.04861e-11 7.12837e-12 4.34876e-12 -2.88059e-11 
135 1 1.54769 3.20472 1.67709 0 0 0 3.02276e-11 -1.64624e-10 2.55056e-11 -2.43175e-11 1.25855e-10 -1.93052e-11 5.13185e-11 -6.95079e-11 -2.08458e-11 0.5 7.52071e-12 -3.09349e-10 -6.6444e-11 7.929e-11 3.19257e-11 -1.31376e-12 
624 2 4.32461 4.92098 1.47156 0 0 1 8.43804e-11 -9.63454e-12 1.2012e-10 -6.76889e-11 9.75125e-12 -1.05827e-10 3.37643e-11 -5.78068e-12 2.36315e-11 0.5 3.68255e-11 2.92553e-11 -7.32824e-11 3.97328e-11 -6.56152e-11 -7.29265e-11 
256 1 4.58719 1.36786 0.305 0 0 0 1.71786e-11 5.40173e-11 -2.14996e-11 -8.55318e-12 -5.02186e-11 1.74999e-11 8.23877e-11 1.4782e-11 -2.09867e-11 0.5 -2.57937e-11 -9.18449e-11 -9.82341e-11 -5.81984e-11 -1.83813e-11 -1.3232e-10 
260 1 3.31854 0.0700552 1.02517 0 0 0 4.09128e-11 -3.29846e-11 -1.04233e-10 -2.83792e-11 2.67103e-11 8.05248e-11 3.25994e-11 4.33701e-11 9.89936e-12 0.5 -3.75233e-11 -1.30274e-10 -1.53724e-10 2.44265e-12 1.69596e-11 -9.59278e-11 
616 2 3.19106 4.4806 1.50664 0 0 1 3.02709e-11 -1.25795e-10 1.14487e-10 -2.69776e-11 1.07189e-10 -1.06648e-10 -6.53381e-12 1.57331e-11 2.65794e-11 0.5 -6.01094e-11 -2.51841e-11 -3.04094e-11 3.65019e-11 3.95363e-12 -1.66926e-11 
106 1 1.74522 2.23558 1.52961 0 0 1 -9.85134e-12 -1.75831e-10 4.79296e-11 -3.05164e-13 1.75642e-10 -2.57257e-11 6.70494e-11 -2.21345e-11 -1.44314e-11 0.5 5.80003e-11 -1.64627e-10 -5.7955e-11 5.40391e-11 3.72456e-11 -7.54726e-11 
157 1 1.3897 4.17879 1.83903 0 0 0 5.09181e-11 -1.78172e-10 1.22624e-10 -4.54376e-11 1.53009e-10 -7.83989e-11 6.77518e-11 8.66442e-12 9.93434e-12 0.5 -6.52163e-11 -2.37437e-10 -2.57208e-10 6.0186e-11 7.7566e-11 -4.45677e-11 
516 2 2.34691 0.89043 0.68796 0 0 0 -2.26771e-11 1.53757e-11 -3.50875e-11 2.59427e-11 -1.75293e-11 3.24916e-11 7.96891e-12 -1.56985e-11 9.19448e-12 0.5 6.33546e-12 -9.46121e-11 -2.28493e-11 2.42891e-11 3.79666e-11 -6.99818e-11 
183 1 0.415258 4.58221 1.00381 0 0 0 3.27421e-11 -1.52784e-10 2.8529e-10 -2.12418e-11 1.30826e-10 -2.42769e-10 1.30132e-10 7.24154e-11 7.45353e-12 0.5 2.11152e-12 -7.86753e-12 1.62434e-11 1.25907e-11 -2.04981e-11 1.55764e-11 
625 2 0.399951 3.91216 0.210014 0 0 1 -2.0827e-11 4.6076e-12 1.47782e-10 2.1059e-11 -4.13064e-12 -1.23568e-10 1.23052e-10 -1.32128e-11 -5.66169e-11 0.5 -4.25106e-12 4.98157e-12 -2.09714e-11 -3.48064e-12 -9.80083e-12 2.14507e-11 
91 1 2.22066 4.71676 1.69645 0 0 1 3.94741e-11 -1.54533e-10 1.49988e-10 -3.57402e-11 1.32428e-10 -1.28299e-10 7.62219e-13 1.11098e-11 9.9115e-12 0.5 -6.32257e-11 -3.28187e-11 -1.71403e-11 -7.91899e-12 7.27922e-12 -1.62402e-11 
257 1 4.94043 2.69123 1.70827 0 0 0 2.45841e-11 -7.26042e-11 9.35127e-11 -2.14173e-11 3.17475e-11 -9.13182e-11 3.17919e-11 -1.33026e-12 -1.40619e-11 0.5 -1.54648e-10 -1.43815e-10 -3.0144e-10 1.09537e-11 -9.50871e-11 -7.018e-11 
4 1 3.72174 1.12777 1.95711 0 0 0 8.23239e-12 -1.06759e-10 -5.45852e-11 -9.54894e-12 8.83873e-11 5.99924e-11 5.45397e-11 -3.14017e-12 7.3255e-12 0.5 -1.22425e-11 -1.5505e-11 -1.91953e-10 -3.30599e-11 2.03751e-11 9.1769e-11 
609 2 1.99624 4.76004 0.136921 0 0 1 2.00521e-11 -5.77326e-11 1.80514e-10 1.42912e-11 -1.49758e-11 -1.68432e-10 2.59627e-11 -1.14864e-11 3.10316e-11 0.5 -2.95081e-10 -9.2321e-10 -1.16833e-10 2.66083e-10 4.41661e-11 -1.97769e-10 
117 1 3.12746 1.31374 1.15363 0 1 0 1.58018e-11 -5.37701e-11 -3.61871e-11 -2.06989e-11 6.67712e-11 3.178e-11 6.93518e-11 2.6774e-12 8.97215e-12 0.5 1.78088e-11 -3.59521e-11 -1.71909e-11 3.43942e-11 -1.46564e-11 3.2529e-11 
511 2 1.08079 2.25054 0.230642 0 0 0 -4.03717e-11 4.54614e-11 6.14196e-12 2.35726e-11 -5.69087e-11 1.83799e-11 1.19764e-10 -3.00745e-11 -2.09771e-11 0.5 -3.90403e-11 -1.11328e-10 -2.41792e-10 1.80873e-11 9.3938e-11 -7.21565e-11 
911 2 0.492018 0.563612 0.697612 1 0 0 -2.73134e-11 -1.07473e-10 -1.58384e-10 2.20029e-11 1.50216e-10 1.44968e-10 1.11432e-11 -2.50959e-11 1.25029e-11 0.5 3.6511e-11 -2.03065e-10 -2.50361e-12 -1.7868e-11 1.16234e-11 -7.01347e-11 
668 2 0.00216515 3.81975 1.93315 0 0 0 -3.05966e-11 -3.1395e-10 1.41257e-10 2.31569e-11 2.83068e-10 -1.328e-10 3.07148e-11 2.18129e-11 -2.98325e-11 0.5 -2.47376e-10 -5.83094e-10 -2.46471e-10 1.74323e-10 -7.87006e-11 -3.2155e-12 
90 1 2.93989 4.58015 0.420403 0 0 1 2.28655e-11 -2.84213e-11 1.80265e-10 3.88609e-11 3.37975e-11 -1.94208e-10 2.55008e-11 -4.90523e-12 3.23358e-11 0.5 -5.70092e-11 3.7545e-11 -1.69574e-11 1.33085e-10 4.60668e-11 2.18973e-11 
734 2 4.13742 3.24508 0.37494 0 1 1 4.49515e-11 4.62111e-11 1.59801e-10 -3.89092e-11 -4.06804e-11 -1.39346e-10 7.73826e-11 8.75206e-12 1.21448e-11 0.5 -6.99479e-11 -4.13501e-11 4.95125e-12 5.45492e-11 1.88902e-11 -4.0791e-11 
672 2 0.0675425 1.98557 1.68985 0 0 0 -1.32319e-10 -2.51777e-10 -6.0066e-11 1.2745e-10 1.7979e-10 4.8389e-11 7.68195e-11 -1.39154e-11 3.02717e-11 0.5 -2.64497e-10 -6.08527e-10 -2.05815e-10 2.55503e-10 1.37068e-10 -1.91801e-11 
759 2 4.95866 2.03867 0.950748 0 0 0 1.89093e-11 -1.96647e-11 4.69411e-11 -7.17095e-12 9.50183e-12 -5.42464e-11 7.04329e-11 -1.54587e-11 -2.05645e-11 0.5 -9.96814e-12 -2.1437e-10 -1.18927e-10 -2.91755e-11 -2.37792e-11 -4.57257e-11 
21 1 1.84566 0.35675 2.43115 0 0 0 -3.44536e-11 -1.70601e-10 -1.31388e-10 2.96838e-11 1.46414e-10 1.14662e-10 3.35275e-11 -2.31978e-11 5.42362e-11 0.5 -4.96217e-12 -1.81167e-11 -2.43959e-12 1.57028e-11 -6.78428e-14 -8.60213e-12 
682 2 2.73058 4.0836 2.7725 0 0 0 2.85727e-11 -1.06228e-10 1.11859e-10 8.85065e-12 1.39754e-10 -1.33751e-10 -3.4236e-12 8.85422e-12 2.07318e-11 0.5 -1.52905e-10 -9.10843e-11 -1.13447e-11 1.24345e-10 4.7791e-11 1.25771e-10 
907 2 0.982097 4.62503 2.63573 1 0 0 1.36745e-11 -2.6048e-10 1.50685e-10 4.30292e-12 1.74441e-10 -1.55457e-10 1.19353e-11 -2.31341e-11 1.57214e-11 0.5 -1.76516e-10 -1.99955e-10 -2.46326e-10 9.74331e-11 9.48088e-11 -7.02205e-11 
144 1 1.68507 3.60062 2.81087 0 0 0 3.06646e-11 -2.18301e-10 2.70703e-11 -3.3466e-11 1.92034e-10 -2.18404e-11 -8.4734e-12 2.23948e-11 1.01234e-11 0.5 -1.41581e-10 -3.2352e-11 -5.15427e-11 8.04946e-11 -4.26947e-11 3.48675e-12 
675 2 2.83107 4.7385 3.54541 0 0 0 -1.86154e-11 -6.11322e-11 1.10141e-10 1.59592e-11 5.70154e-11 -9.79355e-11 -2.83691e-11 2.50947e-11 -5.62908e-13 0.5 1.01797e-11 4.23978e-11 8.29888e-11 4.09579e-11 -1.98869e-11 7.15583e-11 
502 2 4.38953 1.31124 3.26921 0 0 0 -2.88598e-11 -6.5065e-11 -4.5976e-11 2.22062e-11 7.75042e-11 3.96673e-11 1.12752e-11 -1.96647e-12 -4.14165e-12 0.5 -1.314e-10 -5.22265e-11 -8.03007e-11 -5.91048e-11 4.98744e-11 1.28266e-10 
27 1 2.60908 0.300739 3.21066 0 0 0 -1.99369e-11 -1.38529e-10 -9.86791e-11 8.7049e-12 1.60568e-10 6.87718e-11 3.87411e-12 -1.97297e-11 2.98106e-11 0.5 -1.20766e-10 -1.61169e-10 -3.27941e-10 6.66539e-11 8.97772e-11 1.62934e-11 
965 2 1.35576 3.65812 3.79896 1 0 0 5.08313e-11 -2.6951e-10 1.21912e-11 -9.04089e-11 2.37645e-10 2.03755e-11 -1.49981e-11 4.66637e-11 -3.39126e-11 0.5 -2.90843e-11 -1.27323e-10 -1.32864e-10 7.20841e-11 -4.94419e-11 8.58405e-11 
61 1 1.66165 0.448609 3.51352 0 0 0 -5.22974e-11 -2.32171e-10 -1.69278e-10 4.29166e-11 1.97799e-10 1.49674e-10 1.16422e-11 -2.85157e-12 4.50824e-11 0.5 -7.9967e-11 -3.95094e-12 -1.65315e-11 2.18263e-11 4.51795e-11 -5.10315e-12 
680 2 1.1901 2.78151 3.34693 0 0 0 -6.11827e-11 -2.45202e-10 6.66445e-12 7.74571e-11 2.00023e-10 1.57673e-12 8.16717e-12 2.36932e-11 -5.77815e-12 0.5 1.39915e-11 -4.57322e-11 -4.5162e-11 1.21624e-11 2.09126e-11 1.59505e-11 
251 1 4.71421 3.03382 3.89556 0 0 0 4.88479e-11 -8.7467e-11 8.95129e-11 -5.18805e-12 6.95742e-11 -9.45825e-11 4.4102e-11 3.14046e-11 -4.68631e-11 0.5 -1.65088e-10 -2.20948e-11 6.47684e-12 -9.39999e-11 4.76257e-11 8.57219e-11 
517 2 4.0089 2.89361 2.21821 0 0 0 3.65633e-11 -7.53482e-11 8.80145e-11 -4.06694e-11 7.56904e-11 -8.15231e-11 1.93741e-11 -2.87214e-12 -4.43283e-12 0.5 -3.6534e-13 2.6587e-12 -5.33707e-11 -2.1808e-12 -1.12138e-11 2.56305e-11 
6 1 3.42179 1.77987 2.73262 0 0 0 -3.31481e-11 -8.49335e-11 4.06661e-11 5.49856e-11 7.06261e-11 -4.04435e-11 5.06025e-11 -2.55349e-12 3.77804e-11 0.5 -1.60302e-10 4.05898e-11 2.62022e-11 7.36498e-11 6.80215e-11 4.74824e-11 
519 2 4.43345 3.61408 3.03093 0 0 0 1.7513e-11 -4.27398e-11 1.32068e-10 -1.99729e-11 4.76108e-11 -1.16937e-10 1.63802e-11 8.81506e-12 -6.27716e-12 0.5 -5.27848e-12 6.55381e-11 5.21006e-11 -4.34378e-11 -1.69048e-11 3.3021e-11 
509 2 1.93621 1.51608 3.62332 0 0 0 3.07686e-11 -2.16267e-10 -1.40378e-10 -1.45686e-11 1.84999e-10 1.19898e-10 -1.03581e-11 6.67588e-11 -8.71636e-13 0.5 1.37132e-11 -2.32337e-11 -1.78152e-10 -2.24377e-11 3.8587e-11 5.1679e-11 
142 1 1.03537 1.94217 2.17003 0 0 0 -8.62679e-11 -2.01965e-10 -4.82879e-11 8.58431e-11 1.59817e-10 5.70107e-11 6.78603e-11 1.56592e-12 1.49576e-11 0.5 6.18718e-12 -4.16941e-11 -3.50432e-11 7.60168e-11 -3.14134e-11 4.49322e-11 
941 2 0.192203 2.2584 2.77344 1 0 0 -1.13417e-10 -2.88003e-10 -3.64428e-11 1.00118e-10 2.47913e-10 3.81455e-11 4.21504e-11 6.36392e-12 1.43609e-11 0.5 -3.23526e-11 -1.11351e-10 -1.45992e-10 9.03293e-12 1.66377e-11 8.10111e-12 
919 2 0.650389 4.31552 3.53385 1 0 0 -6.56028e-12 -2.86806e-10 1.21422e-10 5.24633e-11 2.12187e-10 -7.1514e-11 3.67658e-11 1.86809e-11 -4.53533e-11 0.5 -9.89154e-11 -1.93158e-10 -1.1554e-10 9.43696e-11 3.58814e-12 6.67742e-11 
95 1 3.53903 3.77814 2.2694 0 0 1 4.49222e-11 -7.20906e-11 1.16103e-10 -5.30539e-11 7.17982e-11 -9.16324e-11 2.13701e-12 2.24902e-12 8.77212e-12 0.5 -5.27354e-11 -1.75156e-11 -1.3669e-10 1.78584e-11 3.17514e-11 -1.75638e-11 
458 1 1.5569 4.7536 3.86468 1 0 0 3.47444e-12 -1.99655e-10 1.62299e-10 -6.93386e-12 1.70333e-10 -1.3983e-10 -3.15675e-11 9.24975e-12 1.46345e-11 0.5 -8.78909e-11 -5.58799e-11 -5.18286e-11 7.34448e-11 -1.56713e-11 -4.80805e-13 
41 1 1.14045 0.960462 2.01108 0 0 0 -6.17786e-11 -1.89204e-10 -1.07295e-10 5.7976e-11 1.51389e-10 7.63186e-11 6.12223e-11 -9.40127e-12 3.52373e-11 0.5 -6.37004e-11 -6.0685e-11 -1.41203e-10 4.17267e-11 8.31763e-11 -4.51612e-11 
814 2 0.27112 1.22753 3.40348 1 0 0 -2.65676e-11 -2.4154e-10 -8.65853e-11 1.17185e-11 2.17908e-10 7.56535e-11 3.36853e-11 -1.97526e-11 6.06759e-11 0.5 -1.21926e-10 -1.31318e-10 -1.50535e-10 5.02037e-11 1.01712e-10 1.58583e-10 
130 1 1.70518 2.6475 2.50033 0 0 0 -6.37929e-11 -2.10561e-10 -1.05951e-12 3.80119e-11 1.72491e-10 2.90271e-11 5.49664e-11 -2.24324e-11 -2.37007e-11 0.5 -1.65905e-11 -1.46319e-10 -1.1713e-10 7.95339e-11 3.72814e-11 9.85928e-11 
12 1 2.70258 1.09575 2.61132 0 0 0 1.71495e-11 -1.18216e-10 -6.5227e-11 -3.24426e-11 1.14176e-10 7.71675e-11 3.63046e-11 -3.77643e-11 4.01299e-11 0.5 -2.06767e-10 -2.36718e-10 -1.67058e-10 1.38172e-10 6.44368e-11 4.18232e-12 
512 2 3.18635 2.03167 3.78747 0 0 0 2.95345e-12 -3.05778e-11 6.39642e-11 -7.70747e-12 2.51922e-11 -5.75424e-11 4.20714e-11 -7.78917e-12 2.89805e-11 0.5 -4.32593e-11 -8.00228e-11 -7.79568e-11 2.14736e-11 -2.27317e-11 8.94063e-11 
151 1 2.47925 3.30049 3.34132 0 0 0 2.57088e-11 -1.2408e-10 8.51122e-11 -3.25103e-11 1.20214e-10 -7.38512e-11 -1.73349e-11 -1.23884e-11 8.43339e-12 0.5 -6.67245e-11 -2.13102e-10 -2.02926e-10 5.87572e-11 3.44556e-11 5.05952e-11 
667 2 0.284319 1.3208 2.4071 0 0 0 -6.11932e-11 -2.48306e-10 -8.52863e-11 4.57236e-11 1.74693e-10 6.66986e-11 3.79291e-11 1.26283e-11 3.71069e-11 0.5 -6.39964e-11 -2.9775e-10 -2.51668e-10 3.21436e-11 -4.53361e-12 3.45359e-11 
38 1 3.79042 0.738149 3.87284 0 0 0 -7.89835e-12 -1.00767e-11 -5.7112e-11 -9.04083e-12 -1.15334e-11 6.69431e-11 -4.11822e-11 -1.44577e-11 7.19525e-12 0.5 -9.79349e-11 -2.72628e-11 -2.58656e-10 -1.21137e-10 5.3833e-11 2.01747e-10 
936 2 0.319906 3.36948 3.50683 1 0 0 -1.06825e-10 -2.48255e-10 5.53836e-11 9.49574e-11 2.22658e-10 -5.61366e-11 3.94733e-11 -3.12677e-11 -2.52719e-11 0.5 8.77896e-12 -2.62905e-10 -1.00135e-10 2.40491e-12 1.11072e-10 1.53856e-10 
531 2 4.80013 0.808197 2.48028 0 0 0 -5.35524e-11 -1.18594e-10 -4.12744e-11 5.28983e-11 1.13751e-10 4.54382e-11 3.41321e-12 -9.89747e-12 -1.91319e-11 0.5 -4.05263e-11 6.62858e-12 -8.23889e-11 -4.95677e-11 -8.18053e-11 -3.8311e-11 
527 2 4.03024 4.31517 3.61908 0 0 0 3.03266e-11 -5.20661e-11 1.5354e-10 -3.02614e-11 5.37416e-11 -1.32423e-10 -2.16077e-11 -9.67335e-13 6.71482e-12 0.5 2.31133e-11 1.03468e-11 6.59554e-11 -2.6703e-11 -3.84017e-11 7.38882e-11 
383 1 4.36293 4.34454 2.28892 0 0 1 1.64442e-11 -3.05238e-11 1.09404e-10 -2.1696e-11 2.2176e-11 -1.03667e-10 6.55157e-12 -1.54765e-11 -2.69394e-12 0.5 -7.08041e-11 -1.58359e-11 4.38991e-11 7.17667e-11 -2.10076e-11 -3.62827e-11 
992 2 0.695682 0.439322 3.85269 1 1 0 -1.74548e-11 -2.57042e-10 -1.33245e-10 1.76035e-11 2.22053e-10 1.26078e-10 1.26487e-11 3.7678e-11 2.23823e-11 0.5 -9.60166e-11 -2.61146e-10 -6.57362e-11 7.56894e-11 -3.74915e-11 1.38427e-10 
521 2 4.93615 4.52796 3.25037 0 0 0 1.43524e-11 -3.85416e-11 1.2129e-10 -1.7584e-11 3.55072e-11 -1.0504e-10 -1.51811e-11 6.10653e-12 4.32689e-12 0.5 3.96398e-11 -6.39987e-11 -5.97636e-11 6.41495e-12 -1.77954e-11 7.29652e-11 
136 1 1.88498 1.67143 2.62265 0 0 0 -5.85644e-11 -2.23971e-10 -1.128e-10 1.26927e-11 2.06213e-10 9.4404e-11 2.5678e-11 3.56022e-11 2.7659e-11 0.5 -2.19734e-10 -2.25531e-10 -1.41422e-10 1.63043e-10 -2.82839e-11 6.58821e-11 
540 2 4.51129 0.178592 3.415 0 0 0 -2.59395e-11 -6.57074e-11 -7.13166e-11 1.86624e-11 5.90039e-11 6.02009e-11 -2.60601e-11 1.89489e-11 -2.40788e-11 0.5 7.09161e-11 4.42654e-11 1.56685e-11 -4.09449e-11 -2.78017e-11 4.02815e-11 
510 2 3.85504 2.56842 3.17077 0 0 0 -4.1375e-11 -8.82746e-11 5.85571e-11 3.32775e-11 7.37585e-11 -5.34605e-11 7.86143e-12 -7.00832e-12 1.38157e-12 0.5 5.79714e-11 9.09904e-11 -5.66896e-11 2.26565e-11 9.2542e-12 7.64518e-11 
19 1 4.3655 1.84749 2.40882 0 0 0 -4.85792e-11 -3.53244e-12 9.83596e-12 2.85298e-11 6.72309e-12 4.49679e-12 1.73866e-11 5.01325e-12 9.29287e-12 0.5 -2.25582e-10 -8.709e-12 -1.16199e-10 1.3479e-11 1.01545e-10 1.89869e-11 
543 2 1.07326 1.78713 3.19513 0 0 0 -1.97734e-11 -2.39524e-10 -5.4758e-11 2.74028e-11 2.05033e-10 3.26853e-11 4.77167e-11 4.44536e-11 1.71011e-11 0.5 -1.72369e-11 -3.24172e-11 -6.42725e-12 -4.26001e-11 2.81991e-11 1.90966e-11 
773 2 4.78774 2.22773 3.30763 0 0 0 -3.09647e-11 -6.7479e-11 4.97432e-11 1.28382e-11 2.52525e-11 -3.18731e-11 2.05023e-11 1.81851e-11 -1.65631e-11 0.5 1.53035e-11 -1.72934e-10 -3.40786e-10 -2.67108e-11 6.19215e-11 3.52268e-10 
555 2 2.23907 2.5056 3.89852 0 0 0 2.15909e-12 -1.0356e-10 1.03751e-10 -1.36052e-11 6.83398e-11 -6.73523e-11 -1.56846e-11 -3.98542e-12 1.2251e-11 0.5 6.48292e-11 6.17006e-11 6.34041e-11 3.54175e-11 -4.63348e-12 6.88445e-11 
429 1 0.306925 2.40106 3.75655 1 0 0 -8.72708e-11 -2.69608e-10 -4.17132e-11 6.05486e-11 2.43281e-10 6.81264e-12 2.55632e-11 1.17366e-11 4.72953e-11 0.5 -4.4126e-11 -4.20172e-10 -2.24407e-10 9.65756e-11 -6.40583e-11 2.29584e-10 
316 1 0.889712 0.512877 2.86992 1 0 0 -7.59385e-11 -2.5098e-10 -1.44432e-10 6.78089e-11 2.05475e-10 1.19208e-10 2.92932e-11 5.62801e-12 4.03315e-11 0.5 1.53116e-11 -4.12459e-11 -4.25995e-11 1.43059e-11 9.62262e-12 4.38674e-11 
503 2 3.61689 0.768796 2.88623 0 0 0 8.98981e-12 -1.08885e-10 -5.86775e-11 -1.1558e-11 9.70761e-11 6.4908e-11 -4.76912e-12 -1.22591e-11 2.499e-11 0.5 -6.00641e-11 5.46086e-13 -2.223e-10 1.21319e-11 -2.70167e-11 6.6428e-11 
896 2 0.702247 3.66501 2.63024 1 0 0 1.53485e-11 -2.60713e-10 1.07264e-10 -8.57853e-12 2.31045e-10 -8.70674e-11 2.91483e-11 1.58038e-11 -1.1449e-11 0.5 -1.80324e-10 -5.71987e-11 -2.52187e-10 5.56642e-11 -1.0241e-10 8.14538e-11 
690 2 1.93672 4.67095 2.92999 0 0 0 3.33004e-12 -1.53193e-10 1.65104e-10 -2.00156e-12 1.23733e-10 -1.46206e-10 -1.35438e-12 1.27904e-11 4.65013e-11 0.5 -1.78183e-10 -8.78046e-11 -4.10887e-11 1.22089e-10 -4.37315e-12 -1.89739e-11 
641 2 3.45948 3.5005 3.22725 0 0 0 1.62693e-11 -5.50149e-11 1.17738e-10 -2.05613e-11 3.73685e-11 -8.7292e-11 -1.25725e-11 -4.18606e-12 1.69512e-11 0.5 -3.88342e-11 1.65146e-11 -1.20846e-10 4.02874e-11 -6.32821e-11 1.41594e-10 
528 2 3.34275 4.80215 2.44243 0 0 0 3.31445e-11 -1.10558e-10 1.08182e-10 -4.60255e-11 7.71306e-11 -9.12608e-11 -3.64938e-12 3.68688e-12 7.60518e-12 0.5 -6.15508e-12 -1.33253e-11 -5.54709e-11 -1.5511e-11 -1.87427e-11 -2.6266e-11 
225 1 2.66658 2.37982 2.99794 0 0 1 -5.95723e-11 -1.34835e-10 7.33839e-11 3.53479e-11 1.12373e-10 -6.47853e-11 -1.20246e-11 2.73672e-11 9.61493e-12 0.5 -6.58533e-11 -1.58211e-10 -2.37113e-11 9.41858e-11 -4.84879e-11 -2.13088e-12 
119 1 0.614476 2.84343 2.06694 0 0 0 -1.15375e-10 -2.05568e-10 4.72266e-11 1.02292e-10 1.5252e-10 -9.0657e-11 6.56755e-11 9.69835e-12 -5.30525e-13 0.5 2.75302e-11 -8.88841e-11 -1.17855e-10 3.96717e-11 5.18145e-11 2.70277e-11 
94 1 2.46189 3.50067 2.00487 0 0 1 -1.03868e-11 -1.46969e-10 1.55049e-10 2.14091e-12 1.26073e-10 -1.3441e-10 2.45493e-11 -4.47682e-12 9.89014e-12 0.5 3.17592e-11 5.32405e-11 1.64792e-11 4.84193e-11 3.5619e-11 5.50282e-11 
522 2 2.58373 2.50801 2.00903 0 0 0 -2.67492e-11 -1.49709e-10 6.89626e-11 2.69266e-11 1.24542e-10 -7.40364e-11 4.99846e-11 -1.54037e-11 2.2364e-11 0.5 3.25673e-11 2.08278e-11 -5.58853e-11 4.05011e-11 2.99223e-11 2.13558e-11 
200 1 2.46549 0.208501 4.19599 0 1 0 2.94226e-11 -8.52026e-11 -8.75762e-11 -5.63808e-11 7.61815e-11 1.4681e-10 -4.77944e-11 -3.35825e-11 8.6488e-11 0.5 -1.06214e-10 -5.98977e-11 -2.48385e-10 4.42883e-11 7.14894e-11 6.22574e-11 
114 1 4.70709 1.00384 4.17137 0 0 0 -1.76803e-11 -8.87772e-12 -3.13729e-11 -8.28546e-13 1.01126e-11 1.80692e-11 -1.75654e-11 -1.39321e-11 -1.81301e-11 0.5 -7.06376e-11 3.39983e-12 -2.77753e-11 -5.64172e-12 -4.96155e-11 -5.78006e-13 
820 2 1.30996 2.29325 4.21136 1 0 0 -6.24798e-12 -1.8444e-10 3.33276e-11 -5.76442e-12 1.66558e-10 -4.98506e-11 -3.23618e-11 -1.85211e-11 5.334e-11 0.5 4.48805e-11 6.39458e-11 -3.17255e-11 1.7639e-10 2.73868e-11 7.57077e-11 
47 1 4.65574 1.582 5.43553 0 0 0 2.86111e-11 2.69236e-11 7.65333e-12 -2.64489e-11 -2.75876e-11 -3.70435e-12 4.66025e-12 2.89154e-11 1.30782e-11 0.5 -7.41748e-11 -1.32053e-10 -5.33442e-11 -3.07504e-11 -6.40335e-11 1.139e-10 
824 2 1.64908 3.83184 5.79238 1 0 0 1.48548e-11 5.39591e-11 1.70332e-10 -1.38667e-11 -4.40737e-11 -1.38908e-10 -3.6059e-11 6.71141e-12 -1.06316e-11 0.5 -2.06681e-11 -1.96907e-11 -8.25613e-11 -1.22185e-12 -7.15554e-12 3.08526e-11 
172 1 3.44268 0.338821 4.72114 0 1 0 -2.97915e-11 6.66509e-11 -3.10861e-11 3.3797e-11 -4.60627e-11 2.26839e-13 -5.81837e-11 -1.64904e-11 3.20392e-11 0.5 -9.48698e-11 -9.97686e-11 -3.49892e-10 -8.23147e-11 8.19874e-11 1.44103e-10 
718 2 0.202285 2.03673 5.5128 0 1 0 -3.1623e-11 -8.27792e-11 5.67094e-11 3.61264e-11 6.87667e-11 -3.64863e-11 -4.30622e-11 -1.63124e-11 -1.00774e-11 0.5 -1.95351e-10 -4.99249e-11 -1.23773e-10 9.64408e-11 -1.01086e-10 2.55663e-10 
505 2 0.484433 3.5018 5.83385 0 0 -1 -2.17849e-11 5.28643e-11 1.3578e-10 1.19359e-11 -9.90385e-11 -8.6054e-11 7.64725e-12 -2.07528e-11 5.66108e-11 0.5 1.79791e-12 -3.13441e-10 -1.64704e-10 2.11559e-11 -4.66246e-12 2.63886e-10 
524 2 3.99535 2.7352 5.70679 0 0 0 1.11193e-10 1.85582e-10 1.69276e-10 -9.88016e-11 -1.56298e-10 -1.50916e-10 -4.05427e-11 1.17724e-10 5.3829e-11 0.5 4.61362e-12 2.88671e-11 3.59153e-11 -2.61323e-11 -2.92711e-11 3.30216e-11 
839 2 0.579387 1.61472 4.31101 1 0 0 2.96496e-11 -2.43239e-10 -6.23663e-11 -2.4033e-11 2.06693e-10 5.23494e-11 -1.65996e-11 2.47583e-12 4.71722e-11 0.5 -2.13515e-11 -2.6589e-10 -1.67876e-10 1.94128e-10 -2.15862e-11 2.82439e-10 
937 2 2.44361 3.38654 4.3372 1 0 0 2.63327e-11 -8.61528e-11 7.97415e-11 -3.62869e-11 8.73912e-11 -5.86416e-11 -3.3127e-11 -1.75153e-11 4.46369e-11 0.5 1.23229e-10 9.71967e-11 -1.70042e-10 1.41728e-10 -1.35636e-11 7.0931e-11 
811 2 2.60623 3.94632 5.52498 1 0 0 -4.27046e-12 5.74749e-11 1.03903e-10 -1.30496e-15 -4.782e-11 -8.85104e-11 -3.89717e-11 -1.69835e-11 3.80631e-14 0.5 -1.2734e-11 -6.35799e-11 -2.15672e-11 -2.48493e-11 -3.51875e-11 7.12173e-11 
827 2 1.52088 3.18133 4.66349 1 0 0 3.96904e-11 -1.86525e-10 5.77299e-11 -3.76791e-11 1.48697e-10 -4.48494e-12 -5.81382e-11 -2.70309e-11 7.4027e-12 0.5 8.21745e-11 7.16796e-12 -5.91576e-11 3.08763e-11 -1.08721e-11 7.62165e-11 
149 1 4.05563 3.93275 4.61881 0 0 0 -3.96423e-12 3.86636e-11 1.29321e-10 1.54914e-11 -3.83526e-11 -1.18616e-10 -2.40615e-11 9.58438e-12 3.52117e-11 0.5 -6.8139e-11 -6.29925e-11 4.70082e-11 2.17312e-10 -1.42389e-10 5.52273e-11 
925 2 0.623246 3.59905 4.52293 1 0 0 5.75302e-11 -1.56401e-10 2.831e-11 -4.02557e-11 1.29282e-10 -1.92205e-11 -5.39214e-11 2.44796e-11 -7.6422e-12 0.5 5.68292e-11 -8.77509e-11 -2.24614e-11 -2.07822e-11 -1.83606e-11 4.39137e-11 
168 1 3.33522 4.60361 5.33159 0 0 0 6.80949e-12 5.23797e-11 1.32467e-10 -5.49858e-12 -4.94781e-11 -1.12752e-10 -3.63457e-11 -1.84691e-11 3.23218e-11 0.5 -1.05534e-10 -8.33096e-11 -8.49562e-11 4.32927e-11 -6.58503e-11 7.08086e-11 
928 2 1.57471 4.4088 4.9787 1 0 0 2.82339e-11 3.99448e-11 1.6063e-10 -2.1086e-11 -3.19075e-11 -1.33755e-10 -2.30962e-11 1.17105e-11 -1.97411e-11 0.5 -5.10998e-11 -4.72936e-11 -5.58762e-11 -2.09043e-11 4.26749e-12 4.78598e-11 
148 1 3.93983 3.74234 5.7457 0 0 0 -2.33879e-11 1.80258e-10 1.88651e-10 1.82037e-11 -1.52208e-10 -1.60866e-10 -4.8743e-11 -1.42972e-11 8.32674e-11 0.5 5.4674e-11 9.74318e-11 1.34792e-10 7.73527e-11 9.19006e-11 7.82031e-11 
914 2 4.69244 4.38506 5.24423 0 0 0 -6.16014e-11 1.15659e-10 1.33552e-10 5.40937e-11 -9.38009e-11 -1.15666e-10 -7.44068e-11 -1.11954e-11 3.24425e-13 0.5 -5.17128e-12 2.54718e-11 4.18828e-11 9.25201e-12 1.27857e-11 2.6284e-11 
23 1 2.87773 1.11847 4.05716 0 0 0 -2.95687e-11 -5.86127e-11 -7.29259e-11 1.99021e-11 4.87318e-11 6.23384e-11 2.2716e-11 2.96411e-12 2.37473e-11 0.5 -8.48183e-11 -7.78105e-11 -7.12139e-11 -2.4621e-11 4.04713e-11 6.93662e-11 
594 2 2.05586 1.97089 4.80241 0 0 0 2.60102e-11 1.71408e-11 9.14869e-11 -3.19442e-11 -1.55092e-11 -8.02226e-11 2.11159e-11 -2.28154e-11 6.83598e-11 0.5 6.23473e-12 -1.10527e-10 -2.35635e-11 9.55304e-11 -4.78822e-11 7.09776e-11 
539 2 3.78455 1.04074 5.46912 0 0 0 -1.18731e-12 1.38445e-10 3.11759e-11 1.16835e-11 -1.13937e-10 -3.27954e-11 -2.25752e-11 4.15075e-11 -8.08448e-12 0.5 -3.91802e-11 -3.86446e-10 -1.67049e-10 -1.17249e-10 -1.05126e-10 3.26089e-10 
730 2 0.461765 1.11568 5.16957 0 1 0 -1.87306e-11 -8.93839e-11 2.22043e-11 1.20129e-11 7.2313e-11 7.35787e-12 -1.88875e-11 -1.07682e-11 6.50854e-11 0.5 1.0063e-10 -3.39172e-11 -1.00413e-10 2.47593e-11 -2.58119e-11 1.88654e-10 
689 2 3.51933 0.103669 5.69619 0 1 0 -2.89746e-11 1.30232e-10 -3.37525e-11 1.59625e-11 -1.19899e-10 7.29525e-12 -1.46259e-11 -1.03578e-11 1.68445e-12 0.5 -1.55348e-10 -4.66688e-10 -3.86075e-10 -5.15377e-11 1.33175e-11 3.44592e-10 
450 1 0.619288 4.79871 4.46892 1 0 0 1.44388e-10 -1.12037e-10 1.17949e-10 -1.26635e-10 1.05343e-10 -1.20981e-10 -1.01617e-10 -2.44421e-11 1.91374e-11 0.5 -4.74979e-11 -1.3705e-10 -3.03244e-10 1.36691e-11 -5.29817e-11 1.66101e-10 
549 2 4.49944 0.500888 5.01435 0 0 0 -7.7086e-11 4.95257e-11 -9.14135e-12 6.82932e-11 -3.66261e-11 8.40096e-12 -1.55878e-11 1.41382e-11 -3.97393e-11 0.5 1.30765e-10 1.58993e-10 6.6769e-11 -7.71844e-11 -3.83245e-11 7.96731e-11 
591 2 1.44655 1.12499 4.40334 0 0 0 6.27042e-11 -1.89402e-10 -1.09332e-10 -4.41722e-11 1.66623e-10 9.84462e-11 -2.83183e-11 3.42577e-11 2.87134e-12 0.5 -1.11708e-10 -1.66818e-10 -1.25855e-10 4.39351e-11 1.37316e-11 1.23248e-10 
243 1 1.20287 1.83742 5.34381 0 1 0 -4.18742e-11 -1.33049e-11 3.05135e-12 -6.1326e-11 6.04058e-11 -2.4409e-11 -1.75329e-11 -1.03166e-11 3.52092e-11 0.5 -8.38281e-11 -5.54964e-11 -1.91614e-11 1.03371e-10 -6.30579e-11 9.03292e-11 