ITEM: TIMESTEP
191500
ITEM: NUMBER OF ATOMS
1000
ITEM: BOX BOUNDS xy xz yz pp pp pp
0.0000000000000000e+00 1.0000000000000000e+01 0.0000000000000000e+00
0.0000000000000000e+00 1.0000000000000000e+01 0.0000000000000000e+00
0.0000000000000000e+00 1.0000000000000000e+01 0.0000000000000000e+00
ITEM: ATOMS id type x y z ix iy iz vx vy vz fx fy fz omegax omegay omegaz radius c_2[1] c_2[2] c_2[3] c_2[4] c_2[5] c_2[6] 
120 1 3.15852 1.54146 0.0722925 0 1 0 -5.22344e-09 1.46021e-08 9.63746e-09 4.74134e-09 -1.24875e-08 -8.45496e-09 8.73809e-09 1.26162e-09 -5.24725e-09 0.5 -7.31001e-09 -3.84894e-08 -3.54517e-09 -4.23162e-09 -1.87088e-09 -9.22135e-09 
525 2 2.11627 1.23431 1.69988 0 0 0 -1.27707e-08 -3.39549e-08 -2.37311e-08 1.05946e-08 2.89466e-08 2.08935e-08 -3.47851e-09 2.1442e-09 1.04531e-08 0.5 5.66444e-10 -2.3507e-09 1.37575e-09 2.95151e-09 1.4288e-09 -8.94762e-10 
371 1 4.95931 3.68326 1.58374 0 0 1 7.55384e-09 -1.37083e-08 2.10819e-08 -6.47231e-09 1.22115e-08 -1.85108e-08 1.68353e-09 -1.1303e-09 1.04398e-09 0.5 -4.59456e-09 -1.97636e-08 1.30314e-08 -2.33086e-09 -2.37372e-09 2.5907e-09 
18 1 1.98117 2.69195 0.532518 0 0 0 -6.38318e-09 -5.08807e-10 2.31225e-08 5.26502e-09 3.94966e-10 -1.98914e-08 1.44736e-08 -4.89133e-09 4.58667e-09 0.5 -1.17277e-08 -2.8357e-08 -1.68058e-08 2.2834e-08 1.04256e-08 -1.29933e-08 
868 2 2.87004 3.00634 0.0289121 0 0 1 3.92072e-09 -2.92757e-09 2.01441e-08 -3.07931e-09 2.51586e-09 -1.75535e-08 1.23212e-08 -2.28884e-09 5.1412e-09 0.5 -1.86892e-08 -2.95419e-08 -6.66685e-09 2.1956e-08 -5.90691e-10 1.36526e-09 
25 1 1.41548 0.708705 1.0832 0 0 0 -5.17126e-09 -1.15712e-08 -2.42907e-08 4.38296e-09 9.60363e-09 2.1538e-08 1.02701e-08 -2.68408e-09 6.16514e-09 0.5 -8.81735e-09 -6.15535e-08 -3.40223e-08 2.19748e-08 1.70847e-08 -2.70708e-08 
378 1 4.61919 2.40719 0.0725815 0 0 1 1.28218e-09 9.34632e-09 1.57675e-08 -9.83139e-10 -7.72823e-09 -1.39046e-08 1.3809e-08 3.52204e-09 -2.68117e-09 0.5 -7.85885e-09 -2.07234e-08 -1.17917e-08 -2.23432e-09 -2.62348e-09 -1.61072e-08 
8 1 3.44143 2.06796 1.74253 0 0 0 -5.68408e-10 -1.57461e-08 6.50193e-09 3.44404e-10 1.36913e-08 -5.83831e-09 1.16852e-08 -3.0991e-09 2.34696e-09 0.5 4.31409e-09 1.31252e-09 5.31903e-09 4.67432e-09 -2.69553e-10 3.99706e-09 
629 2 4.07713 2.6156 1.19812 0 0 1 4.01661e-09 -7.83663e-09 1.96844e-08 -3.57429e-09 6.97477e-09 -1.70811e-08 1.33281e-08 -3.44506e-09 3.31252e-10 0.5 -2.13737e-08 -5.62804e-09 -1.89768e-08 3.01168e-09 -1.38499e-08 -7.50608e-09 
5 1 2.34651 3.9005 1.05345 0 0 0 -2.53519e-09 -2.63927e-08 2.66233e-08 2.34529e-09 2.28342e-08 -2.29513e-08 8.88277e-10 1.85626e-09 5.45054e-09 0.5 -1.8574e-09 -3.0536e-09 -4.41226e-09 3.71108e-09 1.11138e-09 -9.78247e-10 
650 2 0.459129 3.43666 1.12967 0 0 0 -1.57634e-08 -2.69368e-08 4.2129e-09 1.3505e-08 2.27811e-08 -3.07903e-09 1.54971e-08 1.64077e-09 1.95694e-10 0.5 -2.15729e-08 -2.45614e-08 -2.61818e-08 1.74621e-08 1.81346e-08 -1.1718e-08 
14 1 3.29515 3.13364 1.54473 0 0 0 1.13993e-09 -1.36426e-08 2.18821e-08 -1.01431e-09 1.21226e-08 -1.89919e-08 3.94068e-09 2.72842e-09 1.75821e-09 0.5 -1.74432e-09 -5.82338e-09 -1.08905e-08 8.48581e-09 -1.25534e-09 -5.40422e-09 
264 1 3.99643 3.86789 1.37953 0 0 0 7.23393e-09 -1.56576e-08 2.12648e-08 -6.20793e-09 1.38783e-08 -1.8612e-08 6.14354e-09 1.40474e-09 9.49879e-10 0.5 -5.69204e-09 -6.2512e-11 -1.10967e-08 7.32928e-09 7.30563e-10 -1.95715e-09 
223 1 0.747634 2.47805 1.14565 0 0 1 -1.60285e-08 -2.66144e-08 4.1475e-09 1.35854e-08 2.24524e-08 -3.1717e-09 1.56394e-08 -6.17647e-09 2.3088e-09 0.5 -1.08729e-08 -2.70434e-08 -6.32448e-08 9.09304e-09 2.53432e-08 -1.58354e-08 
364 1 4.4227 4.23693 0.53984 0 0 1 2.37738e-09 6.65895e-09 2.84877e-08 -1.5685e-09 -5.5681e-09 -2.47728e-08 8.03029e-09 -8.76058e-10 3.73409e-09 0.5 3.97687e-10 2.59039e-09 3.35471e-10 1.01182e-09 4.43502e-09 -3.85387e-09 
107 1 1.66076 1.61825 0.747451 0 0 1 -1.20671e-08 -5.05806e-09 -1.13022e-08 1.0156e-08 4.01874e-09 1.03109e-08 1.58406e-08 -1.16686e-09 1.82827e-09 0.5 1.1211e-08 -1.41918e-08 -1.40567e-08 -6.79908e-10 1.11269e-10 -9.10517e-09 
529 2 2.67265 2.1996 1.06195 0 0 0 4.78194e-11 -9.19419e-09 6.46237e-09 -3.65435e-10 7.82938e-09 -5.49449e-09 1.44006e-08 2.77577e-10 3.83765e-09 0.5 -4.43133e-09 -1.03525e-08 -1.21505e-08 7.55703e-09 -4.29707e-09 2.52715e-09 
515 2 4.38643 0.435908 1.64385 0 0 0 1.81618e-09 -1.65693e-08 -1.04863e-08 -1.50292e-09 1.44388e-08 8.69357e-09 8.73072e-09 -7.26659e-10 1.99115e-09 0.5 -2.45169e-09 -9.04017e-09 -1.87702e-08 -1.65296e-08 1.22997e-09 3.67237e-09 
244 1 4.11373 0.570462 0.682724 0 1 1 2.16465e-09 4.35617e-09 -7.04726e-09 -1.78993e-09 -3.43382e-09 5.7458e-09 1.26461e-08 3.87526e-09 2.33708e-10 0.5 -6.38823e-09 -5.64941e-09 -1.79195e-08 -1.32781e-09 4.00135e-09 2.546e-09 
20 1 2.90179 0.570818 1.78382 0 0 0 9.5714e-10 -1.51709e-08 -1.31622e-08 -8.84978e-10 1.30776e-08 1.12094e-08 5.7573e-09 -3.71571e-09 3.10629e-09 0.5 -1.02867e-08 -2.37205e-08 -3.51996e-08 8.43815e-09 1.57248e-08 -2.0882e-08 
280 1 4.09077 1.582 1.14626 0 0 0 1.88149e-09 -4.92165e-09 6.4424e-10 -1.7505e-09 4.46263e-09 -8.85782e-10 1.3408e-08 -1.3595e-09 2.97777e-10 0.5 -5.69627e-09 -8.21584e-09 -2.37675e-08 1.98866e-09 1.38444e-08 4.99509e-09 
620 2 1.3946 4.37082 0.857654 0 0 1 1.80139e-10 -1.7529e-08 2.04392e-08 4.40285e-10 1.50689e-08 -1.72169e-08 1.08302e-08 6.92152e-09 -5.39478e-09 0.5 -5.70435e-09 -2.67012e-08 -3.92599e-08 3.91356e-10 -3.05769e-09 4.2392e-09 
1000 2 3.60332 2.39824 0.339819 0 1 1 1.11432e-08 3.89773e-09 1.44289e-08 -9.20767e-09 -3.29813e-09 -1.27615e-08 9.82194e-09 -6.36078e-10 -3.63716e-10 0.5 -1.62686e-08 -2.91503e-08 -1.75789e-08 -1.77678e-09 -1.39877e-08 -4.51762e-09 
103 1 3.28431 3.68319 0.698947 0 0 1 5.46089e-10 -7.78438e-09 2.63009e-08 -3.61418e-10 6.78452e-09 -2.29437e-08 7.95451e-09 5.13199e-10 4.13706e-09 0.5 -5.86446e-09 -5.13468e-09 -8.29035e-09 5.76208e-09 1.01409e-09 -1.27259e-09 
622 2 0.930663 4.80385 0.0848388 0 0 1 -1.81605e-10 -9.21776e-10 2.99557e-08 7.10769e-10 6.7559e-10 -2.54495e-08 1.44449e-08 -1.29382e-09 -1.72701e-09 0.5 -3.12389e-10 2.80214e-09 -1.81906e-08 -1.73159e-09 -7.78835e-09 4.11504e-09 
506 2 0.74356 1.4513 1.18235 0 0 0 -1.74131e-08 -2.71111e-08 -2.10011e-08 1.4833e-08 2.29098e-08 1.87053e-08 1.23734e-08 -2.29937e-09 8.12471e-09 0.5 5.0889e-09 -3.62442e-08 -5.78081e-09 4.19164e-08 8.89868e-09 -2.23411e-08 
626 2 1.28815 3.41645 0.566227 0 0 1 -1.54845e-08 -1.0233e-08 5.22111e-09 1.32138e-08 8.8413e-09 -4.04295e-09 7.70423e-09 -4.87053e-09 1.95856e-09 0.5 -2.0673e-08 -3.00674e-08 -5.68879e-09 1.6375e-08 1.38e-08 -8.87133e-09 
553 2 0.744043 0.0774004 1.56305 0 0 0 -3.1297e-09 -2.0385e-08 -3.149e-08 2.53025e-09 1.72874e-08 2.79639e-08 1.16228e-09 -6.4964e-09 1.00041e-08 0.5 3.78984e-09 1.91829e-09 3.02668e-09 3.27494e-10 1.62331e-09 -4.85943e-09 
135 1 1.54769 3.20472 1.67709 0 0 0 5.96022e-09 -2.60704e-08 2.36785e-09 -5.32826e-09 2.22823e-08 -1.65458e-09 8.70904e-09 -1.22009e-08 -2.87414e-09 0.5 1.4062e-09 -5.49603e-08 -1.08101e-08 1.36894e-08 5.65317e-09 -3.39142e-10 
624 2 4.32461 4.92098 1.47156 0 0 1 1.08291e-08 -4.81084e-09 2.18695e-08 -8.80654e-09 4.73017e-09 -1.92319e-08 5.62262e-09 1.30516e-10 3.31893e-09 0.5 5.05907e-09 3.96801e-09 -1.41218e-08 4.92154e-09 -9.42422e-09 -1.12373e-08 
256 1 4.58719 1.36786 0.305 0 0 0 2.80932e-09 6.46798e-09 -1.71413e-09 -2.45196e-09 -5.17368e-09 1.14874e-09 1.33533e-08 2.61766e-09 -4.11074e-09 0.5 -3.40964e-09 -1.22499e-08 -1.67644e-08 -7.79324e-09 2.07359e-09 -1.74596e-08 
260 1 3.31854 0.0700552 1.02517 0 0 0 4.9991e-09 -6.66851e-09 -1.6567e-08 -4.02812e-09 5.92779e-09 1.42056e-08 5.7461e-09 6.49789e-09 -7.311e-11 0.5 -7.41751e-09 -2.27017e-08 -2.53856e-08 -5.54335e-10 4.17565e-09 -1.53043e-08 
616 2 3.19106 4.4806 1.50664 0 0 1 5.71309e-09 -2.16617e-08 2.08161e-08 -5.08028e-09 1.88501e-08 -1.82965e-08 -1.22899e-09 2.27864e-09 3.53543e-09 0.5 -1.00555e-08 -4.00325e-09 -4.49253e-09 6.09053e-09 1.10472e-09 -2.62372e-09 
106 1 1.74522 2.23558 1.52961 0 0 1 2.34036e-10 -2.76817e-08 5.23205e-09 -5.29676e-10 2.36284e-08 -4.02352e-09 1.1333e-08 -4.2889e-09 -2.68166e-09 0.5 6.74816e-09 -2.90878e-08 -9.17286e-09 8.59865e-09 8.89237e-09 -1.09321e-08 
157 1 1.3897 4.17879 1.83903 0 0 0 7.7643e-09 -2.84246e-08 1.83526e-08 -6.61143e-09 2.43711e-08 -1.54498e-08 1.08043e-08 1.88447e-09 1.34476e-09 0.5 -1.21577e-08 -4.1379e-08 -4.37189e-08 9.32195e-09 1.4341e-08 -8.23722e-09 
516 2 2.34691 0.89043 0.68796 0 0 0 -2.67815e-09 3.49814e-09 -7.19265e-09 2.13861e-09 -3.2984e-09 6.45341e-09 1.30778e-09 -4.19882e-09 1.93249e-10 0.5 2.55105e-09 -1.14833e-08 -3.36545e-09 2.66004e-09 7.70995e-09 -1.08197e-08 
183 1 0.415258 4.58221 1.00381 0 0 0 1.88881e-09 -2.48225e-08 4.31226e-08 -9.71464e-10 2.13315e-08 -3.64382e-08 2.12873e-08 1.08353e-08 1.24606e-09 0.5 4.58669e-10 -1.38855e-09 2.36713e-09 1.86132e-09 -3.07888e-09 2.27814e-09 
625 2 0.399951 3.91216 0.210014 0 0 1 -5.91891e-09 1.05906e-09 2.07737e-08 5.56105e-09 -1.00142e-09 -1.72102e-08 2.05281e-08 -1.72024e-09 -8.7447e-09 0.5 -8.8801e-10 1.34487e-10 -4.00098e-09 -9.632e-10 -1.62153e-09 3.77211e-09 
91 1 2.22066 4.71676 1.69645 0 0 1 6.93789e-09 -2.57941e-08 2.44341e-08 -6.08038e-09 2.23056e-08 -2.10082e-08 6.81001e-10 4.48e-10 7.40507e-10 0.5 -1.1288e-08 -7.34933e-09 -3.15433e-09 -2.62197e-09 2.26842e-09 -2.52847e-09 
257 1 4.94043 2.69123 1.70827 0 0 0 4.36963e-09 -1.42041e-08 1.66759e-08 -3.8276e-09 1.26486e-08 -1.46334e-08 5.56734e-09 1.56439e-10 -1.94962e-09 0.5 -2.43483e-08 -1.69611e-08 -4.2359e-08 1.82186e-09 -1.40184e-08 -8.0926e-09 
4 1 3.72174 1.12777 1.95711 0 0 0 1.42484e-09 -1.8135e-08 -6.95857e-09 -1.24954e-09 1.57396e-08 5.64564e-09 8.76887e-09 -7.52934e-10 7.10917e-10 0.5 -3.63172e-09 -6.36063e-09 -3.05955e-08 -5.7306e-09 5.3815e-09 1.50781e-08 
609 2 1.99624 4.76004 0.136921 0 0 1 1.2908e-09 -9.61481e-09 2.9569e-08 -7.64415e-10 8.27091e-09 -2.54728e-08 4.50051e-09 -3.27612e-09 4.66293e-09 0.5 -4.87505e-08 -1.49738e-07 -2.10812e-08 4.19894e-08 1.07206e-08 -3.18678e-08 
117 1 3.12746 1.31374 1.15363 0 1 0 2.92662e-09 -8.91501e-09 -5.08375e-09 -2.58738e-09 7.68346e-09 4.22717e-09 1.14352e-08 -5.32033e-10 6.58709e-10 0.5 1.78195e-09 -8.18455e-09 -1.2458e-09 4.4621e-09 7.64799e-10 6.17066e-09 
511 2 1.08079 2.25054 0.230642 0 0 0 -5.9652e-09 9.1519e-09 -1.09891e-09 5.03504e-09 -8.23394e-09 1.36277e-09 1.99269e-08 -4.30214e-09 -4.00582e-09 0.5 -8.21134e-09 -2.47517e-08 -5.71481e-08 5.21376e-09 2.41247e-08 -1.59636e-08 
911 2 0.492018 0.563612 0.697612 1 0 0 -4.08207e-09 -1.48594e-08 -2.97039e-08 3.44727e-09 1.22428e-08 2.62923e-08 2.35281e-09 -4.02407e-09 9.26506e-10 0.5 6.3709e-09 -2.72532e-08 -3.05469e-11 -2.74554e-09 2.25445e-09 -1.08569e-08 
668 2 0.00216515 3.81975 1.93315 0 0 0 -3.35458e-09 -4.83211e-08 2.07796e-08 2.57591e-09 4.11114e-08 -1.74405e-08 5.10044e-09 4.03364e-09 -4.23848e-09 0.5 -3.81486e-08 -9.30389e-08 -3.91267e-08 2.81267e-08 -1.05424e-08 -1.09294e-09 
90 1 2.93989 4.58015 0.420403 0 0 1 8.57564e-10 -5.93285e-09 3.19557e-08 -2.21899e-10 5.28478e-09 -2.79721e-08 4.76051e-09 -1.29056e-09 5.51044e-09 0.5 -1.08566e-08 1.1222e-08 -2.16479e-09 2.04244e-08 1.10355e-08 4.18581e-09 
734 2 4.13742 3.24508 0.37494 0 1 1 6.60771e-09 6.08768e-09 2.78838e-08 -5.5697e-09 -5.00823e-09 -2.43478e-08 1.25854e-08 1.60319e-09 1.77937e-09 0.5 -1.00667e-08 -7.01384e-09 -7.60568e-10 6.32873e-09 3.91399e-09 -5.41445e-09 
672 2 0.0675425 1.98557 1.68985 0 0 0 -2.06635e-08 -3.87701e-08 -1.30289e-08 1.76662e-08 3.30004e-08 1.18211e-08 1.30873e-08 -2.49684e-09 4.58129e-09 0.5 -4.48792e-08 -9.19084e-08 -3.45146e-08 3.57794e-08 2.47888e-08 9.41427e-11 
759 2 4.95866 2.03867 0.950748 0 0 0 3.90139e-09 -5.21741e-09 8.91823e-09 -3.54375e-09 4.86252e-09 -7.91275e-09 1.16201e-08 -1.80536e-09 -3.13065e-09 0.5 -2.57078e-09 -3.06879e-08 -1.43687e-08 -4.96138e-09 -2.46113e-09 -3.63588e-09 
21 1 1.84566 0.35675 2.43115 0 0 0 -5.98569e-09 -2.77232e-08 -2.28359e-08 5.22105e-09 2.38419e-08 1.99318e-08 5.46862e-09 -5.33717e-09 8.33908e-09 0.5 3.43627e-10 -8.05668e-10 -3.9915e-10 1.37656e-09 9.48623e-10 -2.73221e-09 
682 2 2.73058 4.0836 2.7725 0 0 0 5.19655e-09 -1.79459e-08 1.90561e-08 -4.56267e-09 1.55708e-08 -1.65378e-08 -2.63714e-10 8.53909e-10 2.3023e-09 0.5 -2.71931e-08 -1.71533e-08 -3.60551e-09 1.69813e-08 1.2062e-08 2.06502e-08 
907 2 0.982097 4.62503 2.63573 1 0 0 3.56619e-09 -3.99141e-08 2.26558e-08 -3.33796e-09 3.38907e-08 -1.9123e-08 1.82167e-09 -3.96766e-09 2.22418e-09 0.5 -2.96624e-08 -3.59732e-08 -4.07564e-08 1.40357e-08 1.75994e-08 -1.27805e-08 
144 1 1.68507 3.60062 2.81087 0 0 0 6.31765e-09 -3.44295e-08 4.07665e-09 -5.69284e-09 2.94175e-08 -3.394e-09 -8.47942e-10 2.43868e-09 5.62471e-10 0.5 -1.88122e-08 -5.12911e-09 -7.77367e-09 1.12479e-08 -4.19819e-09 6.96209e-11 
675 2 2.83107 4.7385 3.54541 0 0 0 2.06732e-10 -1.20049e-08 1.92602e-08 -8.13886e-10 1.07082e-08 -1.67886e-08 -4.42761e-09 3.09587e-09 -5.96793e-10 0.5 1.33389e-09 6.17897e-09 1.23107e-08 5.9309e-09 -2.46558e-09 1.08077e-08 
502 2 4.38953 1.31124 3.26921 0 0 0 -2.05834e-09 -1.28634e-08 -5.56386e-09 1.28963e-09 1.15377e-08 4.45145e-09 2.11738e-09 3.82974e-10 -1.20374e-09 0.5 -2.09106e-08 -1.05147e-08 -1.34369e-08 -1.07189e-08 1.01255e-08 2.19806e-08 
27 1 2.60908 0.300739 3.21066 0 0 0 -1.02125e-09 -2.21777e-08 -1.56228e-08 4.74718e-10 1.9017e-08 1.33523e-08 -6.89712e-11 -3.29301e-09 4.04859e-09 0.5 -1.91098e-08 -2.41643e-08 -4.54463e-08 9.5973e-09 1.53338e-08 3.86572e-09 
965 2 1.35576 3.65812 3.79896 1 0 0 9.08698e-09 -4.1222e-08 9.58477e-10 -8.00465e-09 3.4992e-08 -5.81306e-10 -2.46586e-09 6.76684e-09 -5.54723e-09 0.5 -7.89133e-09 -2.39232e-08 -2.63177e-08 1.38849e-08 -8.9528e-09 1.62981e-08 
61 1 1.66165 0.448609 3.51352 0 0 0 -6.82811e-09 -3.52311e-08 -3.00158e-08 5.56827e-09 2.98289e-08 2.62834e-08 9.9912e-10 -1.28215e-09 6.583e-09 0.5 -1.34601e-08 -5.88035e-10 -2.70908e-09 3.28643e-09 8.88268e-09 -1.00717e-09 
680 2 1.1901 2.78151 3.34693 0 0 0 -8.1037e-09 -3.7369e-08 -1.00784e-10 6.67173e-09 3.16811e-08 3.72177e-10 1.57296e-09 3.62406e-09 -9.18298e-10 0.5 5.34941e-10 -7.99572e-09 -1.21367e-08 1.85682e-09 5.11178e-09 3.59606e-09 
251 1 4.71421 3.03382 3.89556 0 0 0 1.02324e-08 -1.64822e-08 1.64351e-08 -9.25592e-09 1.46205e-08 -1.44895e-08 6.90956e-09 5.11829e-09 -7.5615e-09 0.5 -2.39812e-08 -4.75742e-09 8.95658e-10 -1.66864e-08 7.59962e-09 1.42218e-08 
517 2 4.0089 2.89361 2.21821 0 0 0 5.95715e-09 -1.52502e-08 1.56172e-08 -5.10118e-09 1.37026e-08 -1.36382e-08 2.8376e-09 5.29512e-10 -1.14909e-09 0.5 -2.49468e-10 -2.26921e-10 -8.04235e-09 -2.30358e-10 -1.69751e-09 4.06593e-09 
6 1 3.42179 1.77987 2.73262 0 0 0 -3.02986e-09 -1.45128e-08 7.94983e-09 2.22193e-09 1.26271e-08 -7.09572e-09 8.25715e-09 -1.17749e-09 5.36202e-09 0.5 -2.54851e-08 5.4031e-09 3.73829e-09 1.04964e-08 1.19785e-08 7.68017e-09 
519 2 4.43345 3.61408 3.03093 0 0 0 3.67092e-09 -1.00763e-08 2.36118e-08 -3.31342e-09 9.26407e-09 -2.06968e-08 2.82684e-09 1.92278e-09 -9.29285e-10 0.5 1.40788e-09 1.32685e-08 9.1158e-09 -9.27971e-09 -3.58368e-09 6.9875e-09 
509 2 1.93621 1.51608 3.62332 0 0 0 7.2617e-09 -3.24305e-08 -2.53746e-08 -6.63993e-09 2.73654e-08 2.23215e-08 -2.1201e-09 1.09388e-08 -1.28906e-10 0.5 3.17163e-09 -3.61062e-09 -2.83647e-08 -3.55649e-09 6.11943e-09 8.03368e-09 
142 1 1.03537 1.94217 2.17003 0 0 0 -1.22299e-08 -3.1044e-08 -1.01131e-08 1.02152e-08 2.63705e-08 9.14317e-09 1.13854e-08 1.55155e-10 2.15813e-09 0.5 -6.3744e-10 -5.71094e-09 -7.14497e-09 8.8974e-09 -3.6635e-09 8.57216e-09 
941 2 0.192203 2.2584 2.77344 1 0 0 -1.70491e-08 -4.51642e-08 -8.38709e-09 1.4443e-08 3.8558e-08 7.68793e-09 6.87217e-09 8.86425e-10 1.81442e-09 0.5 -5.71363e-09 -1.84725e-08 -2.57703e-08 8.31177e-10 3.40684e-09 2.04769e-09 
919 2 0.650389 4.31552 3.53385 1 0 0 3.78445e-11 -4.40769e-08 1.79267e-08 -2.44759e-10 3.74795e-08 -1.50266e-08 5.96061e-09 2.3131e-09 -7.03484e-09 0.5 -1.81428e-08 -3.18569e-08 -1.854e-08 1.78888e-08 -2.57553e-10 1.14339e-08 
95 1 3.53903 3.77814 2.2694 0 0 1 7.45515e-09 -1.47164e-08 2.07155e-08 -6.45414e-09 1.32212e-08 -1.81331e-08 4.40485e-10 2.80941e-10 1.04021e-09 0.5 -1.2848e-08 -4.25647e-09 -2.32797e-08 2.55586e-09 7.62592e-09 -3.01135e-09 
458 1 1.5569 4.7536 3.86468 1 0 0 2.53876e-09 -3.02307e-08 2.62821e-08 -2.57183e-09 2.56005e-08 -2.25661e-08 -5.6963e-09 1.25616e-09 1.86655e-09 0.5 -1.20764e-08 -7.45527e-09 -7.15287e-09 9.96327e-09 -2.03459e-09 -3.69448e-10 
41 1 1.14045 0.960462 2.01108 0 0 0 -8.55005e-09 -2.88748e-08 -2.05884e-08 7.09321e-09 2.44892e-08 1.82837e-08 9.99105e-09 -1.46185e-09 5.0802e-09 0.5 -9.57282e-09 -8.20808e-09 -2.30783e-08 5.55217e-09 1.47184e-08 -8.04454e-09 
814 2 0.27112 1.22753 3.40348 1 0 0 -2.21579e-09 -3.69942e-08 -1.75273e-08 1.52952e-09 3.13965e-08 1.57189e-08 5.43135e-09 -3.38379e-09 1.02546e-08 0.5 -1.97642e-08 -2.04325e-08 -2.391e-08 7.96803e-09 1.72778e-08 2.5296e-08 
130 1 1.70518 2.6475 2.50033 0 0 0 -9.25979e-09 -3.28228e-08 -1.5281e-09 7.78443e-09 2.79679e-08 1.60565e-09 9.11915e-09 -3.65577e-09 -4.09131e-09 0.5 -6.33487e-09 -2.55025e-08 -2.25282e-08 1.26484e-08 8.63489e-09 1.63173e-08 
12 1 2.70258 1.09575 2.61132 0 0 0 3.98413e-09 -1.8671e-08 -1.02028e-08 -3.63349e-09 1.597e-08 8.69612e-09 5.4465e-09 -6.87206e-09 5.70122e-09 0.5 -2.98664e-08 -3.66061e-08 -2.55418e-08 1.95733e-08 1.23156e-08 9.30598e-10 
512 2 3.18635 2.03167 3.78747 0 0 0 3.64554e-09 -4.53269e-09 9.80047e-09 -3.71545e-09 3.81054e-09 -8.29215e-09 6.56325e-09 -1.67567e-09 4.46248e-09 0.5 -6.96227e-09 -1.3742e-08 -1.19372e-08 2.53739e-09 -2.49251e-09 1.44722e-08 
151 1 2.47925 3.30049 3.34132 0 0 0 4.36877e-09 -2.12785e-08 1.41151e-08 -3.79259e-09 1.85044e-08 -1.21596e-08 -2.16388e-09 -2.28277e-09 1.49201e-09 0.5 -8.63106e-09 -3.39503e-08 -3.12756e-08 7.37817e-09 7.70755e-09 9.28472e-09 
667 2 0.284319 1.3208 2.4071 0 0 0 -8.61242e-09 -3.83132e-08 -1.7351e-08 7.17555e-09 3.26016e-08 1.55741e-08 6.6437e-09 1.99222e-09 5.8794e-09 0.5 -1.14307e-08 -5.26206e-08 -4.05184e-08 2.88244e-09 -1.90106e-10 5.54762e-09 
38 1 3.79042 0.738149 3.87284 0 0 0 1.7879e-09 -3.00213e-09 -7.78518e-09 -2.11986e-09 2.83094e-09 6.43143e-09 -7.0236e-09 -1.8677e-09 3.8885e-10 0.5 -2.001e-08 -6.52518e-09 -4.99829e-08 -2.25231e-08 1.18425e-08 3.62691e-08 
936 2 0.319906 3.36948 3.50683 1 0 0 -1.57192e-08 -3.80413e-08 6.51332e-09 1.32507e-08 3.2308e-08 -5.10469e-09 6.55483e-09 -5.63372e-09 -3.89511e-09 0.5 1.65803e-09 -3.86673e-08 -1.57864e-08 5.7017e-10 1.84802e-08 2.51087e-08 
531 2 4.80013 0.808197 2.48028 0 0 0 -7.15476e-09 -2.18173e-08 -4.99451e-09 5.8569e-09 1.92821e-08 3.99286e-09 6.70381e-10 -6.72496e-10 -3.51191e-09 0.5 -7.00381e-09 5.51095e-10 -1.45326e-08 -8.65142e-09 -1.35911e-08 -7.1828e-09 
527 2 4.03024 4.31517 3.61908 0 0 0 6.82511e-09 -1.0738e-08 2.68609e-08 -6.25609e-09 9.66259e-09 -2.34432e-08 -3.43536e-09 -4.02888e-11 1.21393e-09 0.5 -3.72061e-09 1.94139e-09 9.76795e-09 -8.01612e-09 -2.97634e-09 1.3874e-08 
383 1 4.36293 4.34454 2.28892 0 0 1 2.63322e-09 -7.6878e-09 2.03412e-08 -2.2765e-09 7.10541e-09 -1.79653e-08 1.10746e-09 -1.83868e-09 3.21456e-10 0.5 -1.27655e-08 -2.50942e-09 6.67315e-09 1.06844e-08 -2.93779e-09 -5.51733e-09 
992 2 0.695682 0.439322 3.85269 1 1 0 -8.73228e-10 -3.91655e-08 -2.42885e-08 3.80965e-10 3.31741e-08 2.13759e-08 1.26381e-09 6.05368e-09 3.8862e-09 0.5 -1.61855e-08 -3.97268e-08 -8.81303e-09 1.1696e-08 -5.57504e-09 2.05222e-08 
521 2 4.93615 4.52796 3.25037 0 0 0 4.26275e-09 -8.04362e-09 2.21897e-08 -4.05183e-09 7.26838e-09 -1.95234e-08 -2.52074e-09 1.67596e-09 1.35322e-09 0.5 2.28687e-09 -9.93348e-09 -1.10278e-08 -6.82824e-10 -1.63137e-09 1.36787e-08 
136 1 1.88498 1.67143 2.62265 0 0 0 -7.66265e-09 -3.49807e-08 -2.10313e-08 6.26929e-09 2.98274e-08 1.86094e-08 3.79126e-09 5.55993e-09 4.11896e-09 0.5 -3.45828e-08 -3.61721e-08 -2.38009e-08 2.47745e-08 -2.91688e-09 1.0639e-08 
540 2 4.51129 0.178592 3.415 0 0 0 -1.76313e-09 -1.34676e-08 -9.12567e-09 1.05378e-09 1.21321e-08 7.39305e-09 -6.18841e-09 3.11839e-09 -4.22509e-09 0.5 1.06874e-08 6.91284e-09 1.54633e-09 -6.65924e-09 -4.53764e-09 6.46996e-09 
510 2 3.85504 2.56842 3.17077 0 0 0 -3.95535e-09 -1.58542e-08 1.18475e-08 2.88744e-09 1.39338e-08 -1.0599e-08 1.39187e-09 -6.71518e-10 2.22442e-10 0.5 1.00883e-08 1.44271e-08 -8.84884e-09 2.3783e-09 1.61743e-09 1.21657e-08 
19 1 4.3655 1.84749 2.40882 0 0 0 -5.25003e-09 -2.23211e-09 4.0215e-09 4.03076e-09 2.21958e-09 -3.90271e-09 3.52577e-09 9.54252e-10 5.40545e-10 0.5 -3.66561e-08 -1.47634e-09 -1.90475e-08 1.86603e-09 1.63649e-08 3.48481e-09 
543 2 1.07326 1.78713 3.19513 0 0 0 -1.05589e-09 -3.63628e-08 -1.13791e-08 5.38971e-10 3.07983e-08 1.0272e-08 7.90433e-09 7.13694e-09 2.67926e-09 0.5 -3.39615e-09 -4.80268e-09 -2.03516e-09 -7.02302e-09 5.89472e-09 3.57747e-09 
773 2 4.78774 2.22773 3.30763 0 0 0 -2.50006e-09 -1.33284e-08 1.01368e-08 1.68799e-09 1.19425e-08 -9.1042e-09 3.20227e-09 3.51525e-09 -2.61945e-09 0.5 1.27114e-09 -2.88513e-08 -5.57279e-08 -5.36927e-09 1.17792e-08 5.62238e-08 
555 2 2.23907 2.5056 3.89852 0 0 0 3.21142e-09 -1.87867e-08 1.71763e-08 -3.24885e-09 1.65052e-08 -1.47999e-08 -2.23714e-09 -5.96623e-10 2.06636e-09 0.5 6.99954e-09 9.10968e-09 9.44145e-09 3.79506e-09 9.53972e-10 1.13835e-08 
429 1 0.306925 2.40106 3.75655 1 0 0 -1.24068e-08 -4.16061e-08 -9.43982e-09 1.03832e-08 3.5378e-08 8.62855e-09 4.28911e-09 1.71517e-09 7.7448e-09 0.5 -7.69689e-09 -6.28062e-08 -3.62077e-08 1.46186e-08 -9.42511e-09 3.49139e-08 
316 1 0.889712 0.512877 2.86992 1 0 0 -1.05961e-08 -3.83207e-08 -2.62442e-08 8.79867e-09 3.25159e-08 2.30818e-08 4.38388e-09 6.44551e-10 5.98922e-09 0.5 3.30258e-09 -7.58023e-09 -5.61344e-09 2.64826e-09 2.00139e-09 7.51216e-09 
503 2 3.61689 0.768796 2.88623 0 0 0 2.15704e-09 -1.83421e-08 -7.52079e-09 -1.98639e-09 1.59212e-08 6.12126e-09 -9.88861e-10 -1.31193e-09 3.0983e-09 0.5 -6.56677e-09 1.01665e-09 -3.8182e-08 1.77092e-09 -3.12746e-09 1.07132e-08 
896 2 0.702247 3.66501 2.63024 1 0 0 4.23708e-09 -4.00673e-08 1.50035e-08 -3.96666e-09 3.4052e-08 -1.24305e-08 4.76548e-09 2.05854e-09 -2.20205e-09 0.5 -2.57263e-08 -1.38344e-08 -4.07088e-08 6.93349e-09 -1.38278e-08 1.17693e-08 
690 2 1.93672 4.67095 2.92999 0 0 0 1.6789e-09 -2.46588e-08 2.64124e-08 -1.63003e-09 2.11522e-08 -2.26036e-08 -6.39439e-10 1.38865e-09 6.4055e-09 0.5 -2.83529e-08 -1.43778e-08 -5.79709e-09 1.87894e-08 -2.0268e-10 -3.22045e-09 
641 2 3.45948 3.5005 3.22725 0 0 0 3.33564e-09 -1.1149e-08 2.12615e-08 -2.99579e-09 1.00112e-08 -1.86535e-08 -2.21078e-09 -4.31126e-10 2.58713e-09 0.5 -2.60047e-09 4.00283e-09 -1.80666e-08 4.58266e-09 -9.12722e-09 2.26272e-08 
528 2 3.34275 4.80215 2.44243 0 0 0 6.73512e-09 -1.89832e-08 1.96453e-08 -6.07433e-09 1.65176e-08 -1.72618e-08 -2.3882e-10 6.7214e-10 1.12157e-09 0.5 -2.44268e-09 -4.55703e-09 -8.86202e-09 -4.32528e-09 -1.41946e-09 -1.9918e-09 
225 1 2.66658 2.37982 2.99794 0 0 1 -7.83065e-09 -2.24925e-08 1.1606e-08 6.42866e-09 1.9456e-08 -9.90219e-09 -1.8161e-09 4.57774e-09 2.40679e-09 0.5 -9.39359e-09 -2.40122e-08 -2.13104e-09 1.45704e-08 -7.22267e-09 -3.64101e-10 
119 1 0.614476 2.84343 2.06694 0 0 0 -1.71226e-08 -3.1597e-08 5.97406e-09 1.44631e-08 2.68476e-08 -4.78713e-09 1.08938e-08 1.14214e-09 -3.78946e-10 0.5 5.40228e-09 -1.60175e-08 -2.9242e-08 5.18316e-09 1.1296e-08 4.99443e-10 
94 1 2.46189 3.50067 2.00487 0 0 1 -1.1059e-09 -2.38633e-08 2.55207e-08 8.44219e-10 2.05207e-08 -2.19891e-08 4.27163e-09 -1.17569e-09 1.27989e-09 0.5 5.91113e-09 7.95712e-09 2.96758e-09 7.24717e-09 6.14888e-09 9.68132e-09 
522 2 2.58373 2.50801 2.00903 0 0 0 -3.55921e-09 -2.42699e-08 1.10362e-08 2.91599e-09 2.08634e-08 -9.43807e-09 8.44345e-09 -3.30453e-09 3.17283e-09 0.5 8.06314e-10 1.78989e-09 -9.10702e-09 7.95371e-09 8.38276e-09 2.61721e-09 
200 1 2.46549 0.208501 4.19599 0 1 0 8.82447e-09 -1.31528e-08 -1.33347e-08 -8.36092e-09 1.12137e-08 1.13067e-08 -8.2889e-09 -5.75696e-09 1.31649e-08 0.5 -1.97466e-08 -1.07468e-08 -3.54641e-08 5.59535e-09 1.29252e-08 9.37477e-09 
114 1 4.70709 1.00384 4.17137 0 0 0 5.80995e-10 -3.76514e-09 -3.38795e-09 -1.12558e-09 3.6996e-09 2.6016e-09 -2.9205e-09 -1.83042e-09 -3.23818e-09 0.5 -1.23264e-08 3.14869e-10 -2.58923e-09 -1.58448e-09 -7.90753e-09 -8.68041e-10 
820 2 1.30996 2.29325 4.21136 1 0 0 5.80084e-10 -2.82162e-08 3.86795e-09 -7.54923e-10 2.39207e-08 -3.02897e-09 -4.98518e-09 -3.52381e-09 7.91506e-09 0.5 2.43544e-09 7.7573e-09 -8.40571e-09 2.4506e-08 6.81183e-09 1.39659e-08 
47 1 4.65574 1.582 5.43553 0 0 0 8.93674e-09 1.55946e-09 2.95903e-09 -8.47404e-09 -7.83151e-10 -2.8422e-09 1.0515e-09 5.02433e-09 2.20453e-09 0.5 -1.35555e-08 -2.23524e-08 -9.14814e-09 -5.56644e-09 -1.09575e-08 1.83374e-08 
824 2 1.64908 3.83184 5.79238 1 0 0 2.8245e-09 8.28887e-09 2.65511e-08 -2.47876e-09 -7.09665e-09 -2.26202e-08 -7.09684e-09 6.70767e-10 -2.44988e-09 0.5 -4.36263e-09 -3.5776e-09 -1.55902e-08 -1.05532e-09 4.05824e-12 5.54715e-09 
172 1 3.44268 0.338821 4.72114 0 1 0 -2.47297e-10 1.04981e-08 -2.24527e-09 -6.55525e-10 -9.00577e-09 1.43961e-09 -9.31405e-09 -2.46654e-09 4.16393e-09 0.5 -1.81395e-08 -1.89937e-08 -6.53058e-08 -1.59859e-08 1.60335e-08 2.73288e-08 
718 2 0.202285 2.03673 5.5128 0 1 0 -2.51187e-09 -1.11499e-08 6.67006e-09 1.70332e-09 9.12213e-09 -5.27036e-09 -7.02507e-09 -3.19864e-09 -7.91381e-10 0.5 -3.0397e-08 -7.02722e-09 -1.9966e-08 1.46741e-08 -1.53706e-08 4.18516e-08 
505 2 0.484433 3.5018 5.83385 0 0 -1 -3.18769e-09 1.16945e-08 2.02449e-08 2.70737e-09 -1.0705e-08 -1.70911e-08 1.53338e-09 -3.65725e-09 9.45248e-09 0.5 -2.13374e-10 -5.39743e-08 -2.7728e-08 3.06533e-09 -7.04699e-10 4.46452e-08 
524 2 3.99535 2.7352 5.70679 0 0 0 2.33188e-08 2.68188e-08 3.13693e-08 -2.10695e-08 -2.24785e-08 -2.77044e-08 -7.47202e-09 2.09491e-08 1.06203e-08 0.5 5.15133e-10 5.02558e-09 5.83556e-09 -4.19514e-09 -4.74538e-09 4.93205e-09 
839 2 0.579387 1.61472 4.31101 1 0 0 6.39296e-09 -3.77995e-08 -1.32483e-08 -5.76347e-09 3.21678e-08 1.20062e-08 -2.51463e-09 1.22316e-10 8.22233e-09 0.5 -2.96386e-09 -4.11199e-08 -2.45471e-08 2.79015e-08 -2.15095e-09 4.35715e-08 
937 2 2.44361 3.38654 4.3372 1 0 0 5.54567e-09 -1.56769e-08 1.33477e-08 -5.00256e-09 1.37813e-08 -1.15161e-08 -5.46658e-09 -3.51467e-09 6.40193e-09 0.5 1.02678e-08 1.21373e-08 -2.8192e-08 1.72887e-08 2.40889e-09 1.35438e-08 
811 2 2.60623 3.94632 5.52498 1 0 0 1.70165e-10 7.58169e-09 1.6872e-08 -2.70394e-10 -6.22818e-09 -1.44531e-08 -6.68619e-09 -3.9474e-09 3.69666e-11 0.5 -2.99666e-09 -1.25853e-08 -4.2188e-09 -5.30149e-09 -4.75556e-09 1.30723e-08 
827 2 1.52088 3.18133 4.66349 1 0 0 6.44247e-09 -2.8453e-08 8.04e-09 -5.53789e-09 2.4117e-08 -6.64511e-09 -9.38221e-09 -4.78943e-09 -1.06739e-10 0.5 5.76431e-09 -2.2127e-09 -2.33392e-08 1.73765e-09 2.51198e-09 1.8554e-08 
149 1 4.05563 3.93275 4.61881 0 0 0 1.82736e-09 3.92035e-09 2.29981e-08 -2.04501e-09 -2.92104e-09 -2.01363e-08 -3.27997e-09 1.32492e-09 5.6038e-09 0.5 -1.04378e-08 -1.02754e-08 8.06476e-09 3.26032e-08 -2.00461e-08 9.51676e-09 
925 2 0.623246 3.59905 4.52293 1 0 0 1.01363e-08 -2.19513e-08 3.09602e-09 -8.87207e-09 1.82215e-08 -2.33589e-09 -8.56956e-09 3.49702e-09 -1.60442e-09 0.5 7.25263e-09 -1.42687e-08 -4.05487e-09 -3.3065e-09 -2.71886e-09 7.4117e-09 
168 1 3.33522 4.60361 5.33159 0 0 0 2.64863e-09 6.58534e-09 2.36921e-08 -2.56138e-09 -5.31246e-09 -2.07461e-08 -5.58058e-09 -3.55099e-09 5.19048e-09 0.5 -1.8062e-08 -1.43835e-08 -1.52095e-08 4.98536e-09 -9.21493e-09 1.21388e-08 
928 2 1.57471 4.4088 4.9787 1 0 0 4.74966e-09 5.32372e-09 2.45303e-08 -4.11862e-09 -4.39301e-09 -2.07786e-08 -4.33327e-09 1.12414e-09 -4.25028e-09 0.5 -7.8937e-09 -9.87869e-09 -9.99945e-09 -5.11798e-09 9.48453e-10 8.63048e-09 
148 1 3.93983 3.74234 5.7457 0 0 0 -1.50763e-09 2.59166e-08 3.27269e-08 8.8375e-10 -2.1697e-08 -2.85179e-08 -7.79933e-09 -2.8915e-09 1.42917e-08 0.5 7.83097e-09 1.60796e-08 1.9084e-08 1.15189e-08 1.32294e-08 1.14971e-08 
914 2 4.69244 4.38506 5.24423 0 0 0 -7.88387e-09 1.47165e-08 2.52946e-08 6.38732e-09 -1.18892e-08 -2.24244e-08 -1.17414e-08 -3.29808e-09 -1.31254e-09 0.5 -4.82379e-10 4.16339e-09 7.3316e-09 1.20909e-09 2.56389e-09 4.64472e-09 
23 1 2.87773 1.11847 4.05716 0 0 0 -1.17269e-09 -9.03669e-09 -1.17896e-08 3.38312e-10 7.68569e-09 1.01849e-08 3.13196e-09 -4.7002e-10 3.23235e-09 0.5 -1.5559e-08 -1.48389e-08 -1.22739e-08 -5.65374e-09 7.90201e-09 1.13549e-08 
594 2 2.05586 1.97089 4.80241 0 0 0 6.48849e-09 3.93925e-09 1.22213e-08 -5.95488e-09 -3.6498e-09 -1.00226e-08 3.24884e-09 -3.94238e-09 1.10366e-08 0.5 3.43665e-11 -1.91851e-08 -3.98603e-09 1.44305e-08 -6.90936e-09 1.14659e-08 
539 2 3.78455 1.04074 5.46912 0 0 0 3.73488e-09 2.10737e-08 7.61758e-09 -3.92196e-09 -1.78977e-08 -7.01299e-09 -3.84629e-09 6.95425e-09 -1.59172e-09 0.5 -6.61893e-09 -6.29254e-08 -2.71211e-08 -2.02666e-08 -1.69353e-08 5.2615e-08 
730 2 0.461765 1.11568 5.16957 0 1 0 2.07052e-10 -1.21968e-08 7.9795e-10 -7.37893e-10 1.00195e-08 -2.35454e-10 -3.18634e-09 -1.77826e-09 1.0639e-08 0.5 1.72549e-08 -3.3111e-09 -1.45345e-08 3.01471e-09 -3.89737e-09 3.01359e-08 
689 2 3.51933 0.103669 5.69619 0 1 0 -1.18937e-09 1.98395e-08 -3.14839e-09 3.9153e-10 -1.68653e-08 2.2923e-09 -2.27711e-09 -2.72497e-09 -6.13108e-10 0.5 -2.60106e-08 -7.71674e-08 -6.69817e-08 -8.7536e-09 2.02692e-09 5.78274e-08 
450 1 0.619288 4.79871 4.46892 1 0 0 2.34749e-08 -1.63636e-08 1.67627e-08 -2.02669e-08 1.37215e-08 -1.39272e-08 -1.68018e-08 -4.19951e-09 2.94787e-09 0.5 -8.30231e-09 -2.31751e-08 -4.96864e-08 1.91217e-09 -8.67672e-09 2.76014e-08 
549 2 4.49944 0.500888 5.01435 0 0 0 -9.03149e-09 6.41835e-09 7.23969e-10 7.14351e-09 -5.2077e-09 -1.04254e-09 -2.71944e-09 2.86212e-09 -7.08248e-09 0.5 1.95867e-08 2.60779e-08 1.28979e-08 -1.17532e-08 -7.39434e-09 1.22787e-08 
591 2 1.44655 1.12499 4.40334 0 0 0 1.23968e-08 -2.79101e-08 -2.0263e-08 -1.1044e-08 2.34471e-08 1.79148e-08 -5.08421e-09 5.3192e-09 1.2096e-09 0.5 -1.56115e-08 -2.43285e-08 -1.89007e-08 6.27246e-09 2.20253e-09 1.86378e-08 
243 1 1.20287 1.83742 5.34381 0 1 0 -3.79752e-09 1.46963e-10 -1.61673e-09 2.75436e-09 -5.91082e-10 1.74015e-09 -2.68037e-09 -2.17169e-09 5.93446e-09 0.5 -8.83592e-09 -9.63445e-09 -4.06645e-09 1.19965e-08 -3.96468e-09 1.41621e-08 