ITEM: TIMESTEP
226000
ITEM: NUMBER OF ATOMS
1000
ITEM: BOX BOUNDS xy xz yz pp pp pp
0.0000000000000000e+00 1.0000000000000000e+01 0.0000000000000000e+00
0.0000000000000000e+00 1.0000000000000000e+01 0.0000000000000000e+00
0.0000000000000000e+00 1.0000000000000000e+01 0.0000000000000000e+00
ITEM: ATOMS id type x y z ix iy iz vx vy vz fx fy fz omegax omegay omegaz radius c_2[1] c_2[2] c_2[3] c_2[4] c_2[5] c_2[6] 
120 1 3.15852 1.54146 0.0722925 0 1 0 -1.32148e-11 5.29088e-11 2.91256e-11 1.52962e-11 -5.85221e-11 -2.7525e-11 3.05498e-11 8.64329e-12 -1.69601e-11 0.5 -2.44536e-11 -1.24182e-10 -1.26555e-11 -1.26427e-11 -7.92213e-12 -3.13451e-11 
525 2 2.11627 1.23431 1.69988 0 0 0 -5.23767e-11 -1.22426e-10 -7.28356e-11 4.37182e-11 1.05462e-10 6.54783e-11 -1.03869e-11 1.21896e-11 4.12979e-11 0.5 3.16768e-12 -7.93121e-12 5.56041e-12 1.02333e-11 3.36317e-12 -1.51363e-12 
371 1 4.95931 3.68326 1.58374 0 0 1 2.68657e-11 -3.89662e-11 6.44345e-11 -1.94379e-11 5.86924e-11 -6.31164e-11 5.41808e-12 -5.03796e-12 2.49898e-12 0.5 -1.8716e-11 -7.96624e-11 4.02047e-11 -7.75169e-12 -1.10837e-11 9.51185e-12 
18 1 1.98117 2.69195 0.532518 0 0 0 -2.66771e-11 -1.7281e-12 7.96365e-11 2.55998e-11 -9.32121e-13 -6.18201e-11 5.15635e-11 -1.66196e-11 1.67259e-11 0.5 -4.92087e-11 -1.01953e-10 -6.1275e-11 8.33415e-11 3.15795e-11 -4.44604e-11 
868 2 2.87004 3.00634 0.0289121 0 0 1 1.94602e-11 -8.58628e-12 6.47551e-11 -1.96516e-11 3.28702e-11 -4.96744e-11 4.34266e-11 -7.77142e-12 1.86836e-11 0.5 -6.16469e-11 -8.37227e-11 -3.02024e-11 6.37416e-11 -1.45049e-12 2.21654e-12 
25 1 1.41548 0.708705 1.0832 0 0 0 -1.9567e-11 -4.51649e-11 -7.06345e-11 1.25833e-11 6.07626e-11 9.25857e-11 3.43562e-11 -8.95071e-12 2.56753e-11 0.5 -2.80605e-11 -2.66732e-10 -1.41012e-10 8.03114e-11 6.15089e-11 -1.14654e-10 
378 1 4.61919 2.40719 0.0725816 0 0 1 7.52764e-12 3.95694e-11 4.7278e-11 -7.8294e-12 -3.5294e-11 -3.77799e-11 4.72825e-11 1.13045e-11 -1.02976e-11 0.5 -2.88737e-11 -7.62909e-11 -4.11915e-11 -1.12556e-12 -5.59127e-12 -5.58012e-11 
8 1 3.44143 2.06796 1.74253 0 0 0 -4.6992e-12 -5.10104e-11 1.71362e-11 1.05259e-11 4.1398e-11 -2.18739e-11 4.11773e-11 -9.38288e-12 1.00153e-11 0.5 3.41298e-11 1.81359e-11 2.49559e-11 1.14547e-11 -1.57705e-11 1.71602e-11 
629 2 4.07713 2.6156 1.19812 0 0 1 1.25041e-11 -2.31025e-11 6.4532e-11 -8.69427e-12 1.78352e-11 -6.73699e-11 4.53764e-11 -1.43122e-11 1.60939e-12 0.5 -8.07109e-11 -1.55876e-11 -6.38711e-11 1.71621e-11 -5.42919e-11 -3.39219e-11 
5 1 2.34651 3.9005 1.05345 0 0 0 -5.37982e-12 -8.82579e-11 9.05339e-11 4.61008e-12 7.61868e-11 -7.68439e-11 4.32934e-12 5.74714e-12 1.88153e-11 0.5 -4.9583e-12 -9.15681e-12 -1.20245e-11 1.23205e-11 1.87527e-12 -2.67149e-12 
650 2 0.459129 3.43666 1.12967 0 0 0 -5.62066e-11 -1.01662e-10 2.37805e-11 4.90542e-11 8.19982e-11 -2.16432e-11 5.72519e-11 2.8046e-12 6.04147e-13 0.5 -7.53985e-11 -8.27879e-11 -9.34616e-11 6.38847e-11 6.38093e-11 -4.11909e-11 
14 1 3.29515 3.13364 1.54473 0 0 0 1.97461e-12 -3.87889e-11 7.14276e-11 -6.32244e-12 2.43438e-11 -7.35253e-11 1.09716e-11 9.60895e-12 6.17821e-12 0.5 -1.14609e-11 -2.66752e-11 -4.90618e-11 3.56658e-11 -5.41918e-12 -2.44708e-11 
264 1 3.99643 3.86789 1.37953 0 0 0 2.54695e-11 -4.56668e-11 6.68566e-11 -1.72992e-11 4.21121e-11 -7.23215e-11 1.85102e-11 3.49183e-12 3.79824e-12 0.5 -1.93783e-11 2.90618e-12 -3.70762e-11 2.94632e-11 -4.5787e-12 -9.97753e-12 
223 1 0.747634 2.47805 1.14565 0 0 1 -6.08484e-11 -1.01746e-10 2.20261e-11 4.99083e-11 8.17387e-11 -2.87452e-11 5.34751e-11 -2.12756e-11 7.82881e-12 0.5 -2.65832e-11 -8.61283e-11 -1.72717e-10 3.24596e-11 6.84406e-11 -4.87381e-11 
364 1 4.4227 4.23693 0.53984 0 0 1 1.78494e-11 2.75238e-11 9.288e-11 -1.26566e-11 -2.40059e-11 -8.22414e-11 2.65822e-11 -5.03336e-12 1.04753e-11 0.5 3.95739e-12 1.24e-11 1.08256e-11 6.41029e-12 8.56201e-12 -1.65072e-11 
107 1 1.66076 1.61825 0.747451 0 0 1 -4.71979e-11 -2.28057e-11 -2.8045e-11 5.79851e-11 2.35608e-11 2.16876e-11 5.4377e-11 -4.72122e-12 8.66928e-12 0.5 2.61077e-11 -8.31899e-11 -7.68415e-11 3.42974e-12 -7.62372e-12 -3.37072e-11 
529 2 2.67265 2.1996 1.06195 0 0 0 -6.48226e-12 -3.30041e-11 2.33126e-11 1.15418e-11 1.61252e-11 -2.29853e-12 4.95161e-11 3.86873e-12 1.49287e-11 0.5 -1.38697e-11 -3.07586e-11 -3.79737e-11 2.5716e-11 -2.3468e-11 1.29883e-11 
515 2 4.38643 0.435908 1.64385 0 0 0 7.91169e-12 -5.33422e-11 -4.39918e-11 -3.56751e-11 5.55769e-12 4.96099e-11 3.091e-11 -4.44685e-12 1.00994e-11 0.5 8.22422e-12 -3.35435e-11 -7.44428e-11 -6.9595e-11 -1.47199e-12 1.57306e-11 
244 1 4.11373 0.570462 0.682724 0 1 1 9.25177e-12 2.16483e-11 -3.16328e-11 -1.74976e-11 -1.67228e-11 3.12058e-11 4.42944e-11 1.52917e-11 3.89538e-12 0.5 -1.28489e-11 -1.40027e-11 -6.04993e-11 2.69144e-12 6.7521e-12 4.60133e-12 
20 1 2.90179 0.570818 1.78382 0 0 0 2.19086e-12 -5.10531e-11 -4.75767e-11 9.45694e-12 3.97498e-11 2.89337e-11 2.05932e-11 -1.12996e-11 1.36505e-11 0.5 -2.33928e-11 -6.78395e-11 -1.03902e-10 3.66799e-11 4.10886e-11 -6.58738e-11 
280 1 4.09077 1.582 1.14626 0 0 0 4.43987e-12 -1.27188e-11 -5.16025e-12 8.31142e-13 4.31839e-12 -1.13618e-11 4.76759e-11 -3.83425e-12 3.19234e-12 0.5 -3.62939e-12 -2.16055e-11 -5.06664e-11 4.87572e-12 2.7429e-11 2.23603e-11 
620 2 1.3946 4.37082 0.857654 0 0 1 1.23106e-11 -6.00199e-11 7.67337e-11 -2.19134e-12 5.55633e-11 -9.00367e-11 3.75387e-11 2.52032e-11 -2.18838e-11 0.5 -1.81205e-11 -8.90634e-11 -1.3762e-10 6.78312e-12 -1.8386e-11 1.23522e-11 
1000 2 3.60332 2.39824 0.339819 0 1 1 4.62745e-11 1.55051e-11 4.22415e-11 -6.07276e-11 -8.96761e-13 -4.43278e-11 3.33481e-11 -3.81461e-12 5.56407e-13 0.5 -5.44566e-11 -9.55572e-11 -6.36097e-11 -7.17051e-12 -4.99105e-11 -1.71614e-11 
103 1 3.28431 3.68319 0.698947 0 0 1 4.20327e-12 -2.38114e-11 8.40585e-11 -3.94263e-12 2.16754e-11 -7.49309e-11 2.46751e-11 7.49342e-13 1.35074e-11 0.5 -2.76988e-11 -2.91038e-11 -3.56419e-11 2.43513e-11 -2.058e-12 -2.12273e-12 
622 2 0.930663 4.80385 0.0848388 0 0 1 1.03416e-11 -4.40696e-12 1.10232e-10 -1.06235e-11 8.15139e-12 -9.88951e-11 4.83325e-11 -2.32273e-12 -7.90045e-12 0.5 -1.98905e-12 8.58783e-12 -6.14795e-11 -3.0913e-12 -2.8022e-11 1.43904e-11 
506 2 0.74356 1.4513 1.18235 0 0 0 -6.49324e-11 -1.02393e-10 -5.98043e-11 6.45866e-11 8.56156e-11 4.29907e-11 4.05556e-11 -6.6818e-12 3.00188e-11 0.5 8.44157e-12 -1.31891e-10 -2.26229e-11 1.50465e-10 3.15295e-11 -7.87533e-11 
626 2 1.28815 3.41645 0.566227 0 0 1 -5.58146e-11 -3.39231e-11 2.60854e-11 4.71605e-11 3.23858e-11 -2.39442e-11 3.0604e-11 -1.34953e-11 4.41646e-12 0.5 -7.45171e-11 -1.05442e-10 -1.97718e-11 6.23457e-11 4.61332e-11 -3.03069e-11 
553 2 0.744043 0.0774004 1.56305 0 0 0 -1.41899e-11 -7.56546e-11 -9.10582e-11 1.21546e-11 6.55277e-11 8.38558e-11 4.40334e-12 -2.04442e-11 3.48346e-11 0.5 1.58875e-11 6.22079e-12 1.14498e-11 4.03912e-12 2.46335e-13 -1.52009e-11 
135 1 1.54769 3.20472 1.67709 0 0 0 1.65381e-11 -9.2322e-11 1.47245e-11 -2.26652e-11 1.19736e-10 -8.40071e-13 2.88684e-11 -3.90425e-11 -1.19376e-11 0.5 3.67216e-12 -1.69662e-10 -3.64468e-11 4.40972e-11 1.78931e-11 -7.90774e-13 
624 2 4.32461 4.92098 1.47156 0 0 1 4.85233e-11 -4.51072e-12 6.68635e-11 -4.24439e-11 5.89355e-12 -6.03619e-11 1.90486e-11 -3.42799e-12 1.34957e-11 0.5 1.96956e-11 1.44985e-11 -4.5497e-11 2.11356e-11 -3.69159e-11 -3.85509e-11 
256 1 4.58719 1.36786 0.305 0 0 0 9.07757e-12 3.05417e-11 -1.32248e-11 -2.83135e-11 -1.93797e-11 1.81302e-11 4.6529e-11 8.50098e-12 -1.16747e-11 0.5 -4.96435e-12 -4.18737e-11 -3.24199e-11 -2.61527e-11 -1.9601e-11 -6.44717e-11 
260 1 3.31854 0.0700552 1.02517 0 0 0 2.35997e-11 -1.85671e-11 -5.7861e-11 -4.2262e-11 3.49997e-11 5.07803e-11 1.82706e-11 2.48053e-11 5.46787e-12 0.5 -4.14988e-12 -6.71348e-11 -7.33878e-11 2.25592e-12 7.49814e-12 -4.81988e-11 
616 2 3.19106 4.4806 1.50664 0 0 1 1.67914e-11 -7.02108e-11 6.38627e-11 -1.46073e-11 6.11814e-11 -5.42499e-11 -3.55324e-12 8.99256e-12 1.51959e-11 0.5 -3.44706e-11 -1.42308e-11 -1.46401e-11 2.09386e-11 2.69727e-12 -8.58778e-12 
106 1 1.74522 2.23558 1.52961 0 0 1 -5.85284e-12 -9.90891e-11 2.76806e-11 6.6497e-12 9.72748e-11 -1.05229e-11 3.75616e-11 -1.2292e-11 -8.04801e-12 0.5 2.49826e-11 -1.0993e-10 -4.63499e-11 2.93021e-11 2.13927e-11 -5.07492e-11 
157 1 1.3897 4.17879 1.83903 0 0 0 2.90291e-11 -1.00865e-10 6.92893e-11 -3.0849e-12 4.63031e-11 -6.15252e-11 3.8327e-11 4.91101e-12 5.73036e-12 0.5 -3.60302e-11 -1.21017e-10 -1.60118e-10 3.6356e-11 4.76999e-11 -2.71297e-11 
516 2 2.34691 0.89043 0.68796 0 0 0 -1.31711e-11 9.15911e-12 -1.9026e-11 1.11978e-11 -2.94084e-11 1.33813e-11 4.37174e-12 -8.44319e-12 5.65236e-12 0.5 1.89902e-12 -4.7349e-11 -1.34919e-11 1.19063e-11 1.95424e-11 -3.96676e-11 
183 1 0.415258 4.58221 1.00381 0 0 0 1.95763e-11 -8.58538e-11 1.61718e-10 -1.68121e-11 7.42656e-11 -1.376e-10 7.32358e-11 4.11123e-11 4.04895e-12 0.5 -8.55545e-13 -4.42858e-12 9.29227e-12 7.59831e-12 -1.14806e-11 8.88865e-12 
625 2 0.399951 3.91216 0.210014 0 0 1 -1.07581e-11 2.61854e-12 8.42338e-11 1.11831e-11 -2.94193e-12 -7.02879e-11 6.91731e-11 -7.5571e-12 -3.1998e-11 0.5 -2.55035e-12 2.50625e-12 -1.23186e-11 -2.04052e-12 -5.57053e-12 1.26616e-11 
91 1 2.22066 4.71676 1.69645 0 0 1 2.21099e-11 -8.67591e-11 8.44441e-11 -2.59957e-11 7.24174e-11 -7.03522e-11 3.19527e-13 6.88171e-12 5.97989e-12 0.5 -3.30305e-11 -1.58938e-11 -9.2726e-12 -1.80344e-12 3.76151e-12 -8.95786e-12 
257 1 4.94043 2.69123 1.70827 0 0 0 1.41294e-11 -4.02372e-11 5.17369e-11 -1.14376e-11 1.6344e-11 -4.06418e-11 1.77625e-11 -9.3112e-13 -7.98454e-12 0.5 -8.91775e-11 -7.18117e-11 -1.48247e-10 7.01072e-12 -5.25623e-11 -3.12258e-11 
4 1 3.72174 1.12777 1.95711 0 0 0 5.04565e-12 -5.93681e-11 -3.19836e-11 1.38342e-13 5.05447e-11 2.23305e-11 3.07808e-11 -1.69972e-12 4.40439e-12 0.5 -6.49455e-12 -1.12549e-11 -1.09628e-10 -1.4903e-11 8.19731e-12 5.13905e-11 
609 2 1.99624 4.76004 0.136921 0 0 1 1.22062e-11 -3.10841e-11 1.01251e-10 8.1616e-12 -1.38125e-12 -1.09158e-10 1.48489e-11 -6.00733e-12 1.77722e-11 0.5 -1.47687e-10 -4.16431e-10 -5.97418e-11 1.1277e-10 1.64811e-11 -9.37881e-11 
117 1 3.12746 1.31374 1.15363 0 1 0 9.03597e-12 -3.00847e-11 -2.06024e-11 -2.49735e-11 5.33955e-11 8.94779e-12 3.88683e-11 1.77408e-12 5.08505e-12 0.5 2.02125e-12 -2.16066e-11 -1.48377e-11 1.35599e-11 -1.06e-11 1.98488e-11 
511 2 1.08079 2.25054 0.230642 0 0 0 -2.32532e-11 2.56675e-11 4.08092e-12 2.61941e-13 -5.05859e-11 -1.05885e-11 6.77013e-11 -1.75228e-11 -1.17304e-11 0.5 -2.33422e-11 -6.30935e-11 -1.57239e-10 1.82451e-11 5.99467e-11 -3.71593e-11 
911 2 0.492018 0.563612 0.697612 1 0 0 -1.56794e-11 -6.36096e-11 -8.78394e-11 1.73028e-11 4.29167e-11 7.90857e-11 5.98242e-12 -1.40982e-11 7.67827e-12 0.5 2.32702e-11 -8.45805e-11 -1.31923e-12 -7.19771e-12 7.78451e-12 -3.50298e-11 
668 2 0.00216515 3.81975 1.93315 0 0 0 -1.78104e-11 -1.79619e-10 8.03347e-11 3.25095e-11 1.11105e-10 -5.41071e-11 1.7189e-11 1.18769e-11 -1.70146e-11 0.5 -1.56211e-10 -3.71518e-10 -1.48313e-10 1.16745e-10 -5.31554e-11 8.83685e-12 
90 1 2.93989 4.58015 0.420403 0 0 1 1.3879e-11 -1.53308e-11 1.00319e-10 8.85465e-13 1.78911e-11 -8.64556e-11 1.4289e-11 -2.63251e-12 1.81466e-11 0.5 -4.31864e-11 1.69508e-11 -1.78805e-11 7.42705e-11 3.23528e-11 5.79547e-12 
734 2 4.13742 3.24508 0.37494 0 1 1 2.5366e-11 2.64496e-11 8.93034e-11 -2.32929e-11 -2.0236e-11 -7.93301e-11 4.35332e-11 5.03718e-12 7.4289e-12 0.5 -4.14757e-11 -2.31051e-11 3.05826e-12 3.16138e-11 9.72106e-12 -2.29839e-11 
672 2 0.0675425 1.98557 1.68985 0 0 0 -7.53538e-11 -1.4116e-10 -3.26036e-11 4.8052e-11 1.5879e-10 3.53437e-11 4.29202e-11 -7.8259e-12 1.71447e-11 0.5 -1.44108e-10 -3.10075e-10 -1.14434e-10 1.26668e-10 7.6682e-11 -6.88723e-12 
759 2 4.95866 2.03867 0.950748 0 0 0 1.04972e-11 -1.1101e-11 2.5646e-11 9.52189e-13 2.3756e-12 -2.68305e-11 3.97356e-11 -8.80243e-12 -1.17331e-11 0.5 -1.0324e-11 -1.24215e-10 -5.92783e-11 -1.83863e-11 -1.06734e-11 -1.39829e-11 
21 1 1.84566 0.35675 2.43115 0 0 0 -1.95272e-11 -9.58173e-11 -7.33367e-11 1.78322e-11 8.40756e-11 6.54962e-11 1.91002e-11 -1.26373e-11 3.08608e-11 0.5 -2.54282e-12 -1.14862e-11 -1.83611e-12 9.05524e-12 -2.38234e-13 -4.66843e-12 
682 2 2.73058 4.0836 2.7725 0 0 0 1.53742e-11 -5.92598e-11 6.29728e-11 2.6354e-12 5.12423e-11 -6.43049e-11 -1.95921e-12 5.19005e-12 1.18636e-11 0.5 -1.24108e-10 -6.39689e-11 -1.28543e-11 9.18072e-11 4.11024e-11 6.48994e-11 
907 2 0.982097 4.62503 2.63573 1 0 0 7.16416e-12 -1.47069e-10 8.57592e-11 -2.21927e-11 1.49593e-10 -5.07203e-11 6.72403e-12 -1.30174e-11 8.8293e-12 0.5 -1.07442e-10 -9.22205e-11 -1.46013e-10 5.69561e-11 5.53126e-11 -3.74881e-11 
144 1 1.68507 3.60062 2.81087 0 0 0 1.68877e-11 -1.23004e-10 1.52825e-11 -1.04267e-11 1.09655e-10 -1.95373e-11 -4.94204e-12 1.30803e-11 5.97447e-12 0.5 -9.92668e-11 -1.74617e-11 -3.23904e-11 4.90826e-11 -3.18231e-11 4.58743e-12 
675 2 2.83107 4.7385 3.54541 0 0 0 -1.17294e-11 -3.36806e-11 6.15083e-11 8.78142e-12 3.18383e-11 -5.15757e-11 -1.6158e-11 1.45149e-11 -8.19989e-14 0.5 5.86078e-12 2.24829e-11 4.69576e-11 2.34801e-11 -1.22475e-11 3.9386e-11 
502 2 4.38953 1.31124 3.26921 0 0 0 -1.73241e-11 -3.51797e-11 -2.76597e-11 1.28684e-11 3.12428e-11 2.45038e-11 6.4544e-12 -1.84309e-12 -2.44229e-12 0.5 -6.68806e-11 -2.89652e-11 -5.24325e-11 -3.12459e-11 2.405e-11 7.42272e-11 
27 1 2.60908 0.300739 3.21066 0 0 0 -1.15627e-11 -7.88913e-11 -5.56492e-11 3.00044e-11 3.80537e-11 1.02779e-10 2.50839e-12 -1.10586e-11 1.67723e-11 0.5 -4.77054e-11 -7.38508e-11 -1.01902e-10 2.71484e-11 3.62834e-11 1.50211e-11 
965 2 1.35576 3.65812 3.79896 1 0 0 2.75763e-11 -1.51731e-10 6.85182e-12 -1.71695e-11 1.30174e-10 -2.99991e-11 -8.55235e-12 2.65842e-11 -1.89191e-11 0.5 -3.22611e-11 -9.41735e-11 -1.03944e-10 5.73374e-11 -3.95348e-11 6.72951e-11 
61 1 1.66165 0.448609 3.51352 0 0 0 -2.97444e-11 -1.31442e-10 -9.47382e-11 2.64989e-11 1.1113e-10 8.36854e-11 6.73151e-12 -1.36832e-12 2.55854e-11 0.5 -4.24448e-11 -2.16906e-12 -9.18795e-12 1.18104e-11 2.41419e-11 -2.73956e-12 
680 2 1.1901 2.78151 3.34693 0 0 0 -3.52046e-11 -1.38654e-10 4.89783e-12 3.56182e-11 1.15358e-10 -1.21109e-11 4.71356e-12 1.35662e-11 -3.1996e-12 0.5 6.89564e-12 -2.72578e-11 -3.48981e-11 7.63672e-12 1.2158e-11 1.11923e-11 
251 1 4.71421 3.03382 3.89556 0 0 0 2.63371e-11 -4.97976e-11 5.0529e-11 -2.63386e-11 4.038e-11 -3.10696e-11 2.49415e-11 1.7797e-11 -2.65066e-11 0.5 -1.02127e-10 -2.56767e-11 -1.84916e-12 -6.0826e-11 3.21283e-11 4.93613e-11 
517 2 4.0089 2.89361 2.21821 0 0 0 2.02555e-11 -4.12847e-11 4.89611e-11 -1.79832e-11 3.03454e-11 -4.72824e-11 1.12154e-11 -1.70589e-12 -2.39151e-12 0.5 -1.26318e-12 -3.67229e-12 -3.00699e-11 1.51557e-12 -5.90009e-12 1.38335e-11 
6 1 3.42179 1.77987 2.73262 0 0 0 -1.85281e-11 -4.71711e-11 2.20107e-11 5.4957e-12 4.07666e-11 -1.67714e-11 2.84879e-11 -9.49627e-13 2.15315e-11 0.5 -8.05206e-11 3.06201e-11 1.50529e-11 3.98273e-11 3.60102e-11 2.95228e-11 
519 2 4.43345 3.61408 3.03093 0 0 0 9.25737e-12 -2.36224e-11 7.37171e-11 -9.58315e-12 1.44176e-11 -6.70659e-11 9.00242e-12 5.01033e-12 -3.72706e-12 0.5 3.27548e-12 4.40764e-11 3.18096e-11 -3.12532e-11 -1.22762e-11 2.26932e-11 
509 2 1.93621 1.51608 3.62332 0 0 0 1.63756e-11 -1.22609e-10 -7.82236e-11 -1.83952e-11 1.04955e-10 6.84067e-11 -5.52783e-12 3.75418e-11 -5.59187e-13 0.5 1.19714e-11 -1.22122e-11 -9.83993e-11 -1.3106e-11 2.25242e-11 2.77678e-11 
142 1 1.03537 1.94217 2.17003 0 0 0 -4.91939e-11 -1.13855e-10 -2.70514e-11 4.79627e-11 1.0586e-10 3.7575e-11 3.79213e-11 8.59247e-13 8.44453e-12 0.5 -1.50154e-11 -4.04546e-11 -2.40884e-11 3.98369e-11 -1.55673e-11 2.88786e-11 
941 2 0.192203 2.2584 2.77344 1 0 0 -6.44113e-11 -1.62529e-10 -1.99396e-11 5.09797e-11 1.44293e-10 6.91416e-12 2.36709e-11 3.47296e-12 8.37478e-12 0.5 -1.99038e-11 -7.52128e-11 -9.93182e-11 6.18453e-12 9.17925e-12 1.08219e-12 
919 2 0.650389 4.31552 3.53385 1 0 0 -4.20751e-12 -1.6186e-10 6.93173e-11 5.85331e-12 1.29415e-10 -6.32862e-11 2.06299e-11 1.04115e-11 -2.55327e-11 0.5 -7.61154e-11 -1.34393e-10 -6.75239e-11 7.54957e-11 -2.55385e-12 4.08831e-11 
95 1 3.53903 3.77814 2.2694 0 0 1 2.4409e-11 -4.00554e-11 6.41211e-11 -4.52235e-12 4.37255e-11 -8.17439e-11 1.34015e-12 1.38284e-12 4.73426e-12 0.5 -5.80465e-11 -2.70111e-11 -1.06999e-10 1.1857e-11 3.00392e-11 -1.50793e-11 
458 1 1.5569 4.7536 3.86468 1 0 0 1.39321e-12 -1.13231e-10 9.14258e-11 -1.91618e-12 9.59791e-11 -7.89263e-11 -1.7517e-11 5.18834e-12 8.29181e-12 0.5 -4.96562e-11 -3.18176e-11 -2.90196e-11 4.16585e-11 -8.87051e-12 -2.40332e-13 
41 1 1.14045 0.960462 2.01108 0 0 0 -3.56989e-11 -1.0684e-10 -5.88509e-11 3.0824e-11 9.72722e-11 5.40495e-11 3.42742e-11 -5.16446e-12 1.99287e-11 0.5 -3.86969e-11 -4.29922e-11 -1.0608e-10 2.43648e-11 5.45173e-11 -2.65837e-11 
814 2 0.27112 1.22753 3.40348 1 0 0 -1.59926e-11 -1.36146e-10 -4.73485e-11 1.5756e-11 1.33476e-10 4.86788e-11 1.92055e-11 -1.10249e-11 3.3998e-11 0.5 -5.82566e-11 -7.16095e-11 -8.75784e-11 3.81562e-11 5.13543e-11 8.90762e-11 
130 1 1.70518 2.6475 2.50033 0 0 0 -3.65863e-11 -1.18793e-10 -4.15432e-13 2.61397e-11 1.14376e-10 7.11781e-12 3.08725e-11 -1.25325e-11 -1.3243e-11 0.5 -9.36617e-12 -8.61471e-11 -6.69997e-11 4.58161e-11 2.19025e-11 5.54684e-11 
12 1 2.70258 1.09575 2.61132 0 0 0 1.02377e-11 -6.65775e-11 -3.74037e-11 -8.37469e-12 4.74074e-11 2.51447e-11 2.06798e-11 -2.08631e-11 2.27189e-11 0.5 -1.22079e-10 -1.25668e-10 -8.28297e-11 8.50269e-11 3.17126e-11 7.76965e-12 
512 2 3.18635 2.03167 3.78747 0 0 0 5.45626e-13 -1.73554e-11 3.62524e-11 -3.02475e-12 1.66757e-11 -3.34259e-11 2.37375e-11 -4.34641e-12 1.62263e-11 0.5 -2.52581e-11 -4.62353e-11 -4.47557e-11 1.19433e-11 -1.36693e-11 5.08866e-11 
151 1 2.47925 3.30049 3.34132 0 0 0 1.46424e-11 -6.90212e-11 4.7291e-11 -4.44491e-12 7.37167e-11 -4.98944e-11 -9.94046e-12 -6.957e-12 4.80419e-12 0.5 -5.24316e-11 -1.24035e-10 -1.17565e-10 2.92074e-11 1.69056e-11 4.25847e-11 
667 2 0.284319 1.3208 2.4071 0 0 0 -3.46947e-11 -1.38713e-10 -4.64283e-11 2.53579e-11 1.25862e-10 4.15372e-11 2.10879e-11 7.32431e-12 2.0843e-11 0.5 -4.71958e-11 -2.0863e-10 -1.48381e-10 2.24748e-12 -2.46168e-12 8.43091e-12 
38 1 3.79042 0.738149 3.87284 0 0 0 -7.39381e-12 -6.01046e-12 -3.38084e-11 5.35547e-12 2.35583e-12 3.51157e-11 -2.31938e-11 -8.0583e-12 4.0856e-12 0.5 -6.6355e-11 -1.49032e-11 -1.6112e-10 -6.93867e-11 2.58566e-11 1.15191e-10 
936 2 0.319906 3.36948 3.50683 1 0 0 -6.1152e-11 -1.39989e-10 3.2287e-11 4.61239e-11 1.21214e-10 -2.50508e-11 2.21281e-11 -1.75182e-11 -1.43142e-11 0.5 4.80307e-12 -1.50699e-10 -6.21651e-11 1.3133e-12 6.75088e-11 8.94303e-11 
531 2 4.80013 0.808197 2.48028 0 0 0 -3.09889e-11 -6.61812e-11 -2.43501e-11 2.30527e-11 5.83506e-11 2.22312e-11 2.27739e-12 -6.30752e-12 -1.07685e-11 0.5 -2.91837e-11 2.48671e-13 -6.02599e-11 -3.34321e-11 -5.52603e-11 -2.8889e-11 
527 2 4.03024 4.31517 3.61908 0 0 0 1.62439e-11 -2.89301e-11 8.58198e-11 -1.4165e-11 2.43434e-11 -7.88665e-11 -1.23851e-11 -5.59862e-13 3.52836e-12 0.5 1.33427e-11 6.93713e-12 3.79131e-11 -1.63651e-11 -2.23046e-11 4.29602e-11 
383 1 4.36293 4.34454 2.28892 0 0 1 1.07382e-11 -1.63479e-11 6.06834e-11 -2.41805e-11 1.46857e-11 -5.38317e-11 3.69179e-12 -8.80182e-12 -2.04066e-12 0.5 -5.90237e-11 -1.52755e-11 2.24232e-11 3.04572e-11 -1.3215e-11 -1.9134e-11 
992 2 0.695682 0.439322 3.85269 1 1 0 -1.04734e-11 -1.44926e-10 -7.43228e-11 1.19569e-11 1.23007e-10 8.28411e-11 7.19981e-12 2.12486e-11 1.25416e-11 0.5 -5.40352e-11 -1.5222e-10 -4.37705e-11 4.41154e-11 -2.13532e-11 8.10613e-11 
521 2 4.93615 4.52796 3.25037 0 0 0 7.37227e-12 -2.19012e-11 6.76393e-11 -7.90332e-12 2.43232e-11 -5.57637e-11 -8.84663e-12 3.54769e-12 2.08893e-12 0.5 2.48947e-11 -4.43904e-11 -3.23934e-11 4.76213e-12 -9.38839e-12 4.02746e-11 
136 1 1.88498 1.67143 2.62265 0 0 0 -3.3999e-11 -1.25836e-10 -6.23683e-11 1.86526e-11 1.03618e-10 5.33794e-11 1.45179e-11 1.99409e-11 1.59197e-11 0.5 -1.35236e-10 -1.35645e-10 -8.18717e-11 9.8377e-11 -1.87576e-11 3.89927e-11 
540 2 4.51129 0.178592 3.415 0 0 0 -1.59125e-11 -3.63255e-11 -4.08698e-11 9.61439e-12 3.42131e-11 3.2328e-11 -1.40942e-11 1.07506e-11 -1.29873e-11 0.5 4.02414e-11 2.47313e-11 8.78352e-12 -2.29145e-11 -1.60089e-11 2.30767e-11 
510 2 3.85504 2.56842 3.17077 0 0 0 -2.39988e-11 -4.86843e-11 3.22519e-11 1.59547e-11 4.42691e-11 -3.31927e-11 4.51507e-12 -4.1126e-12 8.65768e-13 0.5 3.14712e-11 5.21677e-11 -3.30557e-11 1.28059e-11 4.5239e-12 4.36475e-11 
19 1 4.3655 1.84749 2.40882 0 0 0 -2.91742e-11 -1.83341e-12 4.10519e-12 1.78819e-11 7.80069e-12 -3.60228e-12 9.30213e-12 3.09771e-12 5.24538e-12 0.5 -1.26028e-10 -6.13721e-12 -6.81214e-11 6.9924e-12 5.62196e-11 1.26668e-11 
543 2 1.07326 1.78713 3.19513 0 0 0 -1.21507e-11 -1.35761e-10 -3.01086e-11 4.21802e-12 1.07001e-10 2.83959e-11 2.7005e-11 2.50175e-11 9.63999e-12 0.5 4.61419e-13 -1.26015e-11 -1.41493e-12 -1.94246e-11 1.65112e-11 8.65467e-12 
773 2 4.78774 2.22773 3.30763 0 0 0 -1.81925e-11 -3.7236e-11 2.66411e-11 1.15266e-11 3.26374e-11 -2.11112e-11 1.19275e-11 1.00609e-11 -9.73501e-12 0.5 1.57106e-11 -8.63189e-11 -1.66217e-10 -9.1435e-12 2.63212e-11 1.7699e-10 
555 2 2.23907 2.5056 3.89852 0 0 0 -7.62857e-14 -5.80752e-11 5.83627e-11 -6.39497e-12 8.92331e-12 -2.42422e-11 -9.00506e-12 -2.35756e-12 6.92242e-12 0.5 3.68413e-11 2.43059e-11 3.53648e-11 1.65272e-11 -2.35987e-12 4.9779e-11 
429 1 0.306925 2.40106 3.75655 1 0 0 -5.02555e-11 -1.51958e-10 -2.23173e-11 4.19478e-11 1.32755e-10 3.59512e-11 1.42488e-11 6.52347e-12 2.66124e-11 0.5 -2.50527e-11 -2.37032e-10 -1.39434e-10 5.35022e-11 -3.76766e-11 1.2652e-10 
316 1 0.889712 0.512877 2.86992 1 0 0 -4.3432e-11 -1.42258e-10 -8.02557e-11 3.429e-11 1.17967e-10 7.28295e-11 1.63088e-11 3.27178e-12 2.27764e-11 0.5 6.86527e-12 -2.9989e-11 -3.92234e-11 6.96591e-12 8.62817e-12 3.10682e-11 
503 2 3.61689 0.768796 2.88623 0 0 0 4.88249e-12 -6.12258e-11 -3.47368e-11 -1.83757e-12 5.06748e-11 2.81481e-11 -2.28875e-12 -7.48403e-12 1.40728e-11 0.5 -4.00118e-11 -2.71781e-13 -1.40703e-10 8.85851e-12 -1.87256e-11 3.98623e-11 
896 2 0.702247 3.66501 2.63024 1 0 0 8.28719e-12 -1.47304e-10 6.18393e-11 -4.01152e-12 1.40439e-10 -4.84857e-11 1.62078e-11 9.01989e-12 -6.26454e-12 0.5 -1.22199e-10 -3.30553e-11 -1.56735e-10 3.41072e-11 -6.47112e-11 4.83857e-11 
690 2 1.93672 4.67095 2.92999 0 0 0 1.66667e-12 -8.66595e-11 9.30719e-11 -3.79177e-11 1.07417e-10 -6.79873e-11 -6.1834e-13 7.38577e-12 2.64378e-11 0.5 -1.24471e-10 -5.92952e-11 -2.42502e-11 8.25326e-11 -8.04847e-13 -1.32978e-11 
641 2 3.45948 3.5005 3.22725 0 0 0 8.27632e-12 -2.96958e-11 6.49862e-11 -1.82559e-11 4.84422e-11 -8.64839e-11 -7.04339e-12 -2.47739e-12 9.51273e-12 0.5 -3.05903e-11 3.08946e-12 -1.12682e-10 2.54482e-11 -4.726e-11 1.01766e-10 
528 2 3.34275 4.80215 2.44243 0 0 0 1.78151e-11 -6.24956e-11 6.0756e-11 -1.74497e-11 5.7263e-11 -5.44481e-11 -2.09179e-12 1.97555e-12 4.36519e-12 0.5 -2.61594e-12 -4.69529e-12 -2.28448e-11 -7.50547e-12 -8.59098e-12 -1.39817e-11 
225 1 2.66658 2.37982 2.99794 0 0 1 -3.35591e-11 -7.55127e-11 4.12319e-11 2.32517e-11 7.30921e-11 -3.30117e-11 -6.78782e-12 1.53092e-11 5.37283e-12 0.5 -2.95152e-11 -7.59356e-11 -2.37861e-12 4.6065e-11 -3.30059e-11 4.38383e-12 
119 1 0.614476 2.84343 2.06694 0 0 0 -6.57561e-11 -1.15933e-10 2.8056e-11 5.40623e-11 1.09055e-10 -2.67269e-11 3.70471e-11 5.52455e-12 -9.43636e-15 0.5 1.18832e-11 -6.10806e-11 -8.60814e-11 2.55852e-11 3.18551e-11 1.03431e-11 
94 1 2.46189 3.50067 2.00487 0 0 1 -6.3546e-12 -8.25144e-11 8.73936e-11 4.36517e-12 7.03603e-11 -7.24489e-11 1.38283e-11 -2.50239e-12 5.64654e-12 0.5 1.74034e-11 3.38975e-11 1.16088e-11 2.74713e-11 2.04841e-11 3.20687e-11 
522 2 2.58373 2.50801 2.00903 0 0 0 -1.53559e-11 -8.40818e-11 3.86721e-11 2.44838e-11 7.44053e-11 -3.47675e-11 2.80517e-11 -8.4748e-12 1.28746e-11 0.5 1.72361e-11 1.49532e-11 -2.47427e-11 2.04648e-11 1.32965e-11 1.24015e-11 
200 1 2.46549 0.208501 4.19599 0 1 0 1.52499e-11 -4.78855e-11 -4.88504e-11 -1.00882e-11 2.98993e-11 -7.63381e-12 -2.67935e-11 -1.891e-11 4.91549e-11 0.5 -5.49021e-11 -2.93467e-11 -6.75039e-11 2.34222e-11 3.41166e-11 2.18989e-11 
114 1 4.70709 1.00384 4.17137 0 0 0 -1.28044e-11 -5.49674e-12 -2.00769e-11 1.34807e-11 9.97342e-13 2.51162e-11 -9.58518e-12 -7.70044e-12 -1.04131e-11 0.5 -5.44344e-11 -5.0754e-13 -2.46632e-11 -7.08758e-12 -3.77201e-11 -1.11178e-12 
820 2 1.30996 2.29325 4.21136 1 0 0 -4.3682e-12 -1.04551e-10 1.9365e-11 -2.99592e-12 8.69224e-11 -1.70821e-11 -1.82153e-11 -1.00554e-11 3.02731e-11 0.5 2.31949e-11 3.50439e-11 -2.53502e-11 1.02123e-10 1.36707e-11 4.58341e-11 
47 1 4.65574 1.582 5.43553 0 0 0 1.48476e-11 1.54146e-11 4.22481e-12 -1.37782e-11 -9.3015e-12 -6.86489e-12 2.41818e-12 1.58645e-11 7.69604e-12 0.5 -4.11081e-11 -7.18165e-11 -2.90441e-11 -1.75803e-11 -3.59842e-11 6.29232e-11 
824 2 1.64908 3.83184 5.79238 1 0 0 8.25704e-12 3.04356e-11 9.54524e-11 -9.73419e-12 -2.27212e-11 -7.56217e-11 -1.9817e-11 4.03558e-12 -5.83901e-12 0.5 -1.154e-11 -1.04171e-11 -4.32674e-11 -4.54991e-13 -4.9234e-12 1.65332e-11 
172 1 3.44268 0.338821 4.72114 0 1 0 -1.88258e-11 3.74459e-11 -1.82883e-11 1.613e-11 -2.45948e-11 -3.68581e-12 -3.32098e-11 -8.9381e-12 1.84925e-11 0.5 -5.63366e-11 -5.95026e-11 -2.12295e-10 -4.88211e-11 4.86258e-11 8.67177e-11 
718 2 0.202285 2.03673 5.5128 0 1 0 -1.91144e-11 -4.68336e-11 3.31658e-11 1.47205e-11 4.07949e-11 -2.57346e-11 -2.43208e-11 -9.18182e-12 -6.01053e-12 0.5 -1.05105e-10 -2.43001e-11 -6.78874e-11 5.0211e-11 -5.40757e-11 1.42715e-10 
505 2 0.484433 3.5018 5.83385 0 0 -1 -1.26855e-11 2.88318e-11 7.67625e-11 7.2064e-12 1.73137e-12 -8.2897e-11 3.99796e-12 -1.17664e-11 3.17921e-11 0.5 2.65324e-12 -1.94622e-10 -9.68383e-11 1.17866e-11 -1.20327e-12 1.57926e-10 
524 2 3.99535 2.7352 5.70679 0 0 0 6.05533e-11 1.05809e-10 9.4093e-11 -5.55945e-11 -9.0547e-11 -8.27573e-11 -2.27773e-11 6.58655e-11 2.95698e-11 0.5 2.12301e-12 1.53045e-11 1.95709e-11 -1.46347e-11 -1.59569e-11 1.82611e-11 
839 2 0.579387 1.61472 4.31101 1 0 0 1.63412e-11 -1.38042e-10 -3.30722e-11 -1.0341e-11 1.20667e-10 2.1028e-11 -9.56769e-12 1.78958e-12 2.63691e-11 0.5 -8.899e-12 -1.46616e-10 -9.32597e-11 1.08163e-10 -1.19782e-11 1.57993e-10 
937 2 2.44361 3.38654 4.3372 1 0 0 1.44965e-11 -4.79418e-11 4.43538e-11 1.26487e-12 3.18757e-11 -4.72885e-11 -1.85799e-11 -9.65207e-12 2.54436e-11 0.5 3.99916e-11 5.27525e-11 -9.13607e-11 6.94196e-11 3.13303e-12 4.34919e-11 
811 2 2.60623 3.94632 5.52498 1 0 0 -2.53951e-12 3.30362e-11 5.82396e-11 -1.75497e-12 -2.71133e-11 -4.94745e-11 -2.1985e-11 -9.3247e-12 4.75478e-14 0.5 -8.35324e-12 -3.52657e-11 -1.22572e-11 -1.33189e-11 -1.93579e-11 3.93886e-11 
827 2 1.52088 3.18133 4.66349 1 0 0 2.24516e-11 -1.04932e-10 3.16155e-11 -1.67327e-11 9.67324e-11 -6.77667e-11 -3.26942e-11 -1.48973e-11 4.6569e-12 0.5 1.94229e-11 -1.55488e-11 -1.28107e-10 8.94173e-12 1.37438e-11 8.65654e-11 
149 1 4.05563 3.93275 4.61881 0 0 0 -3.41954e-12 2.23109e-11 7.24831e-11 6.5536e-13 -1.39239e-11 -5.73657e-11 -1.38582e-11 5.59539e-12 1.97379e-11 0.5 -5.04884e-11 -3.99871e-11 2.24406e-11 1.20922e-10 -8.06836e-11 2.99514e-11 
925 2 0.623246 3.59905 4.52293 1 0 0 3.17332e-11 -8.91172e-11 1.65788e-11 -3.43232e-11 7.73896e-11 -1.772e-11 -3.03959e-11 1.3836e-11 -4.11237e-12 0.5 3.77475e-11 -4.9075e-11 -1.16653e-11 -1.22984e-11 -9.18778e-12 2.43999e-11 
168 1 3.33522 4.60361 5.33159 0 0 0 3.13323e-12 3.05606e-11 7.34971e-11 -5.1504e-12 -2.65844e-11 -6.12512e-11 -2.06128e-11 -1.02975e-11 1.82383e-11 0.5 -5.92534e-11 -4.53994e-11 -4.8447e-11 2.37568e-11 -3.6215e-11 3.90973e-11 
928 2 1.57471 4.4088 4.9787 1 0 0 1.61226e-11 2.29547e-11 9.02108e-11 -7.94086e-12 -2.30424e-11 -7.53271e-11 -1.265e-11 6.84511e-12 -1.07441e-11 0.5 -2.36256e-11 -2.59951e-11 -2.81099e-11 -1.11409e-11 -7.49939e-13 2.60826e-11 
148 1 3.93983 3.74234 5.7457 0 0 0 -1.43504e-11 1.02729e-10 1.04765e-10 1.26472e-11 -8.48385e-11 -9.18353e-11 -2.76074e-11 -7.83242e-12 4.66331e-11 0.5 2.5752e-11 5.25438e-11 6.54442e-11 4.10588e-11 4.4825e-11 4.01886e-11 
914 2 4.69244 4.38506 5.24423 0 0 0 -3.55739e-11 6.65785e-11 7.38832e-11 3.1851e-11 -5.41146e-11 -6.32788e-11 -4.22306e-11 -5.73322e-12 7.33145e-13 0.5 -3.18392e-12 1.42716e-11 2.30821e-11 5.3428e-12 6.85132e-12 1.44592e-11 
23 1 2.87773 1.11847 4.05716 0 0 0 -1.86883e-11 -3.28567e-11 -4.09958e-11 1.12994e-11 3.06595e-11 3.39114e-11 1.27961e-11 2.31582e-12 1.32008e-11 0.5 -5.04803e-11 -4.62213e-11 -4.14025e-11 -1.3156e-11 2.40141e-11 3.97052e-11 
594 2 2.05586 1.97089 4.80241 0 0 0 1.3474e-11 9.34577e-12 5.24072e-11 -1.54551e-11 -7.55479e-12 -4.38453e-11 1.18844e-11 -1.26521e-11 3.84936e-11 0.5 2.47274e-12 -6.32697e-11 -1.39491e-11 5.53053e-11 -2.83874e-11 4.04731e-11 
539 2 3.78455 1.04074 5.46912 0 0 0 -1.96476e-12 7.83458e-11 1.63275e-11 1.2375e-11 -5.9161e-11 -2.14453e-11 -1.25602e-11 2.32729e-11 -4.48195e-12 0.5 -2.09764e-11 -2.19944e-10 -9.22374e-11 -6.76634e-11 -5.96557e-11 1.85451e-10 
730 2 0.461765 1.11568 5.16957 0 1 0 -1.17849e-11 -5.08566e-11 1.33221e-11 2.78909e-12 2.40958e-11 4.55832e-12 -1.0456e-11 -6.30398e-12 3.67024e-11 0.5 5.62411e-11 -7.60468e-12 -5.6753e-11 1.18762e-11 -1.52252e-11 1.07711e-10 
689 2 3.51933 0.103669 5.69619 0 1 0 -1.83741e-11 7.48184e-11 -2.03294e-11 4.92226e-12 -6.99841e-11 1.5961e-11 -8.46107e-12 -5.62587e-12 1.20918e-12 0.5 -8.54886e-11 -2.69503e-10 -2.29693e-10 -2.54965e-11 4.01901e-12 2.00583e-10 
450 1 0.619288 4.79871 4.46892 1 0 0 8.10908e-11 -6.37234e-11 6.72521e-11 -7.37871e-11 6.06273e-11 -7.19233e-11 -5.70934e-11 -1.3569e-11 1.09028e-11 0.5 -2.54318e-11 -7.55661e-11 -1.66454e-10 7.37602e-12 -2.8414e-11 9.13131e-11 
549 2 4.49944 0.500888 5.01435 0 0 0 -4.42474e-11 2.84116e-11 -6.31193e-12 4.15552e-11 -3.4531e-11 8.59062e-12 -9.34403e-12 7.83795e-12 -2.22108e-11 0.5 7.97794e-11 9.78394e-11 4.14246e-11 -4.5174e-11 -2.05782e-11 4.44238e-11 
591 2 1.44655 1.12499 4.40334 0 0 0 3.49259e-11 -1.08086e-10 -6.06306e-11 -2.8186e-11 9.01526e-11 5.33865e-11 -1.57279e-11 1.95097e-11 1.32605e-12 0.5 -6.01939e-11 -8.76872e-11 -6.86565e-11 2.36107e-11 6.59532e-12 6.76389e-11 
243 1 1.20287 1.83742 5.34381 0 1 0 -2.48614e-11 -8.29558e-12 2.71763e-12 1.78447e-11 -1.05812e-11 -5.41465e-12 -9.88336e-12 -5.32921e-12 1.96422e-11 0.5 -2.95101e-11 -4.24082e-11 -9.65269e-12 4.8057e-11 -2.21335e-11 4.42119e-11 