ITEM: TIMESTEP
182500
ITEM: NUMBER OF ATOMS
1000
ITEM: BOX BOUNDS xy xz yz pp pp pp
0.0000000000000000e+00 1.0000000000000000e+01 0.0000000000000000e+00
0.0000000000000000e+00 1.0000000000000000e+01 0.0000000000000000e+00
0.0000000000000000e+00 1.0000000000000000e+01 0.0000000000000000e+00
ITEM: ATOMS id type x y z ix iy iz vx vy vz fx fy fz omegax omegay omegaz radius c_2[1] c_2[2] c_2[3] c_2[4] c_2[5] c_2[6] 
120 1 3.15852 1.54146 0.0722925 0 1 0 -2.48654e-08 6.3744e-08 4.35148e-08 2.25741e-08 -5.47904e-08 -3.81453e-08 3.82668e-08 3.7926e-09 -2.35715e-08 0.5 -3.22022e-08 -1.67874e-07 -1.52013e-08 -1.86143e-08 -7.50588e-09 -3.98078e-08 
525 2 2.11627 1.23431 1.69988 0 0 0 -5.29768e-08 -1.46902e-07 -1.07912e-07 4.37409e-08 1.25124e-07 9.51618e-08 -1.58739e-08 7.42377e-09 4.39706e-08 0.5 2.08564e-09 -1.0353e-08 6.01143e-09 1.29289e-08 6.86152e-09 -4.44882e-09 
371 1 4.95931 3.68326 1.58374 0 0 1 3.30027e-08 -6.33962e-08 9.53787e-08 -2.83484e-08 5.6495e-08 -8.37742e-08 7.63599e-09 -4.59204e-09 4.84861e-09 0.5 -1.92113e-08 -8.62654e-08 5.85646e-08 -1.01023e-08 -9.8719e-09 1.12947e-08 
18 1 1.98117 2.69195 0.532518 0 0 0 -2.62647e-08 -1.792e-09 1.01496e-07 2.15654e-08 1.20848e-09 -8.73705e-08 6.32069e-08 -2.16892e-08 1.97685e-08 0.5 -4.78668e-08 -1.23616e-07 -7.28725e-08 9.89494e-08 4.83955e-08 -5.82032e-08 
868 2 2.87004 3.00634 0.028912 0 0 1 1.49454e-08 -1.26307e-08 9.01039e-08 -1.15352e-08 1.06543e-08 -7.85445e-08 5.39554e-08 -1.01488e-08 2.22233e-08 0.5 -7.88745e-08 -1.27235e-07 -2.65953e-08 9.43961e-08 -6.31285e-10 4.8646e-09 
25 1 1.41548 0.708705 1.0832 0 0 0 -2.21587e-08 -4.79116e-08 -1.11599e-07 1.87266e-08 3.94705e-08 9.90771e-08 4.55171e-08 -1.18266e-08 2.57972e-08 0.5 -4.06697e-08 -2.73781e-07 -1.50491e-07 9.66149e-08 7.70501e-08 -1.18666e-07 
378 1 4.61919 2.40719 0.0725815 0 0 1 4.75142e-09 3.87048e-08 7.18176e-08 -3.5986e-09 -3.19963e-08 -6.33692e-08 6.10223e-08 1.58808e-08 -1.144e-08 0.5 -3.35716e-08 -8.88124e-08 -5.04156e-08 -1.29771e-08 -1.25597e-08 -7.14028e-08 
8 1 3.44143 2.06796 1.74253 0 0 0 -1.34927e-09 -7.01836e-08 3.04225e-08 4.57e-10 6.10133e-08 -2.73002e-08 5.09671e-08 -1.42207e-08 9.55814e-09 0.5 1.31564e-08 5.57078e-10 2.17288e-08 2.12151e-08 3.37822e-09 1.67332e-08 
629 2 4.07713 2.6156 1.19812 0 0 1 1.86137e-08 -3.6158e-08 8.7522e-08 -1.66417e-08 3.21384e-08 -7.6007e-08 5.87827e-08 -1.43267e-08 1.12562e-09 0.5 -9.31078e-08 -2.73092e-08 -8.38935e-08 1.17226e-08 -5.75496e-08 -3.05126e-08 
5 1 2.34651 3.9005 1.05345 0 0 0 -1.23855e-08 -1.16814e-07 1.1715e-07 1.14065e-08 1.01121e-07 -1.00975e-07 3.53657e-09 8.34254e-09 2.40373e-08 0.5 -8.86086e-09 -1.39749e-08 -2.04035e-08 1.65948e-08 5.72389e-09 -4.72083e-09 
650 2 0.459129 3.43666 1.12967 0 0 0 -6.88345e-08 -1.15209e-07 1.40783e-08 5.90967e-08 9.73773e-08 -9.36682e-09 6.67941e-08 8.19483e-09 9.12257e-10 0.5 -9.53728e-08 -1.09275e-07 -1.15124e-07 7.60678e-08 8.02219e-08 -5.19457e-08 
14 1 3.29515 3.13364 1.54473 0 0 0 5.25588e-09 -6.28099e-08 9.72645e-08 -4.68116e-09 5.57891e-08 -8.44059e-08 1.85471e-08 1.17611e-08 7.39722e-09 0.5 -6.95357e-09 -2.55971e-08 -4.59403e-08 3.54539e-08 -4.32127e-09 -2.48976e-08 
264 1 3.99643 3.86789 1.37953 0 0 0 3.16828e-08 -7.18383e-08 9.57815e-08 -2.72625e-08 6.36671e-08 -8.39006e-08 2.83247e-08 6.65955e-09 3.80599e-09 0.5 -2.56733e-08 -1.1765e-09 -5.08705e-08 3.0977e-08 6.26602e-09 -7.4885e-09 
223 1 0.747634 2.47805 1.14565 0 0 1 -6.88662e-08 -1.13407e-07 1.50473e-08 5.84458e-08 9.55933e-08 -1.10305e-08 6.89415e-08 -2.72394e-08 1.0259e-08 0.5 -5.09511e-08 -1.21952e-07 -2.93868e-07 4.00492e-08 1.17498e-07 -7.26374e-08 
364 1 4.4227 4.23693 0.53984 0 0 1 6.7545e-09 2.8107e-08 1.27085e-07 -3.62656e-09 -2.35968e-08 -1.1062e-07 3.58434e-08 -3.03797e-09 1.72833e-08 0.5 1.30479e-09 1.04309e-08 -9.35092e-10 3.51969e-09 2.13204e-08 -1.6067e-08 
107 1 1.66076 1.61825 0.747451 0 0 1 -5.13022e-08 -1.95303e-08 -5.42589e-08 4.32006e-08 1.51578e-08 4.95505e-08 6.97309e-08 -4.93032e-09 7.28297e-09 0.5 5.13475e-08 -6.28276e-08 -6.15741e-08 -4.03898e-09 7.98233e-10 -3.96924e-08 
529 2 2.67265 2.1996 1.06195 0 0 0 2.70304e-09 -3.96193e-08 2.78045e-08 -3.82539e-09 3.3617e-08 -2.35619e-08 6.33437e-08 3.81338e-11 1.62268e-08 0.5 -1.82562e-08 -4.31904e-08 -5.12003e-08 3.09831e-08 -1.5154e-08 9.7857e-09 
515 2 4.38643 0.435908 1.64385 0 0 0 7.40491e-09 -7.42601e-08 -4.34522e-08 -6.06e-09 6.48244e-08 3.5908e-08 3.81279e-08 -2.46217e-09 7.27714e-09 0.5 -2.07528e-08 -4.30475e-08 -8.39856e-08 -7.39406e-08 1.03174e-08 1.76334e-08 
244 1 4.11373 0.570462 0.682724 0 1 1 8.92817e-09 1.67641e-08 -2.85324e-08 -7.35287e-09 -1.30743e-08 2.31611e-08 5.5389e-08 1.65592e-08 -4.08602e-10 0.5 -2.94722e-08 -2.57737e-08 -7.87316e-08 -6.84027e-09 1.92004e-08 1.17047e-08 
20 1 2.90179 0.570818 1.78382 0 0 0 4.68043e-09 -6.67539e-08 -5.68594e-08 -4.34136e-09 5.74912e-08 4.84329e-08 2.50493e-08 -1.68784e-08 1.24707e-08 0.5 -4.91025e-08 -1.09839e-07 -1.58822e-07 3.25899e-08 7.27018e-08 -9.08636e-08 
280 1 4.09077 1.582 1.14626 0 0 0 9.28783e-09 -2.32775e-08 5.42647e-09 -8.63176e-09 2.09818e-08 -6.20747e-09 5.8373e-08 -6.29435e-09 3.93556e-10 0.5 -3.21702e-08 -3.88119e-08 -1.10418e-07 6.51325e-09 6.50627e-08 2.17286e-08 
620 2 1.3946 4.37082 0.857654 0 0 1 -3.90593e-09 -7.68068e-08 8.6784e-08 6.23027e-09 6.60052e-08 -7.28711e-08 4.77974e-08 2.99779e-08 -2.24198e-08 0.5 -2.56847e-08 -1.18646e-07 -1.76507e-07 3.52774e-11 -1.0863e-08 2.04015e-08 
1000 2 3.60332 2.39824 0.339819 0 1 1 4.59851e-08 1.68382e-08 6.60083e-08 -3.78576e-08 -1.44263e-08 -5.84099e-08 4.35623e-08 -2.19591e-09 -2.40841e-09 0.5 -6.86834e-08 -1.27351e-07 -7.48987e-08 -9.74482e-09 -5.90521e-08 -1.98564e-08 
103 1 3.28431 3.68319 0.698946 0 0 1 1.60561e-09 -3.4725e-08 1.17865e-07 -9.37334e-10 3.01476e-08 -1.02889e-07 3.6229e-08 2.4735e-09 1.84127e-08 0.5 -2.29996e-08 -1.76725e-08 -3.38559e-08 2.32007e-08 6.49351e-09 -6.91212e-09 
622 2 0.930663 4.80385 0.0848387 0 0 1 -5.21921e-09 -3.0293e-09 1.28885e-07 7.21502e-09 1.94766e-09 -1.09328e-07 6.43455e-08 -6.58564e-09 -6.57654e-09 0.5 -1.2925e-09 1.2135e-08 -8.02573e-08 -8.25795e-09 -3.38425e-08 1.81818e-08 
506 2 0.74356 1.4513 1.18235 0 0 0 -7.53272e-08 -1.15791e-07 -9.7177e-08 6.41927e-08 9.77594e-08 8.66718e-08 5.51474e-08 -1.04664e-08 3.52897e-08 0.5 2.36459e-08 -1.59882e-07 -2.48126e-08 1.85567e-07 4.02669e-08 -9.91821e-08 
626 2 1.28815 3.41645 0.566227 0 0 1 -6.71913e-08 -4.51466e-08 1.92851e-08 5.74204e-08 3.89654e-08 -1.43317e-08 3.2384e-08 -2.29375e-08 9.63417e-09 0.5 -9.04474e-08 -1.31847e-07 -2.52319e-08 7.03066e-08 6.17035e-08 -3.93201e-08 
553 2 0.744043 0.0774005 1.56305 0 0 0 -1.24179e-08 -8.74842e-08 -1.45011e-07 9.85768e-09 7.40855e-08 1.28904e-07 4.88985e-09 -2.9198e-08 4.39675e-08 0.5 1.65792e-08 9.37167e-09 1.3243e-08 1.10709e-10 8.35318e-09 -2.16995e-08 
135 1 1.54769 3.20472 1.67709 0 0 0 2.77341e-08 -1.13326e-07 7.33258e-09 -2.48218e-08 9.68939e-08 -4.43032e-09 3.87023e-08 -5.49886e-08 -1.1973e-08 0.5 6.46022e-09 -2.45912e-07 -4.72635e-08 6.08129e-08 2.55274e-08 -1.69132e-09 
624 2 4.32461 4.92098 1.47156 0 0 1 4.36118e-08 -2.56922e-08 9.92308e-08 -3.52176e-08 2.48402e-08 -8.73583e-08 2.50166e-08 2.2054e-09 1.36486e-08 0.5 2.11833e-08 1.65143e-08 -6.51817e-08 1.94727e-08 -3.96543e-08 -4.90358e-08 
256 1 4.58719 1.36786 0.305 0 0 0 1.26966e-08 2.54968e-08 -5.00913e-09 -1.11757e-08 -2.02749e-08 2.84011e-09 5.87558e-08 1.17718e-08 -1.92263e-08 0.5 -1.61577e-08 -5.44326e-08 -7.978e-08 -3.52615e-08 1.40049e-08 -7.59322e-08 
260 1 3.31854 0.0700552 1.02517 0 0 0 1.98245e-08 -3.06288e-08 -7.24443e-08 -1.57863e-08 2.71105e-08 6.22533e-08 2.5919e-08 2.81549e-08 -2.82474e-09 0.5 -3.41316e-08 -1.02501e-07 -1.13264e-07 -3.27402e-09 2.03431e-08 -6.78535e-08 
616 2 3.19106 4.4806 1.50664 0 0 1 2.63956e-08 -9.67108e-08 9.43448e-08 -2.35298e-08 8.42056e-08 -8.29807e-08 -5.50742e-09 9.57738e-09 1.43589e-08 0.5 -4.44471e-08 -1.74943e-08 -1.97548e-08 2.68902e-08 5.422e-09 -1.16359e-08 
106 1 1.74522 2.23558 1.52961 0 0 1 3.57724e-09 -1.20095e-07 1.9216e-08 -4.60698e-09 1.02542e-07 -1.42792e-08 5.04211e-08 -1.9809e-08 -1.23429e-08 0.5 2.60034e-08 -1.30247e-07 -4.11578e-08 3.70117e-08 4.23684e-08 -4.72103e-08 
157 1 1.3897 4.17879 1.83903 0 0 0 3.35364e-08 -1.24046e-07 7.77613e-08 -2.85436e-08 1.06343e-07 -6.51814e-08 4.72838e-08 8.96154e-09 5.52728e-09 0.5 -5.52177e-08 -1.8516e-07 -1.96419e-07 4.02671e-08 6.51716e-08 -3.67706e-08 
516 2 2.34691 0.89043 0.68796 0 0 0 -1.04253e-08 1.74243e-08 -3.37405e-08 8.17203e-09 -1.63372e-08 3.03795e-08 5.42811e-09 -2.08376e-08 -1.12732e-09 0.5 1.18641e-08 -4.7825e-08 -1.45608e-08 1.07927e-08 3.61454e-08 -4.76539e-08 
183 1 0.415258 4.58221 1.00381 0 0 0 3.09929e-09 -1.08803e-07 1.83953e-07 5.22002e-10 9.36003e-08 -1.55034e-07 9.37418e-08 4.60924e-08 5.67156e-09 0.5 2.69103e-09 -6.27879e-09 9.91219e-09 7.81263e-09 -1.31753e-08 9.56491e-09 
625 2 0.399951 3.91216 0.210014 0 0 1 -2.96338e-08 5.35037e-09 8.58472e-08 2.77084e-08 -5.01483e-09 -7.05772e-08 9.11531e-08 -7.04763e-09 -3.75522e-08 0.5 -4.21329e-09 -2.15419e-10 -1.85669e-08 -4.68039e-09 -7.27702e-09 1.69172e-08 
91 1 2.22066 4.71676 1.69645 0 0 1 3.13515e-08 -1.14091e-07 1.07075e-07 -2.75337e-08 9.87278e-08 -9.20225e-08 3.95835e-09 -7.93949e-11 1.96602e-09 0.5 -5.07043e-08 -3.49715e-08 -1.43715e-08 -1.31829e-08 1.15728e-08 -1.08931e-08 
257 1 4.94043 2.69123 1.70827 0 0 0 1.97581e-08 -6.56606e-08 7.54465e-08 -1.73866e-08 5.84868e-08 -6.62876e-08 2.5072e-08 1.13311e-09 -8.15772e-09 0.5 -1.06034e-07 -7.44461e-08 -1.86442e-07 7.75589e-09 -6.05141e-08 -3.50915e-08 
4 1 3.72174 1.12777 1.95711 0 0 0 6.47846e-09 -8.06232e-08 -2.79443e-08 -5.74135e-09 6.99777e-08 2.25235e-08 3.84558e-08 -3.61081e-09 2.3248e-09 0.5 -1.82181e-08 -3.20621e-08 -1.33997e-07 -2.68494e-08 2.67715e-08 6.67485e-08 
609 2 1.99624 4.76004 0.136921 0 0 1 2.96771e-09 -4.20319e-08 1.30046e-07 -9.48184e-10 3.60191e-08 -1.12092e-07 2.03053e-08 -1.65038e-08 1.98933e-08 0.5 -2.15741e-07 -6.61639e-07 -9.58488e-08 1.83327e-07 5.21882e-08 -1.3975e-07 
117 1 3.12746 1.31374 1.15363 0 1 0 1.34622e-08 -3.91867e-08 -2.12257e-08 -1.19808e-08 3.37053e-08 1.76536e-08 5.03982e-08 -3.7063e-09 1.69522e-09 0.5 7.21249e-09 -3.66583e-08 -3.11863e-09 1.6842e-08 7.45179e-09 2.72397e-08 
511 2 1.08079 2.25054 0.230642 0 0 0 -2.5466e-08 4.30764e-08 -8.13989e-09 2.15151e-08 -3.89056e-08 9.03424e-09 8.84364e-08 -1.82029e-08 -1.82473e-08 0.5 -3.77734e-08 -1.13732e-07 -2.67937e-07 2.38564e-08 1.13119e-07 -6.98087e-08 
911 2 0.492018 0.563612 0.697613 1 0 0 -1.73996e-08 -6.10045e-08 -1.3613e-07 1.46525e-08 4.99802e-08 1.20638e-07 1.09742e-08 -1.75583e-08 2.50353e-09 0.5 2.85817e-08 -1.203e-07 4.01782e-10 -1.22932e-08 1.04038e-08 -4.82064e-08 
668 2 0.00216516 3.81975 1.93315 0 0 0 -1.23602e-08 -2.08534e-07 8.76705e-08 9.21858e-09 1.7742e-07 -7.32866e-08 2.2492e-08 1.8516e-08 -1.7831e-08 0.5 -1.64322e-07 -4.05474e-07 -1.70007e-07 1.22266e-07 -4.32975e-08 -6.15737e-09 
90 1 2.93989 4.58015 0.420403 0 0 1 -1.79464e-10 -2.73266e-08 1.43952e-07 2.50382e-09 2.4217e-08 -1.26119e-07 2.19435e-08 -6.38984e-09 2.45045e-08 0.5 -4.46055e-08 5.79937e-08 -4.97657e-09 8.70856e-08 4.93691e-08 2.14883e-08 
734 2 4.13742 3.24508 0.37494 0 1 1 2.81932e-08 2.50599e-08 1.25213e-07 -2.3833e-08 -2.06525e-08 -1.09494e-07 5.54101e-08 7.26352e-09 7.34216e-09 0.5 -4.20243e-08 -3.07714e-08 -5.63493e-09 2.374e-08 1.84509e-08 -2.19456e-08 
672 2 0.0675425 1.98557 1.68985 0 0 0 -8.98473e-08 -1.67509e-07 -6.19496e-08 7.68465e-08 1.42632e-07 5.61728e-08 5.82215e-08 -1.11659e-08 1.98585e-08 0.5 -2.01827e-07 -4.05259e-07 -1.54302e-07 1.56652e-07 1.1273e-07 2.08904e-09 
759 2 4.95866 2.03867 0.950748 0 0 0 1.8603e-08 -2.5741e-08 4.10086e-08 -1.69406e-08 2.38267e-08 -3.63989e-08 5.13641e-08 -7.05178e-09 -1.35163e-08 0.5 -1.29418e-08 -1.34078e-07 -6.0518e-08 -2.36006e-08 -9.57102e-09 -1.66498e-08 
21 1 1.84566 0.35675 2.43115 0 0 0 -2.68165e-08 -1.21616e-07 -1.02506e-07 2.33952e-08 1.04663e-07 8.9631e-08 2.40344e-08 -2.57153e-08 3.60544e-08 0.5 3.04051e-09 -5.02701e-10 -1.77072e-09 4.44195e-09 5.49423e-09 -1.38788e-08 
682 2 2.73058 4.0836 2.7725 0 0 0 2.35865e-08 -7.97889e-08 8.4692e-08 -2.07955e-08 6.93154e-08 -7.35044e-08 -7.01874e-10 2.86443e-09 8.4753e-09 0.5 -1.20286e-07 -8.01439e-08 -1.94545e-08 6.89807e-08 5.84078e-08 9.27419e-08 
907 2 0.982097 4.62503 2.63573 1 0 0 1.76285e-08 -1.71792e-07 9.64366e-08 -1.63731e-08 1.45872e-07 -8.1134e-08 7.85068e-09 -1.77386e-08 9.34796e-09 0.5 -1.31377e-07 -1.63762e-07 -1.81082e-07 5.98288e-08 8.09672e-08 -5.82729e-08 
144 1 1.68507 3.60062 2.81087 0 0 0 2.97416e-08 -1.49546e-07 1.69057e-08 -2.68087e-08 1.27785e-07 -1.38981e-08 -2.99094e-09 9.0423e-09 8.95354e-10 0.5 -7.58251e-08 -2.30276e-08 -3.3364e-08 4.67589e-08 -1.4306e-08 -6.88306e-10 
675 2 2.83107 4.7385 3.54541 0 0 0 5.92346e-09 -5.56608e-08 8.619e-08 -8.14934e-09 4.97028e-08 -7.51573e-08 -1.91687e-08 1.21383e-08 -3.52468e-09 0.5 5.36843e-09 2.65005e-08 5.20174e-08 2.49505e-08 -9.42509e-09 4.64469e-08 
502 2 4.38953 1.31124 3.26921 0 0 0 -5.28147e-09 -6.01748e-08 -2.1846e-08 2.29169e-09 5.40849e-08 1.72803e-08 9.7644e-09 2.63114e-09 -6.08222e-09 0.5 -9.28666e-08 -4.79984e-08 -5.89662e-08 -4.85176e-08 4.78183e-08 9.79586e-08 
27 1 2.60908 0.300739 3.21066 0 0 0 -1.30363e-09 -9.6792e-08 -6.78987e-08 -8.26514e-10 8.29888e-08 5.80667e-08 -1.28102e-09 -1.45884e-08 1.66194e-08 0.5 -8.5281e-08 -1.06638e-07 -2.03312e-07 4.14216e-08 7.07399e-08 1.64583e-08 
965 2 1.35576 3.65812 3.79896 1 0 0 4.13612e-08 -1.77267e-07 2.19901e-09 -3.65036e-08 1.50395e-07 -6.2682e-10 -1.10088e-08 2.85519e-08 -2.46054e-08 0.5 -3.48056e-08 -1.04178e-07 -1.1646e-07 6.02452e-08 -3.82716e-08 7.11998e-08 
61 1 1.66165 0.448609 3.51352 0 0 0 -2.75406e-08 -1.50891e-07 -1.35342e-07 2.22152e-08 1.27636e-07 1.18669e-07 2.90946e-09 -6.77056e-09 2.78256e-08 0.5 -6.05139e-08 -2.51341e-09 -1.20948e-08 1.40784e-08 4.13193e-08 -4.69132e-09 
680 2 1.1901 2.78151 3.34693 0 0 0 -3.3322e-08 -1.60435e-07 -2.58623e-09 2.73697e-08 1.35948e-07 3.57177e-09 7.10311e-09 1.56176e-08 -4.1135e-09 0.5 1.16063e-09 -3.4726e-08 -5.38345e-08 7.62547e-09 2.35235e-08 1.62454e-08 
251 1 4.71421 3.03382 3.89556 0 0 0 4.83982e-08 -7.5862e-08 7.48095e-08 -4.37607e-08 6.74604e-08 -6.59869e-08 2.99645e-08 2.25087e-08 -3.32369e-08 0.5 -1.04806e-07 -2.1791e-08 3.96462e-09 -7.47343e-08 3.37781e-08 6.29965e-08 
517 2 4.0089 2.89361 2.21821 0 0 0 2.59404e-08 -7.1493e-08 7.00613e-08 -2.2192e-08 6.42889e-08 -6.11799e-08 1.201e-08 3.8377e-09 -5.90224e-09 0.5 -6.54592e-10 -1.21285e-09 -3.36678e-08 -1.39709e-09 -6.78642e-09 1.75004e-08 
6 1 3.42179 1.77987 2.73262 0 0 0 -1.02493e-08 -6.47824e-08 3.68419e-08 7.00552e-09 5.64121e-08 -3.28625e-08 3.62819e-08 -6.29283e-09 2.24014e-08 0.5 -1.16136e-07 2.00976e-08 1.56363e-08 4.45347e-08 5.51824e-08 3.28091e-08 
519 2 4.43345 3.61408 3.03093 0 0 0 1.73045e-08 -4.89063e-08 1.06599e-07 -1.56107e-08 4.49325e-08 -9.35149e-08 1.26305e-08 9.00038e-09 -4.10946e-09 0.5 5.16198e-09 5.83433e-08 3.90017e-08 -4.13583e-08 -1.42916e-08 3.04684e-08 
509 2 1.93621 1.51608 3.62332 0 0 0 3.48882e-08 -1.38117e-07 -1.15204e-07 -3.18192e-08 1.16311e-07 1.01462e-07 -1.00981e-08 4.80841e-08 -4.08865e-10 0.5 1.40869e-08 -1.5926e-08 -1.24994e-07 -1.54563e-08 2.6741e-08 3.53436e-08 
142 1 1.03537 1.94217 2.17003 0 0 0 -5.13182e-08 -1.33671e-07 -4.78818e-08 4.27681e-08 1.13528e-07 4.33372e-08 5.03932e-08 5.41899e-10 9.14895e-09 0.5 -1.82699e-09 -2.30703e-08 -3.2653e-08 3.44503e-08 -1.34244e-08 3.84997e-08 
941 2 0.192203 2.2584 2.77344 1 0 0 -7.31351e-08 -1.95962e-07 -4.05594e-08 6.196e-08 1.67338e-07 3.71784e-08 3.01047e-08 3.65005e-09 7.36107e-09 0.5 -2.56367e-08 -8.13138e-08 -1.14672e-07 2.96108e-09 1.58801e-08 9.96127e-09 
919 2 0.650389 4.31552 3.53385 1 0 0 1.84295e-09 -1.90059e-07 7.54953e-08 -2.60428e-09 1.61572e-07 -6.30032e-08 2.61329e-08 9.22008e-09 -3.052e-08 0.5 -7.903e-08 -1.38791e-07 -8.18164e-08 7.79975e-08 -4.6663e-10 5.0117e-08 
95 1 3.53903 3.77814 2.2694 0 0 1 3.31016e-08 -6.89048e-08 9.33304e-08 -2.87471e-08 6.18962e-08 -8.1759e-08 2.21192e-09 1.0748e-09 3.88821e-09 0.5 -6.12874e-08 -2.03921e-08 -1.05148e-07 9.76816e-09 3.62974e-08 -1.3229e-08 
458 1 1.5569 4.7536 3.86468 1 0 0 1.41897e-08 -1.29546e-07 1.14944e-07 -1.40563e-08 1.09643e-07 -9.86572e-08 -2.57858e-08 5.23078e-09 7.40957e-09 0.5 -5.01152e-08 -3.05043e-08 -2.9828e-08 4.10757e-08 -8.23118e-09 -2.03805e-09 
41 1 1.14045 0.960462 2.01108 0 0 0 -3.54891e-08 -1.24037e-07 -9.48558e-08 2.93244e-08 1.05169e-07 8.43512e-08 4.3939e-08 -6.27681e-09 2.15098e-08 0.5 -4.11105e-08 -3.38656e-08 -9.90923e-08 2.28207e-08 6.60122e-08 -3.65658e-08 
814 2 0.27112 1.22753 3.40348 1 0 0 -6.85643e-09 -1.59031e-07 -8.18814e-08 4.19218e-09 1.34885e-07 7.34345e-08 2.36358e-08 -1.50498e-08 4.58088e-08 0.5 -8.91175e-08 -9.11427e-08 -1.06216e-07 3.5649e-08 7.59838e-08 1.1186e-07 
130 1 1.70518 2.6475 2.50033 0 0 0 -3.92151e-08 -1.41984e-07 -9.11217e-09 3.2914e-08 1.20977e-07 9.3284e-09 4.02011e-08 -1.62082e-08 -1.83678e-08 0.5 -3.17271e-08 -1.14268e-07 -1.008e-07 5.47233e-08 3.97894e-08 7.1959e-08 
12 1 2.70258 1.09575 2.61132 0 0 0 1.90592e-08 -8.12472e-08 -4.41582e-08 -1.73421e-08 6.94966e-08 3.76404e-08 2.32886e-08 -3.12007e-08 2.38868e-08 0.5 -1.26532e-07 -1.60952e-07 -1.13033e-07 8.06294e-08 5.73628e-08 2.86461e-09 
512 2 3.18635 2.03167 3.78747 0 0 0 2.04941e-08 -1.92084e-08 4.18664e-08 -2.03311e-08 1.61285e-08 -3.53074e-08 2.85064e-08 -7.97966e-09 1.92135e-08 0.5 -3.02007e-08 -6.11804e-08 -5.1106e-08 9.75261e-09 -8.98964e-09 6.33941e-08 
151 1 2.47925 3.30049 3.34132 0 0 0 1.94134e-08 -9.49638e-08 6.20178e-08 -1.68462e-08 8.26828e-08 -5.33735e-08 -8.61751e-09 -1.05103e-08 6.56936e-09 0.5 -3.53451e-08 -1.55589e-07 -1.39434e-07 2.81042e-08 3.83741e-08 4.48929e-08 
667 2 0.284319 1.3208 2.4071 0 0 0 -3.59693e-08 -1.65411e-07 -8.11663e-08 2.98514e-08 1.40756e-07 7.28548e-08 2.96799e-08 8.74162e-09 2.57722e-08 0.5 -5.06952e-08 -2.32818e-07 -1.78791e-07 1.20417e-08 -3.67828e-11 2.60173e-08 
38 1 3.79042 0.738149 3.87284 0 0 0 1.23184e-08 -1.51522e-08 -3.21697e-08 -1.32565e-08 1.42562e-08 2.65353e-08 -3.1408e-08 -7.61383e-09 4.72763e-10 0.5 -9.18274e-08 -3.09735e-08 -2.24497e-07 -1.0242e-07 5.59076e-08 1.62626e-07 
936 2 0.319906 3.36948 3.50683 1 0 0 -6.69133e-08 -1.63705e-07 2.46242e-08 5.63681e-08 1.38955e-07 -1.87666e-08 2.88191e-08 -2.55469e-08 -1.69132e-08 0.5 7.40474e-09 -1.6777e-07 -6.82472e-08 2.35519e-09 8.11262e-08 1.10485e-07 
531 2 4.80013 0.808197 2.48028 0 0 0 -2.9073e-08 -9.98319e-08 -1.9598e-08 2.36161e-08 8.84211e-08 1.55022e-08 3.13461e-09 -1.65647e-09 -1.60484e-08 0.5 -3.0408e-08 2.12099e-09 -6.35594e-08 -3.79172e-08 -5.87427e-08 -3.18329e-08 
527 2 4.03024 4.31517 3.61908 0 0 0 3.29338e-08 -5.05127e-08 1.20504e-07 -3.01583e-08 4.55428e-08 -1.05279e-07 -1.49451e-08 -4.64881e-11 5.38477e-09 0.5 -2.89614e-08 5.39546e-09 3.97831e-08 -4.0637e-08 -7.36976e-09 6.20454e-08 
383 1 4.36293 4.34454 2.28892 0 0 1 1.15819e-08 -3.75759e-08 9.28485e-08 -1.00072e-08 3.46427e-08 -8.20443e-08 4.98451e-09 -7.10424e-09 2.31311e-09 0.5 -5.89394e-08 -1.16775e-08 2.91192e-08 4.55232e-08 -1.24556e-08 -2.41558e-08 
992 2 0.695682 0.439322 3.85269 1 1 0 -8.91648e-10 -1.67778e-07 -1.10348e-07 -1.03886e-09 1.41934e-07 9.72167e-08 4.25507e-09 2.66011e-08 1.74556e-08 0.5 -7.27769e-08 -1.75763e-07 -3.79465e-08 5.20681e-08 -2.4367e-08 8.97592e-08 
521 2 4.93615 4.52796 3.25037 0 0 0 2.17351e-08 -3.80717e-08 1.00738e-07 -2.05504e-08 3.44653e-08 -8.87055e-08 -1.10895e-08 8.3023e-09 6.72783e-09 0.5 4.98964e-09 -4.20397e-08 -4.88264e-08 -5.98471e-09 -6.27144e-09 6.36165e-08 
136 1 1.88498 1.67143 2.62265 0 0 0 -3.11594e-08 -1.51465e-07 -9.63257e-08 2.53421e-08 1.29139e-07 8.53314e-08 1.59506e-08 2.40129e-08 1.75391e-08 0.5 -1.4658e-07 -1.57088e-07 -1.04593e-07 1.05151e-07 -1.01551e-08 4.62217e-08 
540 2 4.51129 0.178592 3.415 0 0 0 -4.13059e-09 -6.34252e-08 -3.6499e-08 1.38759e-09 5.72248e-08 2.92928e-08 -3.00885e-08 1.36429e-08 -1.9023e-08 0.5 4.56006e-08 3.00697e-08 5.53967e-09 -2.96098e-08 -1.98959e-08 2.83546e-08 
510 2 3.85504 2.56842 3.17077 0 0 0 -1.33219e-08 -7.18872e-08 5.51238e-08 9.02544e-09 6.32688e-08 -4.92995e-08 6.2045e-09 -2.23368e-09 8.36007e-10 0.5 4.59728e-08 6.33791e-08 -3.79434e-08 8.45261e-09 7.45556e-09 5.29561e-08 
19 1 4.3655 1.84749 2.40882 0 0 0 -1.93705e-08 -1.21293e-08 2.11534e-08 1.44754e-08 1.18428e-08 -2.03197e-08 1.65997e-08 4.36596e-09 8.8014e-10 0.5 -1.6532e-07 -6.49221e-09 -8.49276e-08 8.06883e-09 7.40163e-08 1.53579e-08 
543 2 1.07326 1.78713 3.19513 0 0 0 -1.77125e-09 -1.55825e-07 -5.37524e-08 -1.6347e-10 1.3187e-07 4.85726e-08 3.46902e-08 3.11929e-08 1.17379e-08 0.5 -1.59769e-08 -2.1441e-08 -9.97542e-09 -3.14948e-08 2.65013e-08 1.66595e-08 
773 2 4.78774 2.22773 3.30763 0 0 0 -7.32889e-09 -6.21799e-08 4.73858e-08 4.11407e-09 5.57704e-08 -4.25126e-08 1.39596e-08 1.61893e-08 -1.15065e-08 0.5 2.57356e-09 -1.28573e-07 -2.49028e-07 -2.60261e-08 5.66086e-08 2.48398e-07 
555 2 2.23907 2.5056 3.89852 0 0 0 1.77773e-08 -8.50575e-08 7.54707e-08 -1.74473e-08 7.47566e-08 -6.49662e-08 -9.42976e-09 -2.60335e-09 8.9169e-09 0.5 2.55232e-08 3.65714e-08 3.86954e-08 1.32562e-08 7.27349e-09 5.17678e-08 
429 1 0.306925 2.40106 3.75655 1 0 0 -5.22485e-08 -1.79373e-07 -4.53809e-08 4.36818e-08 1.52445e-07 4.14536e-08 1.8846e-08 7.26462e-09 3.40995e-08 0.5 -3.49956e-08 -2.73581e-07 -1.5931e-07 6.38713e-08 -4.0698e-08 1.52903e-07 
316 1 0.889712 0.512877 2.86992 1 0 0 -4.39933e-08 -1.64717e-07 -1.19126e-07 3.63382e-08 1.39708e-07 1.04901e-07 1.85482e-08 2.50876e-09 2.5611e-08 0.5 1.55736e-08 -3.30235e-08 -2.28635e-08 1.19292e-08 9.3895e-09 3.26993e-08 
503 2 3.61689 0.768796 2.88623 0 0 0 1.04811e-08 -8.1618e-08 -3.03629e-08 -9.62929e-09 7.09295e-08 2.45994e-08 -4.60726e-09 -4.73337e-09 1.22378e-08 0.5 -2.38038e-08 6.25862e-09 -1.67291e-07 7.05597e-09 -1.15712e-08 4.63323e-08 
896 2 0.702247 3.66501 2.63024 1 0 0 2.11283e-08 -1.72623e-07 6.20773e-08 -1.97014e-08 1.46661e-07 -5.11172e-08 2.08174e-08 8.31651e-09 -1.01755e-08 0.5 -1.06732e-07 -6.44991e-08 -1.77216e-07 2.83312e-08 -5.69144e-08 4.97059e-08 
690 2 1.93672 4.67095 2.92999 0 0 0 8.86355e-09 -1.0774e-07 1.1494e-07 -8.51993e-09 9.24239e-08 -9.83138e-08 -3.39955e-09 5.09416e-09 2.6482e-08 0.5 -1.22425e-07 -6.31207e-08 -2.42939e-08 8.07088e-08 1.08221e-10 -1.43515e-08 
641 2 3.45948 3.5005 3.22725 0 0 0 1.56219e-08 -5.22142e-08 9.60664e-08 -1.40426e-08 4.69296e-08 -8.43197e-08 -9.94362e-09 -1.58669e-09 1.10255e-08 0.5 -7.51873e-09 1.95309e-08 -7.76706e-08 1.70025e-08 -3.75567e-08 9.84214e-08 
528 2 3.34275 4.80215 2.44243 0 0 0 3.17886e-08 -8.4782e-08 8.90046e-08 -2.87347e-08 7.38527e-08 -7.82663e-08 -3.89228e-10 3.07873e-09 4.64098e-09 0.5 -1.2187e-08 -2.27748e-08 -4.01591e-08 -2.09774e-08 -4.93185e-09 -6.6368e-09 
225 1 2.66658 2.37982 2.99794 0 0 1 -3.20133e-08 -9.95694e-08 5.02512e-08 2.6167e-08 8.62269e-08 -4.28152e-08 -7.84095e-09 2.01986e-08 1.1689e-08 0.5 -4.15576e-08 -1.06673e-07 -7.72236e-09 6.50473e-08 -2.93515e-08 -3.37151e-09 
119 1 0.614476 2.84343 2.06694 0 0 0 -7.31127e-08 -1.361e-07 2.34738e-08 6.17283e-08 1.15622e-07 -1.85419e-08 4.80975e-08 4.52669e-09 -2.0493e-09 0.5 2.54997e-08 -7.08395e-08 -1.35786e-07 2.08532e-08 5.26189e-08 -6.99022e-10 
94 1 2.46189 3.50067 2.00487 0 0 1 -4.02047e-09 -1.04655e-07 1.12202e-07 2.96119e-09 9.00231e-08 -9.66548e-08 1.9214e-08 -5.81991e-09 5.10819e-09 0.5 2.63815e-08 3.37641e-08 1.31153e-08 3.107e-08 2.77066e-08 4.32366e-08 
522 2 2.58373 2.50801 2.00903 0 0 0 -1.44927e-08 -1.06386e-07 4.79458e-08 1.17984e-08 9.14797e-08 -4.09498e-08 3.75315e-08 -1.57402e-08 1.326e-08 0.5 -2.87588e-09 5.84439e-09 -3.81467e-08 3.66489e-08 4.13261e-08 1.0792e-08 
200 1 2.46549 0.208501 4.19599 0 1 0 4.46073e-08 -5.67952e-08 -5.74256e-08 -4.18986e-08 4.83238e-08 4.87728e-08 -3.72972e-08 -2.56316e-08 5.64223e-08 0.5 -8.89881e-08 -4.88109e-08 -1.58277e-07 2.23667e-08 5.90817e-08 4.13231e-08 
114 1 4.70709 1.00384 4.17137 0 0 0 7.38975e-09 -2.02237e-08 -1.24679e-08 -9.25602e-09 1.96968e-08 9.30214e-09 -1.29889e-08 -7.53153e-09 -1.49229e-08 0.5 -5.42203e-08 2.06601e-09 -7.6467e-09 -7.44116e-09 -3.43098e-08 -5.41284e-09 
820 2 1.30996 2.29325 4.21136 1 0 0 4.40553e-09 -1.20961e-07 1.4492e-08 -4.84137e-09 1.02347e-07 -1.09559e-08 -2.17018e-08 -1.61782e-08 3.36352e-08 0.5 5.19538e-09 3.15617e-08 -3.77781e-08 1.01506e-07 3.35594e-08 6.18365e-08 
47 1 4.65574 1.582 5.43553 0 0 0 4.53039e-08 2.40564e-09 1.52633e-08 -4.26224e-08 6.52339e-10 -1.44851e-08 4.93177e-09 2.25065e-08 9.56348e-09 0.5 -6.23789e-08 -1.00622e-07 -4.13662e-08 -2.5595e-08 -4.90058e-08 8.07936e-08 
824 2 1.64908 3.83184 5.79238 1 0 0 1.27411e-08 3.62247e-08 1.14783e-07 -1.11559e-08 -3.11492e-08 -9.77325e-08 -3.32097e-08 2.37347e-09 -1.20144e-08 0.5 -1.95138e-08 -1.62542e-08 -7.03378e-08 -5.79794e-09 6.20498e-10 2.5045e-08 
172 1 3.44268 0.338821 4.72114 0 1 0 5.67536e-09 4.59107e-08 -6.06164e-09 -8.94529e-09 -3.94328e-08 2.96863e-09 -4.08156e-08 -1.06107e-08 1.67177e-08 0.5 -8.2658e-08 -8.62136e-08 -2.93386e-07 -7.29862e-08 7.27535e-08 1.23334e-07 
718 2 0.202285 2.03673 5.5128 0 1 0 -7.63685e-09 -4.51268e-08 2.5606e-08 4.63092e-09 3.64732e-08 -1.98269e-08 -3.10337e-08 -1.47223e-08 -2.09678e-09 0.5 -1.32828e-07 -3.026e-08 -8.72697e-08 6.44103e-08 -6.69449e-08 1.84096e-07 
505 2 0.484433 3.5018 5.83385 0 0 -1 -1.38781e-08 5.6501e-08 8.62698e-08 1.19247e-08 -5.18418e-08 -7.27042e-08 6.93323e-09 -1.67026e-08 4.17225e-08 0.5 -1.86724e-09 -2.41925e-07 -1.23404e-07 1.24124e-08 -2.85146e-09 1.98971e-07 
524 2 3.99535 2.7352 5.70679 0 0 0 1.10326e-07 1.13119e-07 1.43313e-07 -9.98397e-08 -9.46244e-08 -1.26772e-07 -3.44122e-08 9.49289e-08 4.95043e-08 0.5 2.03398e-09 2.27827e-08 2.58275e-08 -1.84752e-08 -2.09848e-08 2.11053e-08 
839 2 0.579387 1.61472 4.31101 1 0 0 2.99987e-08 -1.63202e-07 -6.27274e-08 -2.69373e-08 1.38824e-07 5.67343e-08 -1.09527e-08 1.56746e-10 3.69506e-08 0.5 -1.41644e-08 -1.82162e-07 -1.08632e-07 1.19655e-07 -8.2885e-09 1.92018e-07 
937 2 2.44361 3.38654 4.3372 1 0 0 2.61201e-08 -7.10749e-08 5.8763e-08 -2.35365e-08 6.25292e-08 -5.06399e-08 -2.42366e-08 -1.64795e-08 2.66463e-08 0.5 3.56149e-08 4.87328e-08 -1.26393e-07 6.95835e-08 1.55602e-08 6.2165e-08 
811 2 2.60623 3.94632 5.52498 1 0 0 1.66018e-09 3.10468e-08 7.34581e-08 -1.94871e-09 -2.54171e-08 -6.28079e-08 -3.00832e-08 -1.91283e-08 5.58452e-11 0.5 -1.35219e-08 -5.87862e-08 -1.94866e-08 -2.51584e-08 -1.99647e-08 5.98556e-08 
827 2 1.52088 3.18133 4.66349 1 0 0 2.82087e-08 -1.22036e-07 3.31378e-08 -2.42269e-08 1.03305e-07 -2.71941e-08 -4.13445e-08 -2.17451e-08 -2.52636e-09 0.5 1.75834e-08 -1.15022e-08 -1.0595e-07 4.72465e-09 1.38797e-08 8.28199e-08 
149 1 4.05563 3.93275 4.61881 0 0 0 1.17364e-08 1.3644e-08 1.0363e-07 -1.23495e-08 -9.57103e-09 -9.0793e-08 -1.35442e-08 5.40376e-09 2.42574e-08 0.5 -3.99489e-08 -4.35645e-08 3.69528e-08 1.37662e-07 -8.29058e-08 4.12198e-08 
925 2 0.623246 3.59905 4.52293 1 0 0 4.56561e-08 -9.11302e-08 1.09191e-08 -3.99933e-08 7.52758e-08 -7.72938e-09 -3.75783e-08 1.46328e-08 -7.64778e-09 0.5 2.65652e-08 -6.26757e-08 -1.84339e-08 -1.3546e-08 -1.25971e-08 3.30175e-08 
168 1 3.33522 4.60361 5.33159 0 0 0 1.38747e-08 2.61123e-08 1.06809e-07 -1.33171e-08 -2.07844e-08 -9.3621e-08 -2.40572e-08 -1.65025e-08 2.25583e-08 0.5 -8.1032e-08 -6.51466e-08 -6.94546e-08 1.93065e-08 -3.86878e-08 5.48212e-08 
928 2 1.57471 4.4088 4.9787 1 0 0 2.11137e-08 2.19555e-08 1.0506e-07 -1.83447e-08 -1.80739e-08 -8.88204e-08 -2.0041e-08 3.76589e-09 -2.04033e-08 0.5 -3.73107e-08 -4.66879e-08 -4.61623e-08 -2.52088e-08 6.21458e-09 3.91439e-08 
148 1 3.93983 3.74234 5.7457 0 0 0 -3.40036e-09 1.09116e-07 1.46443e-07 9.90829e-10 -9.11528e-08 -1.27723e-07 -3.42032e-08 -1.35707e-08 6.39559e-08 0.5 3.3468e-08 7.14006e-08 8.10634e-08 4.94077e-08 5.64881e-08 4.9246e-08 
914 2 4.69244 4.38506 5.24423 0 0 0 -3.15078e-08 5.84873e-08 1.1619e-07 2.52483e-08 -4.66084e-08 -1.03123e-07 -5.12455e-08 -1.68688e-08 -8.11512e-09 0.5 -1.82441e-09 1.82384e-08 3.27728e-08 4.69221e-09 1.17866e-08 2.0806e-08 
23 1 2.87773 1.11847 4.05716 0 0 0 3.18734e-11 -3.89799e-08 -5.21884e-08 -3.11109e-09 3.31508e-08 4.52569e-08 1.28635e-08 -3.59586e-09 1.3311e-08 0.5 -7.08572e-08 -6.79002e-08 -5.49599e-08 -2.72474e-08 3.6492e-08 4.98339e-08 
594 2 2.05586 1.97089 4.80241 0 0 0 3.12505e-08 1.94185e-08 4.97993e-08 -2.84842e-08 -1.80482e-08 -4.05487e-08 1.40836e-08 -1.75268e-08 4.8393e-08 0.5 -4.35149e-10 -8.57965e-08 -1.72847e-08 6.15619e-08 -2.90373e-08 5.01491e-08 
539 2 3.78455 1.04074 5.46912 0 0 0 2.18423e-08 9.07561e-08 3.6969e-08 -2.20274e-08 -7.70942e-08 -3.39174e-08 -1.73182e-08 3.07912e-08 -7.48785e-09 0.5 -2.96756e-08 -2.79878e-07 -1.19498e-07 -9.19426e-08 -7.43722e-08 2.31809e-07 
730 2 0.461765 1.11568 5.16957 0 1 0 5.1695e-09 -4.96613e-08 -8.16475e-11 -6.93219e-09 4.03641e-08 2.17712e-09 -1.42541e-08 -7.59643e-09 4.70155e-08 0.5 7.70341e-08 -1.57893e-08 -6.43305e-08 1.21337e-08 -1.65256e-08 1.3309e-07 
689 2 3.51933 0.103669 5.69619 0 1 0 -3.4237e-10 8.54419e-08 -1.05202e-08 -2.57833e-09 -7.25954e-08 7.10868e-09 -1.00497e-08 -1.36058e-08 -3.98467e-09 0.5 -1.16553e-07 -3.44245e-07 -2.99544e-07 -4.01496e-08 9.18479e-09 2.57565e-07 
450 1 0.619288 4.79871 4.46892 1 0 0 1.03672e-07 -6.90459e-08 6.96284e-08 -8.96587e-08 5.77661e-08 -5.75017e-08 -7.44452e-08 -1.87849e-08 1.26628e-08 0.5 -3.74353e-08 -1.04021e-07 -2.21823e-07 7.94945e-09 -3.8372e-08 1.23634e-07 
549 2 4.49944 0.500888 5.01435 0 0 0 -3.48679e-08 2.56871e-08 6.44252e-09 2.72062e-08 -2.05896e-08 -7.50433e-09 -1.23324e-08 1.32702e-08 -3.22063e-08 0.5 8.56213e-08 1.15509e-07 6.03828e-08 -5.16069e-08 -3.40788e-08 5.29016e-08 
591 2 1.44655 1.12499 4.40334 0 0 0 5.7317e-08 -1.1798e-07 -9.26856e-08 -5.10513e-08 9.87722e-08 8.20216e-08 -2.31432e-08 2.30304e-08 6.49324e-09 0.5 -6.70286e-08 -1.05823e-07 -8.23272e-08 2.72714e-08 9.92263e-09 8.10349e-08 
243 1 1.20287 1.83742 5.34381 0 1 0 -1.28389e-08 4.43715e-09 -9.90315e-09 8.85014e-09 -6.18448e-09 1.0217e-08 -1.18165e-08 -1.02416e-08 2.64511e-08 0.5 -3.90093e-08 -4.26102e-08 -1.90066e-08 5.00507e-08 -1.50942e-08 6.29375e-08 