ITEM: TIMESTEP
34000
ITEM: NUMBER OF ATOMS
1000
ITEM: BOX BOUNDS xy xz yz pp pp pp
0.0000000000000000e+00 1.0000000000000455e+01 4.5474735088646412e-13
0.0000000000000000e+00 1.0000000000000000e+01 0.0000000000000000e+00
-0.0000000000000000e+00 1.0000000000000000e+01 0.0000000000000000e+00
ITEM: ATOMS id type x y z ix iy iz vx vy vz fx fy fz omegax omegay omegaz radius c_2[1] c_2[2] c_2[3] c_2[4] c_2[5] c_2[6] 
696 2 4.11089 3.16925 1.58499 121 1 0 -225.676 15.4479 15.4666 2074.01 -1519.83 -156.536 0 0 0 0.5 -28684.6 -1762.27 -297.267 3348.64 1657.4 552.816 
132 1 0.289707 0.178988 1.1582 175 1 1 -461.998 -8.17142 -9.14112 857.66 -2290.7 -2956.07 0 0 0 0.5 -113384 -538.181 -1004.28 -1016.75 -2142.81 224.658 
292 1 3.15734 3.08484 0.943283 -105 0 -1 -199.708 7.65189 14.5237 -1382.53 78.6986 1908.1 0 0 0 0.5 -23359.4 -541.708 -148.989 1314.27 1832.72 -89.983 
927 2 1.37496 1.10596 1.08127 -45 0 0 -384.634 2.84473 -16.9948 -904.078 -1293.24 -2074.98 0 0 0 0.5 -78570.3 -694.792 -985.416 1286.34 -2913.17 -365.453 
103 1 2.5555 2.43086 0.0849582 -58 0 0 -246.466 1.98668 -17.2201 -40.5834 -1842.55 -267.639 0 0 0 0.5 -34003.4 -1813.21 -364.647 2348.01 -2395.46 56.2699 
126 1 1.43033 0.11478 0.0649132 73 1 0 -464.472 15.0158 -25.5584 -571.134 707.587 -2298.29 0 0 0 0.5 -113504 -714.256 -156.523 4327.8 -5888.27 455.461 
600 2 4.33826 0.106035 0.858773 112 1 1 -479.023 -8.19351 -6.84333 -1298.2 971.014 37.5905 0 0 0 0.5 -120645 -1817.6 -972.148 -1316.75 -1654.15 633.464 
472 1 1.71915 2.18847 1.87039 -29 0 0 -288.536 4.06114 -21.5583 -1674.19 -154.981 1651.96 0 0 0 0.5 -44948.6 -1190.24 -1881.71 1534.53 -2460.47 267.811 
222 1 2.21632 1.63685 0.241078 210 1 2 -349.14 5.31555 -15.1698 -513.055 1088 -1998.69 0 0 0 0.5 -64264.2 -163.649 -722.93 1761.66 -3137 -545.197 
390 1 2.36164 0.241066 0.508351 85 1 0 -456.929 -17.0044 -4.75423 -1803.94 -880.219 538.115 0 0 0 0.5 -109536 -1725.76 -1029.33 -2543.13 -925.684 126.629 
988 2 1.83649 0.0562584 1.33398 125 1 1 -459.247 -20.3398 5.30577 -1043.78 1349.46 -677.079 0 0 0 0.5 -112197 216.589 -322.262 -4405.55 831.666 -204.05 
506 2 1.56536 2.87349 1.37882 -45 0 0 -203.36 -5.44237 -32.0183 -195.222 2370.74 1184.98 0 0 0 0.5 -21897.2 -1994.95 -2171.61 -29.4371 -3481.08 191.316 
697 2 2.44932 1.85645 1.46645 -61 0 1 -324.504 14.0102 8.89893 251.897 -90.4 601.95 0 0 0 0.5 -57481.1 -713.676 -756.382 3881.13 1613.97 -691.038 
951 2 1.81553 4.31459 0.393008 -27 0 0 -113.936 6.89141 16.3842 -865.525 1259.05 -1653.12 0 0 0 0.5 -6957.52 -366.831 -715.955 647.621 663.509 387.569 
141 1 4.8568 1.55635 0.099476 -43 0 1 -351.978 1.70597 -0.743887 1366.04 -2310.03 1701.77 0 0 0 0.5 -65186.1 -851.417 -580.348 654.208 -272.369 385.69 
566 2 1.16442 0.201441 0.802218 152 1 1 -450.781 -0.939203 13.791 -860.981 571.927 -882.337 0 0 0 0.5 -107104 36.867 -723.877 -106.851 3067.76 132.594 
163 1 1.40398 0.920958 1.875 113 1 0 -400.413 20.8162 0.396317 784.905 757.933 1105.9 0 0 0 0.5 -83542.3 -256.027 -533.966 4535.9 177.28 289.465 
509 2 0.563932 0.477154 0.200893 -113 0 1 -448.555 11.0741 -9.18913 1784.54 746.976 410.987 0 0 0 0.5 -107330 -163.681 -98.9972 2694.73 -2267.22 20.529 
711 2 2.39029 0.991136 1.80987 91 1 0 -388.011 -12.2321 15.3743 976.903 -310.961 -1627.46 0 0 0 0.5 -79012.8 -534.745 -641.4 -2105.63 3392.32 -405.285 
73 1 1.7508 2.06952 0.89955 -55 0 1 -298.598 8.4697 -7.22478 -220.794 -1601.98 -1771.04 0 0 0 0.5 -47815.2 -1231.75 -1513.59 2003.1 -1025.23 -754.505 
835 2 0.916198 1.77154 1.54013 -76 0 0 -305.182 -16.3066 8.41184 -1195.03 2471.6 1099.59 0 0 0 0.5 -48990 -700.858 -194.439 -2098.37 1717.78 -489.406 
553 2 2.08474 0.903592 0.901919 -90 0 0 -379.446 -6.79653 12.4997 -60.9624 490.03 89.0933 0 0 0 0.5 -76676.4 47.2932 -122.778 -909.149 2738.26 -982.6 
231 1 3.85108 4.1511 0.683521 9 0 1 -38.8439 -23.163 -8.21714 -271.54 418.682 288.254 0 0 0 0.5 -883.309 -583.938 -1063.86 -525.262 107.802 45.1196 
171 1 1.36282 3.38202 0.705144 -1 0 1 -141.761 -7.02241 -22.3996 -278.916 1622.54 -1810.67 0 0 0 0.5 -10453.6 -372.958 -893.198 -311.271 -1800.18 443.665 
913 2 2.4924 2.88192 1.63733 -43 0 1 -207.626 -4.69643 0.0121113 -1192.6 -89.9431 -1547.13 0 0 0 0.5 -23019.5 -49.0589 -794.476 -582.868 -298.202 53.1177 
429 1 0.848294 1.5534 0.202107 -33 0 0 -332.517 -5.02847 8.01824 -905.536 1041.74 937.563 0 0 0 0.5 -58184.7 28.0596 -64.7715 -679.029 1592.08 21.2697 
45 1 4.67298 2.65064 1.69936 183 1 0 -261.841 11.3686 9.44883 2147.78 -1310.31 913.135 0 0 0 0.5 -36677.1 -1036.28 -334.011 2362.38 1193.61 21.6974 
418 1 2.36601 4.25253 1.84572 -48 0 0 -79.3968 12.9101 -2.49967 -1760.45 1159.98 -1295.96 0 0 0 0.5 -3844.38 -372.396 -133.691 968.019 -427.712 333.445 
647 2 2.02637 2.9833 0.0692223 -52 0 1 -168.864 -12.8745 -25.3395 -3259.45 1895.39 876.256 0 0 0 0.5 -16390.7 -1879.1 -913.789 235.179 -2756.77 231.091 
519 2 2.19293 3.77255 1.09696 -22 0 0 -145.091 10.6006 -13.4153 -1216.69 545.06 3643.73 0 0 0 0.5 -11428.2 -698.972 -965.079 1483.4 -860.091 219.843 
837 2 4.11438 1.45496 1.34755 -173 0 1 -370.289 7.83093 11.1417 1038.59 -2126.25 -106.907 0 0 0 0.5 -72029.4 -584.006 -196.368 1962.02 2209.6 83.2957 
789 2 3.38767 3.1971 1.94398 -144 0 0 -221.631 -16.3525 21.951 1623.22 -1271.35 -2054.41 0 0 0 0.5 -27054.6 -824.594 -529.131 -1429.18 3117.48 -406.291 
385 1 0.855472 2.34419 0.803186 -164 0 0 -285.635 13.5495 2.0492 -1119.77 -393.693 -51.5863 0 0 0 0.5 -43232.4 116.438 239.039 2176.3 264.502 17.7798 
617 2 1.36401 4.06468 1.90889 172 1 0 -84.8314 13.9286 -19.4312 213.82 -876.223 259.309 0 0 0 0.5 -3911.14 274.88 -156.446 670.804 -864.052 14.335 
743 2 3.67132 3.72056 1.31288 -227 -1 1 -147.574 0.56494 -0.936653 -3470.22 2871.49 323.866 0 0 0 0.5 -12003.6 -741.745 -238.863 982.142 -513.404 518.445 
741 2 3.40365 0.294884 0.0404344 -343 -1 1 -451.99 -21.1331 3.32024 253.148 -1422.36 -405.967 0 0 0 0.5 -106911 -472.581 -275.498 -4668.19 730.81 -68.1014 
67 1 0.440118 4.30285 0.475506 210 1 1 -98.9127 3.82165 17.8678 0 0 0 0 0 0 0.5 -5122.75 -7.64716 -167.162 197.925 925.381 -35.7536 
799 2 4.72764 0.255379 0.0479253 143 1 0 -476.152 2.9524 5.50027 999.337 441.351 1484.56 0 0 0 0.5 -119833 -1266.09 -1364.78 1565.46 1108.76 5.97074 
990 2 2.78036 1.32623 0.754092 -77 0 0 -389.516 14.4401 -4.28071 2413.01 -67.37 -738.739 0 0 0 0.5 -80810.5 -968.769 -1385.61 3343.56 -1480.71 253.339 
81 1 2.59776 3.37427 0.674349 -27 0 1 -178.43 1.3585 -27.6411 -1476.68 70.3405 -1341.8 0 0 0 0.5 -18289.1 -640.736 -1600.32 810.797 -2342.48 -318.814 
337 1 3.20289 1.26066 1.52455 172 1 0 -390.144 15.728 -11.3374 3372.46 358.587 899.576 0 0 0 0.5 -80824.1 -765.025 -782.444 4346.89 -2764.18 407.199 
871 2 3.54088 2.13787 1.57747 -51 0 0 -317.486 17.5175 46.0787 -825.246 174.244 12.5013 0 0 0 0.5 -53016.2 -170.731 -974.922 3458.95 7539.82 -500.061 
568 2 0.0783385 3.23249 0.338272 -18 0 1 -164.498 -14.2078 23.2928 -135.037 485.24 -580.199 0 0 0 0.5 -14157.1 40.4804 -75.0964 -1264.42 2054.88 -1.50114 
576 2 -0.0249529 2.52862 1.5821 144 1 1 -224.186 -8.17955 13.6461 189.288 571.001 481.634 0 0 0 0.5 -26346.8 -353.743 -314.696 -943.204 1614.39 -204.617 
358 1 4.08422 0.86475 0.652505 -62 0 0 -433.257 0.539945 -11.0878 -478.823 32.8865 1012.29 0 0 0 0.5 -98303.7 -1294.8 -248.634 477.992 -2651.49 672.75 
134 1 4.92034 4.27117 0.373958 -31 0 1 -69.1466 4.35706 -2.58244 -2660.04 2976.68 -1788.81 0 0 0 0.5 -3557.89 -967.435 -1140.76 989.082 -753.235 288.202 
85 1 3.91005 3.00595 0.651764 135 1 1 -258.927 37.1943 0.715664 4459.19 -283.863 -765.068 0 0 0 0.5 -36730 -823.165 -140.336 5221.31 798.205 17.2317 
125 1 3.20922 0.616369 0.878457 -142 0 0 -437.763 -23.8568 8.56569 -139.467 -976.693 278.044 0 0 0 0.5 -100089 -682.458 -332.353 -5101.77 2149.21 98.8049 
196 1 3.09469 2.30663 0.814345 87 0 1 -275.635 -10.0203 5.24886 -4093.81 797.518 1552.22 0 0 0 0.5 -41615.6 -616.056 -787.668 -1042.93 777.43 -244.944 
278 1 3.15997 1.79646 0.0971958 162 1 0 -327.304 -1.46277 -5.86561 -878.522 -959.015 -629.176 0 0 0 0.5 -57963 -1778.19 -540.797 1063.37 -1294.43 -425.765 
129 1 3.53044 0.582353 1.87656 -120 0 0 -446.915 -16.2588 -14.0941 -2098.25 336.333 -309.134 0 0 0 0.5 -105524 -1407.52 -681.063 -2767.79 -3502.22 -132.302 
965 2 3.95099 4.86268 0.27877 -169 -1 0 20.8491 -0.549701 -6.43019 367.245 -166.858 96.9874 0 0 0 0.5 -722.231 -583.995 -845.535 -33.4438 -481.276 -209.954 
281 1 3.90374 2.13275 0.692383 162 1 1 -318.18 17.7109 18.5747 4010.92 -128.966 1230.66 0 0 0 0.5 -54746.7 -833.804 -570.62 3500.19 2944.96 -20.5869 
541 2 3.92467 4.5013 1.52693 140 1 1 -51.8635 17.7383 -13.8455 3380.17 -974.31 -1108.93 0 0 0 0.5 -2169.18 137.593 -302.914 916.004 794.578 7.51995 
676 2 3.98523 1.54613 0.249279 123 1 -1 -368.904 -0.754436 -17.4516 2770.64 466.68 -832.166 0 0 0 0.5 -72809.3 -1109.58 -672.357 347.82 -3663.12 210.719 
658 2 4.91727 2.16523 1.00535 -24 0 1 -314.764 2.98092 -12.581 570.487 933.076 -1488.71 0 0 0 0.5 -51787.5 -124.572 -166.15 838.553 -2194.95 -244.294 
904 2 4.9534 4.56614 1.22729 8 0 0 -22.0695 -21.3992 4.36196 1731.48 -2386.63 97.4243 0 0 0 0.5 -667.444 -1043.24 -1039.1 244.676 -79.1545 -256.202 
573 2 1.96864 1.58083 2.293 -92 0 0 -334.226 -12.6415 14.1577 -842.049 153.226 264.905 0 0 0 0.5 -58600.6 -779.794 -625.724 -1472.11 2701.21 -278.91 
201 1 1.9547 0.747159 3.19574 -136 0 0 -412.797 14.5199 2.08957 -115.374 -203.437 -531.3 0 0 0 0.5 -89242 -277.352 -166.625 3183.95 426.445 -82.5567 
315 1 2.19095 3.92366 2.91267 -28 0 0 -99.4079 -1.87567 -9.685 472.504 -353.056 -856.796 0 0 0 0.5 -5527.05 -77.1311 -290.184 56.0479 -440.508 -81.0332 
137 1 2.38496 0.241431 3.83491 -103 0 0 -451.244 -9.80671 22.5204 -411.945 1153.94 473.981 0 0 0 0.5 -107017 583.22 -627.391 -2119.72 5559.65 250.187 
207 1 1.03825 0.685909 3.82621 157 1 0 -377.603 -9.65384 23.8372 -1548.13 -1076.71 -2061.7 0 0 0 0.5 -74333.8 258.815 -880.019 -1519.21 4727.24 395.674 
236 1 1.23355 2.38151 2.38023 -84 0 1 -274.463 -22.6947 17.8473 -435.044 -106.085 1118.26 0 0 0 0.5 -39870.4 -539.846 -702.577 -2960 3291.54 49.6786 
808 2 0.446965 1.84154 2.68832 114 1 0 -334.738 11.6673 -30.4912 -804.779 -858.254 56.1704 0 0 0 0.5 -58425 314.937 -522.48 2242.67 -5403.16 130.579 
462 1 0.718494 1.38356 3.43158 194 1 0 -365.429 9.89953 -4.54701 -1032.11 949.102 1295.7 0 0 0 0.5 -70032.1 -380.31 -476.261 2181.5 -574.45 -259.538 
359 1 3.00787 3.76221 2.24774 -70 0 0 -142.967 5.11744 29.1062 -230.42 1066.17 2666.08 0 0 0 0.5 -11598.1 -925.328 -872.267 1363.88 2109.62 -286.974 
130 1 1.32753 0.170485 2.14836 -112 0 0 -451.222 -3.45455 0.55547 1794.71 -407.937 389.36 0 0 0 0.5 -107635 -765.074 -1151.15 -451.974 -250.898 108.885 
967 2 3.18936 0.223908 3.44057 139 1 -1 -453.802 -1.60693 17.9131 903.145 2.87819 460.21 0 0 0 0.5 -108410 -175.006 -625.534 -373.814 4283.19 25.8658 
948 2 1.25674 3.19246 2.20251 196 1 0 -156.283 -10.1198 -17.9255 1177.73 282.916 -1415.67 0 0 0 0.5 -13093 -182.812 -920.889 -475.023 -1009.56 -656.63 
997 2 1.18395 3.38267 3.81576 -9 0 1 -156.164 12.476 8.26206 1187.01 280.397 -239.484 0 0 0 0.5 -13438 -444.806 -279.21 1389.46 375.218 243.432 
550 2 1.687 2.76478 3.16816 26 0 0 -251.498 18.1742 4.47937 -419.194 1952.45 -459.636 0 0 0 0.5 -33902.8 -1098.11 181.911 2545.96 623.736 -32.5449 
79 1 0.509563 0.721213 2.02599 109 1 1 -412.651 6.80451 22.6986 -2132.55 1975.78 -737.249 0 0 0 0.5 -90107.6 -738.48 -958.84 1901.73 4450.62 -396.648 
572 2 0.850962 2.13952 3.88767 -35 0 0 -306.181 24.8061 -8.41621 5944.3 -4291.87 2514.55 0 0 0 0.5 -51574.1 -1953.94 -904.294 5708.14 -2054.53 1144.12 
760 2 0.0817177 0.0507274 2.63736 -71 0 0 -471.011 6.72709 0.598982 763.175 -108.212 -2017.1 0 0 0 0.5 -116669 209.707 -307.118 2019.05 537.916 32.8995 
892 2 4.0684 4.66202 3.6962 28 0 0 -32.9303 -34.441 6.18784 -2038.85 -1105.77 -645.405 0 0 0 0.5 -1339.89 -1212.03 -339.584 -261.149 -358.897 443.95 
732 2 0.405733 0.0843475 3.48429 -215 0 1 -475.094 24.0093 20.5721 3005.53 -75.0658 -1140.04 0 0 0 0.5 -118751 -1216.59 -914.718 7160.89 6165.16 -957.078 
11 1 0.0845876 0.948837 2.886 -96 0 0 -421.673 32.4554 13.9037 845.281 225.212 98.243 0 0 0 0.5 -93108.5 259.631 -36.6735 7384.54 2970.52 -236.384 
362 1 0.756818 2.71272 3.10689 -100 0 -1 -243.032 0.0509404 13.0711 1095.3 2999.18 -3401.88 0 0 0 0.5 -32600 -160.511 -1940.35 37.8868 2425.31 354.521 
328 1 3.44133 4.25207 3.02061 -75 0 0 -94.0406 5.61967 6.06435 -535.122 324.885 -30.795 0 0 0 0.5 -4551.29 -138.614 78.1414 418.803 163.564 -18.9393 
962 2 1.84356 1.92651 3.09823 -31 0 0 -357.439 15.9377 1.4182 243.941 -1313.56 -227.979 0 0 0 0.5 -66939.7 -1304.52 -717.748 3197.75 320.239 -27.7438 
295 1 1.10575 0.859793 2.79155 149 1 0 -421.606 6.7061 -5.95939 1678.18 -550.727 522.958 0 0 0 0.5 -93551.9 -464.752 -1185.92 1667.01 -1355.72 -544.438 
507 2 4.10014 2.32158 3.7894 -91 0 0 -292.081 4.25273 3.65084 137.514 -1319.97 -656.722 0 0 0 0.5 -45064.8 -527.384 -342.077 1229.83 1072.11 -408.078 
659 2 1.87911 1.4568 3.8355 -86 0 0 -383.217 13.8268 4.30438 883.839 -70.4893 -486.39 0 0 0 0.5 -77745.7 -418.552 -866.92 2968.28 1206.29 69.896 
907 2 4.7842 4.02916 2.17282 22 0 0 -150.656 18.5474 1.20412 1143.84 868.307 -664.421 0 0 0 0.5 -13459.8 -340.191 -543.616 1775.3 -28.3259 49.3804 
314 1 1.50334 4.28441 3.35774 -38 0 1 -90.1273 -4.90879 9.14646 -161.638 -586.736 -211.613 0 0 0 0.5 -4892.33 -257.887 -609.477 50.8976 336.571 -140.748 
795 2 4.03822 2.62187 2.68355 -56 0 -1 -271.766 9.55263 -4.47973 464.941 34.0625 -385.91 0 0 0 0.5 -38843.7 -48.7057 -129.348 1346.66 -494.27 32.8959 
66 1 0.871657 4.67827 3.13737 -49 0 1 -89.1929 21.8296 -13.7428 -1002.84 625.284 -349.858 0 0 0 0.5 -4482.17 -372.651 -137.44 1216.96 -752.309 225.979 
701 2 0.433983 4.10093 2.00031 9 0 0 -92.7255 -7.38373 -27.3428 -9.04387 -316.253 322.289 0 0 0 0.5 -4724.81 -106.043 -428.27 -276.929 -1368.37 -50.6729 
21 1 3.96672 0.441943 3.63694 -180 0 -1 -439.516 32.0121 27.853 479.282 -1516.33 955.479 0 0 0 0.5 -101284 -886.618 -690.547 7300.65 6345.61 3.08487 
930 2 3.2962 2.56751 3.29944 -100 0 0 -272.996 24.7827 -12.4322 1358.09 603.182 1655.21 0 0 0 0.5 -40503.2 -1471.15 -708.636 4509.7 -1926.73 155.507 
174 1 3.38282 4.69285 2.15821 37 0 0 22.3258 -20.4069 -23.9819 -7207.55 4900.86 2988.64 0 0 0 0.5 -2523.33 -2045.49 -1445.04 2088 1194.9 -623.266 
280 1 2.90842 0.380566 2.70172 -118 0 1 -427.764 1.94754 -10.7454 -252.067 2040.03 1270.95 0 0 0 0.5 -96115.8 -592.748 -1081.33 593.03 -2562.65 -491.671 
995 2 2.56311 2.92784 3.36715 -72 0 1 -248.936 28.1653 -7.09741 -1913.69 1253.04 1570.05 0 0 0 0.5 -33771.2 -262.679 -969.406 4121.71 -592.698 -205.52 
68 1 3.73634 3.51612 3.38341 114 1 0 -134.162 -23.3748 12.1357 -1665.6 -417.091 1244.22 0 0 0 0.5 -10212.2 -464.359 -249.865 -1546.2 1195.65 239.466 
790 2 0.462585 3.6584 3.59303 -27 0 1 -152.905 7.83984 -17.113 -954.682 1681.82 -244.409 0 0 0 0.5 -12962.7 122.438 -302.993 891.612 -1287.59 411.487 
878 2 2.83425 2.80965 2.49446 21 0 0 -267.707 13.0521 4.86043 -283.173 1656.43 -272.958 0 0 0 0.5 -38036 -728.741 -2039.81 1925.69 497.801 36.7376 
735 2 0.123947 2.59189 3.75685 -35 0 1 -194.053 -26.1227 -11.1728 -8227.36 2137.59 353.667 0 0 0 0.5 -22898.7 -1814.34 -1119.6 -1119.15 -666.897 -62.8007 
710 2 2.34405 0.183492 2.08964 102 1 0 -473.937 -17.6148 26.2145 -3033.1 673.355 368.591 0 0 0 0.5 -118794 -833.495 -926.963 -3879.34 6341.46 171.217 
199 1 4.01319 4.05587 2.2114 -253 -1 0 -141.04 -33.6788 13.0407 1767.93 -3653.21 485.377 0 0 0 0.5 -12936.9 -1783.24 21.7149 -977.536 919.436 372.335 
229 1 2.78927 3.8222 3.63835 -70 0 0 -112.396 6.41731 4.0495 531.451 -211.925 -69.9936 0 0 0 0.5 -6584.18 192.854 -26.3304 506.905 41.5234 -11.3119 
289 1 2.65012 2.16741 3.9244 -136 0 -1 -265.512 -8.86389 -12.8683 217.382 719.498 -1456.06 0 0 0 0.5 -36923.9 159.204 -216.278 -1191.84 -1782.52 -293.65 
574 2 3.6104 1.78639 3.20231 -4 0 1 -350.567 10.4971 9.17713 -292.098 -134.582 -30.0403 0 0 0 0.5 -64597.1 -1476.43 284.876 2837.54 2033.62 -74.7173 
109 1 0.862306 3.58813 2.72711 5 0 1 -113.058 3.00728 -2.59403 -1379.56 613.347 1857.71 0 0 0 0.5 -6964.51 72.3358 -476.408 478.759 235.559 -517.504 
286 1 3.32021 1.2623 2.40738 154 1 0 -381.388 -4.31756 7.21414 691.205 -453.414 1077.88 0 0 0 0.5 -76453.4 -676.305 2.06356 -364.285 1457.79 118.153 
413 1 2.8926 1.99077 2.34671 -120 0 0 -353.308 5.58208 16.0632 -623.797 -2.6159 -38.1548 0 0 0 0.5 -65608.1 -1288.43 -335.984 1411.18 2863.82 -148.158 
730 2 3.96008 1.13908 3.02587 -115 0 0 -376.922 -0.630239 18.0438 1406.45 -148.948 -811.014 0 0 0 0.5 -74725.3 -1535.09 -819.242 363.307 3600.57 -6.17099 
833 2 4.10318 4.76438 2.46079 8 0 0 50.9768 5.17394 15.468 -350.414 -3417.21 -2858.29 0 0 0 0.5 -1332.86 -585.46 753.585 66.7558 -138.209 59.9299 
44 1 4.09004 0.410686 2.54661 -71 0 -1 -447.239 5.27775 -11.9515 196.229 121.272 -46.9735 0 0 0 0.5 -105268 -754.546 -985.854 1403.31 -2985.34 72.2465 
8 1 4.54221 3.49534 2.99915 -75 0 0 -161.201 -5.2486 0.122757 -1618.91 2654.67 611.083 0 0 0 0.5 -15515.9 -1246.28 -378.925 235.779 832.573 -410.046 
781 2 4.73982 1.90326 3.36158 230 1 0 -315.093 -4.60804 -21.5328 405.849 -519.594 -797.909 0 0 0 0.5 -52496.6 -141.777 -402.626 -534.456 -3435.85 -167.758 
379 1 4.93214 1.86978 2.00514 -65 0 1 -316.146 -17.759 9.0413 -838.462 -467.626 -4.66772 0 0 0 0.5 -52761.3 -433.639 -188.338 -2818.57 1332.4 156.795 
329 1 2.16518 3.79154 4.52433 -53 0 1 -121.244 13.9387 12.177 191.929 1678.68 435.522 0 0 0 0.5 -7963.4 -1258.43 -491.415 1235.39 973.693 -209.828 
815 2 1.49364 2.77747 4.31325 -1 0 0 -198.637 -18.0713 7.59611 642.233 -858.39 554.579 0 0 0 0.5 -20636.6 -439.205 -297.711 -1710.64 643.905 292.374 
440 1 1.79723 4.55524 4.14412 15 0 0 -83.6487 21.2715 -2.38771 497.512 1133.96 -52.4471 0 0 0 0.5 -3886.59 -558.087 -788.023 993.479 -149.321 42.4388 
426 1 1.79976 0.886524 5.57243 166 1 0 -387.277 -16.0993 2.66822 -226.605 250.768 2004.56 0 0 0 0.5 -79016.8 -452.167 -972.746 -3011.72 860.374 -413.544 
253 1 2.56961 1.19228 4.06995 -100 0 1 -367.371 4.32066 26.1856 590.084 -1878.72 -55.2087 0 0 0 0.5 -70944.1 614.391 -352.007 1081.24 4967.61 158.48 
982 2 2.39721 2.27156 4.73449 -53 0 0 -249.193 -6.11246 6.50063 2404.49 -2062.14 -2861.34 0 0 0 0.5 -33432.3 -841.761 -1368.9 33.7817 1485.89 -367.22 
312 1 1.77186 2.83493 5.18306 -8 0 1 -144.955 -10.4977 3.06005 -3083.41 1072.2 1666.61 0 0 0 0.5 -12154.3 -1371.24 -636.37 42.2514 712.04 -675.675 
117 1 1.59476 3.70473 5.30131 -77 0 0 -97.9559 -8.76523 15.0022 -706.801 1109.19 900.991 0 0 0 0.5 -5191.65 -670.901 -395.702 -335.954 964.922 44.2194 
765 2 1.25863 1.51704 4.34762 304 2 0 -367.033 7.60521 14.1538 866.505 -499.622 1453.55 0 0 0 0.5 -71914.9 -379.442 -756.887 1596.24 3286.14 186.518 
668 2 0.534394 2.24713 4.79216 -47 0 0 -272.821 27.7964 15.2723 3120.49 -771.788 -615.948 0 0 0 0.5 -40387.6 -86.7748 44.3997 3973 2320.77 -218.729 
210 1 2.57112 3.06544 5.66203 62 0 -1 -128.225 -45.4123 -20.0509 -836.651 -355.259 -591.448 0 0 0 0.5 -9294.73 -1251.42 -947.709 -3115.91 -1657.31 -600.014 
724 2 0.154098 1.67278 5.50875 -80 0 0 -298.574 -10.2323 -18.8211 -944.434 -319.022 -280.013 0 0 0 0.5 -49403 -1367.79 -1065.09 209.099 -3042.9 -189.067 
10 1 1.54799 2.13827 5.45751 -56 0 0 -329.061 1.15684 -0.0404939 -90.6816 1308.58 -1482.24 0 0 0 0.5 -56527.9 -375.959 -449.074 329.191 -169.4 410.31 
807 2 4.03557 3.74482 4.29022 -38 0 -1 -109.801 9.66389 1.64368 261.168 -481.592 -135.08 0 0 0 0.5 -6109.92 144.108 48.6326 605.868 77.1324 -8.44777 
421 1 2.73546 4.44004 5.53409 95 0 -1 -4.43143 -12.1114 -31.994 -1280.1 -54.3451 -570.295 0 0 0 0.5 -345.318 -552.138 -140.517 464.42 -630.466 -241.808 
89 1 4.65837 4.50753 4.02261 -32 0 1 -27.3271 -12.7002 13.1546 -29.7326 2076.37 1455.76 0 0 0 0.5 -1840.82 -1195.86 -220.121 338.495 -203.031 444.906 
35 1 2.1763 0.543663 4.73274 -111 0 0 -469.836 14.6385 3.38853 4141.3 -869.428 -1656.16 0 0 0 0.5 -117251 -292.814 -1139.31 3870.41 1336.48 -473.102 
606 2 4.73751 4.88402 4.78913 26 0 0 57.6138 -13.9938 43.5253 -3505.98 2399.38 -225.241 0 0 0 0.5 -2369.93 -1042.49 -880.385 1371.61 -1745.48 680.771 
502 2 3.75211 1.59009 5.29324 -107 0 0 -340.512 11.2609 -2.04764 693.463 -72.4585 1356.42 0 0 0 0.5 -60979.7 -554.083 -1034.91 2337.05 -892.33 657.33 
822 2 1.28827 0.596675 4.76239 76 1 1 -428.795 -10.5682 12.814 -2061.25 -1228.44 170.666 0 0 0 0.5 -97958.5 -415.731 -1181.17 -2031.67 2999.86 -243.167 
258 1 0.922654 1.13365 5.34681 -97 0 0 -376.128 11.3571 1.61295 2638.87 -1023.87 915.759 0 0 0 0.5 -76055.9 -1192.05 -1047.51 3589.15 623.451 -288.115 
868 2 2.37419 3.02683 4.27876 -64 0 1 -186.989 15.8325 1.29831 194.436 -2129.25 114.488 0 0 0 0.5 -18289.6 -1070.83 -519.022 1837.07 286.952 -322.229 
486 1 0.545045 1.38569 4.62517 162 1 0 -377.151 -4.18091 -11.3739 -1377.05 822.306 -278.05 0 0 0 0.5 -75691.7 170.656 -522.986 -984.251 -2079.66 213.58 
629 2 4.39929 0.365615 5.1057 -110 0 -1 -409.156 -0.472144 -43.6766 -355.729 2062.02 -89.1521 0 0 0 0.5 -87691.2 -935.568 -842.309 121.987 -9358.07 258.528 
920 2 4.51639 2.63081 4.52082 -77 0 0 -227.745 0.240967 6.26105 -175.781 -1188.58 -2095.33 0 0 0 0.5 -28401.5 -79.1284 -567.24 259.87 502.87 27.7042 
619 2 4.64507 0.243065 5.94355 43 1 0 -428.552 -5.63468 -2.29487 -2439.83 -515.231 -2819.39 0 0 0 0.5 -96904.2 -282.952 -865.023 135.875 -1826.42 123.671 
405 1 1.3351 4.48949 4.93848 -58 0 0 -61.87 17.4575 7.93683 2124.79 -1531.03 1425.41 0 0 0 0.5 -3057.73 -730.534 -521.27 1102.53 195.942 266.323 
787 2 0.885354 0.100525 5.99466 -165 0 0 -498.429 10.3134 3.98108 -161.66 -3474.57 92.1928 0 0 0 0.5 -130135 145.65 -142.899 3161.76 858.608 -201.996 
112 1 0.766563 4.41043 4.10783 -23 0 0 -68.296 -0.916757 -5.67556 -245.761 -820.936 -566.344 0 0 0 0.5 -2422.89 263.501 108.867 81.4999 -121.159 179.864 
630 2 0.422247 3.7475 5.60098 69 0 0 -104.876 -16.1888 2.36399 -46.682 -390.772 271.177 0 0 0 0.5 -5761.22 -285.841 -74.4951 -906.733 142.135 123.171 
391 1 3.87516 4.9326 5.27208 32 0 0 -0.832824 -1.63384 -25.0379 2099.52 2337.92 -159.699 0 0 0 0.5 661.764 954.102 -373.698 551.289 -12.3317 349.855 
900 2 4.29622 2.75936 5.39393 -27 0 0 -216.903 1.06234 1.83517 909.586 -578.533 -1362.99 0 0 0 0.5 -26261.5 -419.864 -998.647 893.04 634.769 -207.284 
149 1 1.0016 4.61262 5.91399 18 0 0 -1.00398 -9.47614 8.8942 -775.141 89.588 -1485.43 0 0 0 0.5 192.208 66.715 555.06 41.4372 333.372 62.6059 
47 1 3.04118 4.7633 4.67574 -188 -1 0 7.4308 -7.97426 -45.7952 1569.13 -1464.23 201.349 0 0 0 0.5 -564.248 -298 -895.19 469.041 200.243 -347.442 
271 1 3.83242 2.91258 4.34009 -126 0 0 -237.705 3.95238 2.64975 1414.29 1462.62 -2304.24 0 0 0 0.5 -31476.6 -578.429 -1553.92 1449.12 1552.16 -846.998 
63 1 4.5218 1.55793 4.64051 175 1 0 -303.121 -3.09145 29.4059 -3050.2 3196.52 -209.33 0 0 0 0.5 -49006.2 -989.777 -456.981 449.04 4605.58 112.088 
855 2 3.43388 4.05856 5.94024 -226 -1 0 -36.7596 -21.3516 -8.74537 2049.06 475.409 1177.57 0 0 0 0.5 -961.58 90.7878 -130.042 134.732 -319.63 214.055 
739 2 2.49729 2.02927 5.49933 -26 0 0 -311.039 11.0141 25.2734 -288.885 -443.942 1559.24 0 0 0 0.5 -50430.6 -121.093 -938.626 1791.79 4047.26 44.5997 
515 2 4.04218 0.935083 5.8621 -143 0 -1 -372.295 8.09331 -4.35233 89.8445 550.33 448.114 0 0 0 0.5 -73582.4 -916.588 -271.235 2265.77 -940.613 348.519 
943 2 3.70794 3.083 5.73428 -33 0 0 -168.222 28.6782 4.86378 -764.847 1508.16 -176.167 0 0 0 0.5 -16230.7 -607.928 -999.908 2941.82 1484.03 -358.354 
450 1 3.37912 1.9329 4.56294 -48 0 -1 -271.256 -4.98095 -9.57002 -983.97 982.815 -2068.69 0 0 0 0.5 -38782.2 -193.646 -882.081 -500.867 -1808.42 362.835 
727 2 0.513113 4.50813 5.07314 -56 0 0 -74.5944 -8.0559 11.8499 723.67 412.509 843.809 0 0 0 0.5 -3450.93 -193.911 470.265 -54.7021 909.839 103.79 
406 1 3.15473 3.16083 4.97022 -35 0 1 -138.527 -1.22759 -26.7091 -3359.36 1443.53 2690 0 0 0 0.5 -11467.8 -172.575 -1713.29 351.454 -669.982 -408.844 
869 2 4.95595 3.74547 4.14539 -30 0 1 -93.2128 -17.5988 -27.1139 -257.537 -2282.06 -691.09 0 0 0 0.5 -4765.77 -1313.81 -792.276 -303.736 -1723.27 94.7802 
208 1 2.51574 3.67432 6.15286 -9 0 0 -60.8591 -17.7129 0.116 -2480.69 1212.34 -1439.52 0 0 0 0.5 -3220.83 -1918.44 -483.736 721.378 -388.265 12.461 
596 2 2.22353 3.51343 7.76846 -46 0 0 -89.9878 -14.1305 16.5508 -4848.47 2755.47 637.063 0 0 0 0.5 -5834.18 -1065.3 -185.512 486.779 579.295 173.394 
56 1 2.50204 3.93042 7.03863 -56 0 0 -93.2087 -0.938176 9.32258 2121.75 -784.463 949.655 0 0 0 0.5 -6623.34 -662.795 -874.854 1302.61 566.246 294.659 
533 2 0.369061 1.99649 7.17534 188 1 -1 -264.775 14.5605 -0.717479 570.588 87.6519 -821.353 0 0 0 0.5 -36816.9 -610.976 -356.742 2225.65 183.547 -357.578 
719 2 1.88187 1.16858 7.53176 192 1 0 -346.285 0.926598 10.8674 344.928 -1532.5 -1813.15 0 0 0 0.5 -63258.2 -892.923 -1416.8 530.598 1525.9 -408.123 
432 1 2.11846 2.76221 7.33123 34 0 0 -188.071 -9.85971 -3.97154 -2122.62 2731.51 -846.591 0 0 0 0.5 -19017.3 -1149.48 -95.7343 -277.729 -565.544 163.86 
603 2 0.0526797 1.04021 7.76132 80 1 0 -381.718 -12.3571 -34.5663 2511.92 -1769.87 -723.765 0 0 0 0.5 -76994.7 -428.4 -683.883 -1975.24 -6706.44 -366.143 
635 2 0.829473 0.762456 6.16734 -153 0 1 -431.804 41.7573 13.9178 1819.57 -1171.59 -2143.85 0 0 0 0.5 -98042 -2047.75 -1435.89 9960.59 3855.65 -1177.05 
818 2 4.58438 2.81847 7.20441 39 0 0 -179.731 6.2343 -11.2695 832.603 394.53 -1524.41 0 0 0 0.5 -18441.7 -463.91 -1181.72 777.941 -1834.01 342.299 
797 2 1.85146 0.615881 6.97813 130 1 -1 -442.429 18.3334 -31.0639 2359.14 -3452.73 471.186 0 0 0 0.5 -103144 -2360.19 -834.252 5288.89 -7474.01 464.172 
517 2 0.667012 1.7501 6.05194 -65 0 0 -322.909 23.2189 23.8322 1222.08 238.804 680.482 0 0 0 0.5 -54875.1 -303.287 -672.448 3842.87 3753.41 -205.43 
12 1 0.183582 0.0231478 7.71378 -72 0 0 -434.068 -20.7104 15.7586 123.187 -230.243 398.654 0 0 0 0.5 -98729.3 -269.665 -264.259 -4687.93 3543.66 248.568 
791 2 3.6082 1.42144 6.835 123 1 -1 -338.244 0.289693 -33.7556 -599.943 36.1553 -1032.26 0 0 0 0.5 -60046.2 -0.559109 -1016.54 59.8542 -6222.32 19.8285 
651 2 4.52992 1.72692 6.29447 -7 0 0 -261.052 -21.8921 2.27491 -1172.22 1054.6 -540.368 0 0 0 0.5 -37221.2 -1856.97 -699.963 -1838.07 483.285 789.73 
608 2 2.59285 2.086 7.49112 -40 0 0 -255.984 -4.71025 9.0625 1266.69 -833.414 690.088 0 0 0 0.5 -34943.5 -1876.48 -180.67 412.295 1012.3 299.745 
303 1 3.57196 3.80588 7.61379 23 0 0 -88.784 -4.43104 -14.8585 38.3273 1545.05 -1767.4 0 0 0 0.5 -5579.23 -833.127 -1492.44 557.555 -1190.6 -115.865 
554 2 2.9668 2.99637 7.83327 -76 0 0 -176.283 10.9054 18.2527 1968.64 -1712.52 -322.912 0 0 0 0.5 -18854.6 -1148.25 -265.181 2672.52 1270.32 146.213 
512 2 4.51241 4.63211 6.82465 -60 0 -1 -9.51757 5.85562 -11.6686 2474.41 -1942.5 965.337 0 0 0 0.5 -783.537 -1105.37 -586.117 636.373 -363.276 288.479 
192 1 3.80205 4.72651 7.47614 21 0 -1 1.51226 -14.5097 14.9141 1683.84 -162.991 -1164.54 0 0 0 0.5 -412.371 -191.937 116.976 472.053 -20.2503 -202.221 
183 1 2.54513 1.65476 6.64295 -28 0 0 -335.038 11.0861 -0.475314 286.844 -65.9791 53.0848 0 0 0 0.5 -58888.3 -84.2473 -141.808 1933.81 -175.154 -41.8338 
245 1 1.77773 1.59503 6.05252 -74 0 0 -331.043 11.2263 -3.18135 792.009 -718.108 676.125 0 0 0 0.5 -57671.1 -616.082 -903.248 2042.26 -623.829 421.245 
90 1 0.435157 1.21851 6.82988 -54 0 0 -349.359 -1.18872 -2.54829 -325.613 1577.03 3476.08 0 0 0 0.5 -65239.1 -2044.43 -1432.88 1077.46 40.4144 -598.314 
537 2 0.658456 0.464113 7.00322 125 1 0 -419.436 -17.1883 22.3278 -395.336 1253.47 -30.1085 0 0 0 0.5 -92083.4 -2082.95 -213.433 -3262.73 4850.83 344.465 
625 2 1.3702 1.92986 7.55352 -9 0 0 -296.818 6.91218 14.4163 -1134.64 1361.75 -397.351 0 0 0 0.5 -46417.7 -575.622 65.6772 1505.37 2255.68 53.4927 
889 2 1.357 1.3733 6.76742 -21 0 0 -335.692 0.046246 -1.2218 -3370.18 4067.5 -30.1316 0 0 0 0.5 -59759.4 -1452.54 -355.796 959.568 -370.042 666.065 
872 2 1.7475 4.4041 7.15998 -20 0 0 -31.7802 -7.82808 2.63913 -1344.74 1656.08 381.797 0 0 0 0.5 -2072.02 -639.826 -242.06 1057.59 71.3068 -39.9215 
433 1 2.92355 1.26897 7.56627 203 1 -2 -320.516 -9.74196 -2.81396 -426.423 -1313.62 -2591.47 0 0 0 0.5 -54088.2 -873.721 -1137.24 -1038.22 -958.1 529.716 
336 1 0.359004 4.49666 7.80338 41 0 0 -35.7474 -9.14012 -1.5593 -678.813 19.141 -232.792 0 0 0 0.5 -950.284 -1095.42 -442.523 2.10733 12.4164 -287.44 
876 2 4.05396 0.414335 6.57548 40 1 0 -437.333 7.57527 23.5703 -607.236 441.733 197.606 0 0 0 0.5 -99857.9 -318.258 -104.486 1858.83 5331.92 -134.243 
505 2 4.08107 1.39295 7.64862 -87 0 0 -346.253 -6.16235 -42.7021 2186.98 1588.38 -1639.67 0 0 0 0.5 -62989.3 -247.774 -1967.9 -215.858 -7703.5 -113.087 
241 1 4.65042 2.18693 7.79483 136 1 0 -297.318 -2.60342 -15.7992 -2460.37 1303.05 29.1054 0 0 0 0.5 -46389.9 -125.654 -546.327 804.762 -2635.11 963.111 
108 1 3.79937 0.207103 7.44855 -104 0 0 -495.313 13.5412 28.7835 731.96 255.174 195.304 0 0 0 0.5 -128282 278.088 -166.481 3658.62 7566.09 -90.7073 
375 1 2.15471 4.44267 6.27967 -1 0 -1 -8.77246 -11.5086 6.69416 -1115.05 3589.95 -3330.44 0 0 0 0.5 -185.177 -826.234 -343.771 477.022 -615.002 -19.2701 
288 1 3.94426 4.84565 6.22768 11 0 0 16.3072 -8.78801 -30.4736 -2004.16 -356.3 -766.681 0 0 0 0.5 -308.62 486.809 -937.515 512.598 -31.7844 330.775 
398 1 2.97008 4.85243 7.882 64 0 0 -13.3276 1.61357 -16.0973 258.77 1334.19 -1222.56 0 0 0 0.5 -563.585 -1126.9 -1108.98 336.318 73.3698 -46.8668 
999 2 4.74054 1.15712 6.70925 -77 0 0 -356.423 -25.8261 -2.26749 958.575 -3205.45 2135.6 0 0 0 0.5 -66707.9 -1252.37 -520.906 -4503.08 -718.46 611.767 
407 1 3.12304 3.58241 6.93473 171 1 0 -90.6058 -5.35957 4.15558 -1186.21 1015.33 -570.235 0 0 0 0.5 -6296.55 -1160.81 -1135.48 821.991 -202.146 -483.002 
218 1 0.200364 4.9436 6.97898 49 0 0 -1.45957 7.58508 -21.0844 -1626.55 -634.307 -111.968 0 0 0 0.5 -1392.8 148.916 -102.537 176.203 -48.5354 45.3703 
592 2 3.1115 0.180462 6.50685 112 1 0 -452.924 10.9349 11.2371 323.06 1116.4 -777.278 0 0 0 0.5 -107182 -450.401 -29.2855 2733.18 2639.6 229.027 
438 1 3.18435 3.04524 6.32697 -21 0 0 -154.336 -27.3584 -9.25645 699.343 -3249.98 2368.14 0 0 0 0.5 -14616.2 -1381.56 -1613.47 -1294.85 -1054.32 18.4608 