ITEM: TIMESTEP
37000
ITEM: NUMBER OF ATOMS
1000
ITEM: BOX BOUNDS xy xz yz pp pp pp
0.0000000000000000e+00 1.0000000000000000e+01 0.0000000000000000e+00
0.0000000000000000e+00 1.0000000000000000e+01 0.0000000000000000e+00
-0.0000000000000000e+00 1.0000000000000000e+01 0.0000000000000000e+00
ITEM: ATOMS id type x y z ix iy iz vx vy vz fx fy fz omegax omegay omegaz radius c_2[1] c_2[2] c_2[3] c_2[4] c_2[5] c_2[6] 
951 2 4.81893 3.58173 0.851656 -30 0 0 -141.301 -7.60295 -8.7334 -1482.59 2307.49 -121.049 0 0 0 0.5 -11833.1 -1614.27 -438.698 541.591 -794.1 -358.822 
358 1 1.51217 0.220104 0.37168 -75 0 0 -472.999 -4.49563 7.38299 691.201 171.124 -987.25 0 0 0 0.5 -117434 37.6043 -285.719 -1148.26 2169.17 -28.5124 
269 1 4.46019 0.0363588 1.81578 -86 0 1 -445.145 -27.8138 13.8457 -1021.33 1308.28 1499.3 0 0 0 0.5 -104828 -2983.44 -213.132 -4817.81 3147.63 342.976 
416 1 1.49618 1.59915 1.9121 -108 0 0 -298.458 -4.91347 4.57253 -1113.61 2673.19 -1607.53 0 0 0 0.5 -46810.8 -892.639 -372.032 -376.692 466.689 585.45 
814 2 0.675588 2.49951 0.229406 -99 0 1 -255.829 -10.0772 -3.68862 1020.11 -1852.36 464.138 0 0 0 0.5 -34711.2 -1269.87 -188.953 -1010.67 -484.415 -15.7684 
904 2 4.63467 4.77389 1.58484 8 0 0 -15.0492 -1.90783 9.09365 -2252.69 -473.288 -152.091 0 0 0 0.5 -1152.09 -47.5264 -48.0098 -232.172 1.87852 -5.57616 
855 2 4.22593 4.07752 0.95324 -259 -1 0 -120.473 25.0833 -18.1833 -1916.87 418.138 -551.952 0 0 0 0.5 -7990.09 -351.41 78.4648 2094.77 -941.931 453.148 
680 2 4.15442 0.536127 1.63775 -143 0 0 -409.009 -17.7948 -17.3513 -137.611 -542.745 -1772.27 0 0 0 0.5 -88148.5 -1946.34 -802.105 -2872.79 -3550.14 14.3409 
918 2 1.33964 2.52047 1.76988 -69 0 1 -265.813 13.0438 1.63496 116.134 250.489 120.366 0 0 0 0.5 -36983.1 129.544 12.2151 1848.1 240.563 25.0647 
981 2 1.94333 3.10301 1.12523 266 1 1 -257.965 24.9839 0.77744 -288.991 160.939 522.474 0 0 0 0.5 -34910.1 -347.486 -218.049 3411.68 225.441 -77.2389 
379 1 0.222462 0.200538 1.81859 -76 0 1 -505.125 6.70599 -4.06795 255.7 2936.72 2405.54 0 0 0 0.5 -133740 589.636 -789.019 2473.53 -1132.08 370.861 
267 1 2.03954 2.05253 0.984121 -149 0 0 -285.743 5.09873 7.43806 -706.443 1965.29 812.754 0 0 0 0.5 -42858.1 -840.237 -170.344 1059.98 1235.73 -361.712 
132 1 0.870584 0.228154 0.993429 191 1 1 -459.011 -4.37447 15.7763 843.966 -208.882 1137.81 0 0 0 0.5 -111344 -78.8301 -423.863 -1018.71 3979.59 33.8658 
939 2 4.57554 2.55522 1.39732 -19 0 1 -200.238 -5.83412 -24.9085 -3428.45 -4005.9 852.475 0 0 0 0.5 -21329.2 -374.16 -1046.02 -262.676 -1900.95 -791.82 
428 1 2.1944 4.12408 1.76063 27 0 0 -71.6961 -21.4065 -11.4567 -1410.05 -2069.04 598.021 0 0 0 0.5 -2233.93 213.013 4.92451 -244.212 -615.396 -336.955 
947 2 0.050789 0.264112 0.880525 118 1 1 -457.656 -11.3787 13.4589 -750.809 478.456 -2500.66 0 0 0 0.5 -111054 -10.3222 -733.146 -2690.83 2921.32 19.0692 
936 2 3.84868 1.0357 1.95445 -21 0 0 -372.987 -18.7862 -2.82741 -286.494 1022.76 -1780.48 0 0 0 0.5 -74752.3 -1102.74 -1508.86 -2497.23 -499.961 -792.185 
829 2 0.913712 1.17346 1.03628 70 1 1 -354.856 -1.03983 0.299311 6.50203 142.517 6.46039 0 0 0 0.5 -65933.1 -67.9272 -0.185327 -196.275 55.4734 -2.89057 
470 1 2.40434 2.84628 0.291758 -27 0 0 -243.228 19.8792 21.4084 116.395 -1209.72 1050.62 0 0 0 0.5 -31142.1 -885.879 -881.83 2844.53 2835.61 48.2904 
988 2 2.35592 0.210378 0.939213 140 1 1 -460.634 3.94513 -8.67455 -1916.85 2020.48 -529.177 0 0 0 0.5 -111654 -563.928 -448.388 1500.98 -2404.41 276.116 
337 1 4.19445 1.13789 0.988322 190 1 0 -363.992 -13.0248 -3.73557 48.8596 726.968 -977.911 0 0 0 0.5 -69373.2 -460.913 -339.554 -2506.89 -690.639 295.358 
385 1 2.34193 1.21131 0.636228 -175 0 0 -398.691 11.3614 -10.5177 706.443 -1965.29 -812.754 0 0 0 0.5 -83335.2 -894.212 -199.297 2668.88 -2072.73 -279.287 
864 2 1.50916 2.75655 0.0479335 -36 0 1 -250.541 13.3486 -8.80035 527.902 135.454 -50.5726 0 0 0 0.5 -32973.2 -108.423 -44.0244 1706.03 -1102.46 74.2092 
541 2 4.35195 3.15704 1.71325 167 1 1 -136.268 -3.5829 11.678 2115.3 -51.0844 1102.27 0 0 0 0.5 -11011 -1363.23 -503.272 550.96 740.195 -521.39 
496 1 1.41078 1.73706 0.0741339 205 1 1 -334.174 12.4923 1.10459 908.331 49.6862 233.259 0 0 0 0.5 -58906.6 -83.0128 -29.3262 2162.02 81.5626 -13.3357 
354 1 2.14247 4.86969 0.295343 -47 0 0 -2.30494 -19.8033 4.97961 -410.339 -133.514 2010.08 0 0 0 0.5 -953.058 -849.283 -1005.37 497.082 136.08 -438.752 
191 1 0.131915 2.74993 0.880254 198 1 2 -239.942 2.18534 25.0185 145.65 370.382 -2368.88 0 0 0 0.5 -30264.4 103.728 -450.329 373.07 3110.42 -763.808 
871 2 1.41767 4.06332 0.382279 -57 0 0 -100.767 -6.69158 -4.65577 0 0 0 0 0 0 0.5 -5316.59 -23.4453 -11.3496 -353.057 -245.644 -16.3124 
509 2 3.36829 0.417911 0.782066 -127 0 1 -455.259 7.74062 5.32638 -3529.59 2582.59 -373.759 0 0 0 0.5 -109920 -788.273 -26.0668 2883.95 1128.67 89.8459 
73 1 4.24804 1.97291 0.843488 -63 0 1 -281.461 6.47165 -3.78613 1954.24 -2161.42 -356.643 0 0 0 0.5 -42068.4 -924.957 -785.753 1330.26 -806.784 -102.231 
547 2 0.28907 4.88957 0.812379 273 1 1 -39.2552 -8.09153 -8.7496 3220.54 -3408.83 -1632.79 0 0 0 0.5 -1973.39 -1066.45 -958.525 276.642 537.982 60.1657 
347 1 2.86445 0.617941 1.71581 -64 0 1 -400.166 9.20261 -21.5143 321.385 1027.07 406.079 0 0 0 0.5 -83743.1 367.912 224.075 2120.75 -4657 -59.9516 
309 1 3.4732 4.38579 0.205222 200 1 0 -37.5248 -12.4856 31.5042 -597.929 -104.126 243.931 0 0 0 0.5 -913.912 -90.7318 -570.478 -293.801 748.833 227.902 
568 2 0.177528 3.23633 1.73776 -24 0 1 -166.788 -10.512 -0.541801 1587.54 -444.095 465.576 0 0 0 0.5 -14899 -730.509 -349.017 -606.613 -81.7415 -390.957 
677 2 0.291266 3.34136 0.0955568 -15 0 1 -169.351 -10.3711 -11.5754 -380.46 656.668 400.131 0 0 0 0.5 -15362.3 -878.188 477.8 -135.155 -1014.9 -538.75 
550 2 3.62552 3.52452 1.59673 21 0 0 -97.6777 -9.23593 2.30654 -3226.07 1631.98 -517.442 0 0 0 0.5 -6167.38 -344.525 -32.9305 120.398 -69.9775 106.229 
891 2 -0.0349079 4.09205 1.50951 -42 0 0 -93.4932 -2.14841 3.52377 3207.22 388.114 2986.09 0 0 0 0.5 -6233.98 -371.324 -461.937 875.723 -367.129 -140.694 
465 1 2.90266 3.76974 0.867558 18 0 0 -82.2047 -18.1968 17.8781 0 0 0 0 0 0 0.5 -3538.28 -173.376 -167.355 -783.232 769.512 170.339 
384 1 3.78395 1.95776 0.200262 -77 0 0 -281.855 -5.8684 -24.1 1482.98 62.4155 1490.77 0 0 0 0.5 -42602.5 167.833 -892.387 -600.168 -4206.55 323.387 
501 2 2.05025 4.98894 1.73779 -10 0 1 -9.74498 6.35953 17.8295 1249.38 146.603 562.665 0 0 0 0.5 -407.685 -196.616 -252.497 161.781 -185.676 -19.4953 
790 2 0.178132 4.99006 1.69485 -28 0 1 34.8655 -11.7315 6.13031 1407.37 -3796.58 2384.38 0 0 0 0.5 -1585.36 -12.2262 -398.469 1227.3 -722.702 -374.901 
948 2 3.24785 1.44664 1.38255 217 1 0 -319.938 4.67916 -21.5263 -1369.97 -390.956 -454.125 0 0 0 0.5 -53777.7 279.574 -420.889 1162.82 -3942.12 61.3119 
506 2 0.464465 3.71139 0.977781 -51 0 0 -106.357 -6.13449 -11.6571 1227.24 -1615.89 -150.121 0 0 0 0.5 -6315.1 -46.6645 8.20355 2.65473 -618.601 -293.148 
113 1 3.9121 3.3911 0.301859 16 0 0 -160.093 5.75663 -15.7298 564.542 485.778 981.103 0 0 0 0.5 -13240.3 399.969 203.757 611.893 -1236.25 249.25 
775 2 4.10509 1.84206 1.76326 -125 0 -1 -303.664 -1.52622 -10.5694 811.342 165.284 -405.738 0 0 0 0.5 -47998 663.848 -269.474 199.496 -1835.56 -601.306 
199 1 3.74349 2.63851 0.856214 -288 -1 0 -244.482 16.2828 1.70376 -307.851 1303.82 -310.306 0 0 0 0.5 -31226.9 -380.517 504.872 2537.2 473.257 132.131 
756 2 4.84255 3.13534 0.0830173 -102 0 0 -157.587 -18.6728 -6.97874 -1881.63 474.461 -1269.36 0 0 0 0.5 -13318.4 -598.11 -1776.38 -1255.03 -968.257 353.599 
437 1 0.622531 0.974411 2.07099 -144 0 0 -395.143 20.7523 11.7356 -1101.3 -2130.29 -694.806 0 0 0 0.5 -81533.5 598.795 15.5736 4719.72 2567.03 141.328 
503 2 2.69002 0.617862 2.68984 -87 0 0 -401.418 -7.43264 -3.35975 -93.7218 -871.2 985.639 0 0 0 0.5 -84520.9 -454.07 751.077 -1426.26 -1054.62 -766.949 
259 1 1.4134 2.8066 2.77436 -111 0 0 -226.9 11.0162 -1.60822 3204.61 -1259.62 -2920.01 0 0 0 0.5 -28018.8 -261.318 -374.425 1946.44 566.981 -622.12 
572 2 0.80225 1.03189 3.06824 -45 0 0 -350.623 -9.17775 21.6356 -81.506 682.636 -458.07 0 0 0 0.5 -64283.3 373.342 -147.319 -1669.77 3949.76 -49.4387 
289 1 0.328515 2.26665 3.93017 -144 0 -1 -255.657 -3.78469 -23.3588 -598.056 175.783 612.133 0 0 0 0.5 -34671.6 -197.834 -127.265 -229.458 -2869.49 -173.404 
229 1 2.79192 4.52892 3.8766 -72 0 0 -14.2123 -6.95114 -1.5716 -3010.33 1203.29 -2938.82 0 0 0 0.5 -1635.18 -285.721 -1107.25 620.93 -1554.74 544.574 
573 2 0.220503 1.06228 3.94292 -104 0 0 -420.238 17.6644 15.0431 795.782 -473.334 1278.35 0 0 0 0.5 -92577.5 104.209 -651.444 3791.7 3044.79 -175.985 
835 2 2.73386 1.1519 3.25695 -85 0 0 -304.621 -2.72099 0.509813 996.399 -1934.22 825.101 0 0 0 0.5 -49103 -614.182 -485.129 14.7811 -143.54 -651.371 
72 1 1.10609 1.88769 3.68257 179 1 1 -260.509 -5.69586 -22.9741 1032.99 -503.441 -328.938 0 0 0 0.5 -35935.6 -112.38 -317.083 -581.196 -3005.82 -130.844 
68 1 2.13605 3.8935 3.03518 140 1 0 -75.6965 -8.30453 -5.19571 0 0 0 0 0 0 0.5 -3000.2 -36.1101 -14.1347 -329.147 -205.93 -22.5922 
28 1 2.47088 0.472359 3.65106 -83 0 0 -460.282 8.15318 22.9889 677.138 1168.45 -2459.29 0 0 0 0.5 -110815 152.515 1002.81 2074.18 5190.15 -186.458 
926 2 0.986945 0.166481 2.72753 101 1 0 -400.036 -18.6623 -15.7091 -3805.34 4694.15 -1560.91 0 0 0 0.5 -84823.1 -1705.79 -694.967 -2681.6 -3681.48 140.765 
930 2 2.49379 2.69517 3.37042 -104 0 0 -202.96 -10.8766 -27.6429 -527.573 -89.1171 -146.283 0 0 0 0.5 -21798.5 -68.5063 -417.785 -1194.71 -3001.39 -168.201 
673 2 0.859498 1.88845 2.64259 -22 0 -1 -303.467 8.50458 5.94538 -55.612 -832.077 413.492 0 0 0 0.5 -48217.6 318.49 69.4952 1375.15 932.853 -203.565 
70 1 1.5667 3.40054 2.01143 -12 0 0 -189.738 17.7415 -12.9475 1254.77 854.788 -84.6684 0 0 0 0.5 -18367.6 752.201 229.187 2373.35 -1505.74 -227.489 
396 1 3.68725 4.91758 2.97989 15 0 0 -14.6969 2.88986 -1.68422 0 0 0 0 0 0 0.5 -113.097 -4.37271 -1.48524 22.2383 -12.9605 2.54843 
659 2 1.81001 0.86628 2.36826 -96 0 0 -391.349 1.29851 -12.0577 628.905 -2421.78 1419.3 0 0 0 0.5 -80567.2 -952.603 -465.809 724.312 -2794.72 611.515 
967 2 0.447413 0.161377 3.88676 156 1 -1 -464.336 -19.7451 21.6556 -498.946 648.604 175.351 0 0 0 0.5 -113022 66.6714 -267.713 -4851.24 5319.21 233.734 
375 1 4.51092 3.78731 3.41015 -2 0 -1 -106.042 12.0531 -8.42372 -1362.32 1908.85 1954.15 0 0 0 0.5 -6604.01 -98.9091 146.407 1056.9 28.5705 351.305 
956 2 4.78701 0.668155 2.99259 -149 0 1 -402.798 -11.325 -7.38383 1513.85 -1050.22 -95.6328 0 0 0 0.5 -86310.4 -361.685 -1070.48 -2202.73 -1962.16 385.602 
274 1 2.1928 1.71111 3.28065 -119 0 0 -287.586 9.28565 -8.48394 -1682.19 1738.62 73.6838 0 0 0 0.5 -43759.6 -531.272 -38.5603 1868.58 -1257.57 20.6462 
510 2 1.29744 0.0570644 3.54908 -146 0 0 -457.783 5.10267 8.43386 -301.707 -603.61 -1137.79 0 0 0 0.5 -110132 -207.697 -1351.07 1147.41 1543.95 -219.569 
163 1 3.53366 0.0862454 2.35977 129 1 0 -476.512 12.9934 -11.3956 453.135 559.744 -369.322 0 0 0 0.5 -119616 -158.716 -235.968 3309.83 -3131.64 162.914 
737 2 3.16783 1.60062 3.939 -50 0 0 -317.202 9.36337 -5.40503 -811.378 971.118 452.794 0 0 0 0.5 -53140.7 -344.06 -1179.52 1492.8 -717.525 -105.722 
868 2 4.16284 3.01768 3.63919 -70 0 1 -187.084 29.2008 -6.31577 -570.789 1969.04 302.035 0 0 0 0.5 -18846.9 -1171.93 -47.8632 3068.84 -423.109 -155.581 
86 1 0.71832 3.19683 3.29623 -88 0 1 -123.382 -10.3091 22.7834 -2576.67 1435.33 2516.39 0 0 0 0.5 -9224.11 -455.346 -904.637 41.7344 2203.84 -286.356 
369 1 -0.000283946 3.61628 3.00997 -45 0 0 -119.402 1.27129 -3.80772 51.719 112.984 -530.549 0 0 0 0.5 -7835.82 -87.089 -175.741 233.344 -242.5 -9.80354 
542 2 3.75066 1.58547 3.3754 -166 0 1 -320.401 2.62536 -14.4823 -131.964 298.354 -159.274 0 0 0 0.5 -55512.7 -1304.89 -1857.12 1200.31 -2807.16 850.515 
636 2 3.2059 2.02779 2.86389 -155 0 1 -266.744 11.8915 -2.27338 -2286.71 2542.98 -1266.77 0 0 0 0.5 -37832.1 -739.27 -637.333 2196.71 -772.631 222.106 
131 1 3.3659 2.84249 3.61223 -15 0 0 -198.747 -5.6632 -25.9115 -305.145 -46.1034 168.014 0 0 0 0.5 -21220.5 -28.493 -354.28 -707.418 -2782.65 -77.478 
553 2 2.44022 1.9635 2.00356 -101 0 0 -292.155 9.54196 3.04023 0 0 0 0 0 0 0.5 -44691.5 -47.6731 -4.83964 1459.65 465.071 -15.1895 
520 2 0.895129 4.797 3.91969 61 0 0 -28.3578 -9.32016 -12.9947 -155.565 304.616 345.769 0 0 0 0.5 -439.604 -103.048 -245.093 -109.567 -167.496 -144.228 
109 1 4.49349 3.83997 2.25682 3 0 1 -119.844 6.10766 -5.14266 -1610.12 1016.45 1238.15 0 0 0 0.5 -8141.5 -334.006 -475.229 359.526 -178.882 -266.934 
731 2 1.10401 4.31521 3.21085 338 1 0 -21.3896 -34.3728 -10.5659 408.207 61.2669 -666.554 0 0 0 0.5 -169.691 -582.004 -122.623 -266.867 -155.29 -369.449 
136 1 2.00239 4.77742 3.57346 -85 0 0 -19.9407 -29.0272 -0.438041 -375.661 188.177 1448.99 0 0 0 0.5 -771.468 -442.971 -908.343 -105.149 -497.646 183.973 
900 2 2.56476 3.22656 2.1523 -33 0 0 -209.481 21.4909 -21.4797 0 0 0 0 0 0 0.5 -22976.8 -241.828 -241.576 2357.21 -2355.98 241.702 
82 1 3.40254 1.35714 2.39301 153 1 -1 -329.045 -19.9052 2.09828 -1229.06 1501.09 2515.28 0 0 0 0.5 -56780.5 -759.745 -665.184 -2711.38 1225.68 -551.445 
646 2 4.49071 2.44396 3.38238 -71 0 0 -235.969 -5.99537 -11.9317 -1740.72 -191.015 -118.559 0 0 0 0.5 -30292.1 -1001.19 -528.601 -140.425 -868.632 -231.517 
236 1 3.88293 0.789631 3.10856 -95 0 1 -390.431 -30.9026 -29.5613 -1952.77 60.1562 -1270.95 0 0 0 0.5 -80589.7 -575.926 -840.75 -6189.75 -6150.14 -556.612 
137 1 4.49137 0.240655 3.71214 -118 0 0 -461.696 -4.80671 -19.4724 -621.485 107.782 -159.877 0 0 0 0.5 -112336 -1687.99 -749.069 -180.487 -4512.82 17.5685 
772 2 4.16013 2.38687 2.42513 -115 0 0 -247.948 5.94113 -13.5272 -1098.51 1068.56 -147.979 0 0 0 0.5 -32745.9 -1384.4 -584.69 926.754 -1660.95 -75.3833 
79 1 4.5169 1.01922 2.42715 127 1 1 -378.497 -8.61134 -29.2227 466.631 445.029 -453.558 0 0 0 0.5 -76571.4 -489.211 -1514.04 -616.664 -6181.82 -329.513 
515 2 4.12528 0.823054 3.79139 -155 0 -1 -418.556 18.4828 7.21503 1574.62 585.879 1387.48 0 0 0 0.5 -92880.3 -1726.9 -1186.25 4935.25 1620.48 280.159 
833 2 3.97853 3.09809 2.69022 6 0 0 -200.328 34.4992 -18.076 -260.448 1325.12 959.509 0 0 0 0.5 -21036.3 -1106.48 -24.2847 3738.95 -1808.28 127.662 
134 1 4.28222 1.66374 2.71968 -37 0 1 -303.951 1.89131 1.55749 -617.719 242.326 -483.243 0 0 0 0.5 -48124.9 -1358.02 -359.995 839.947 852.035 13.118 
473 1 1.66092 4.9315 2.68326 69 0 0 35.7065 -47.5082 10.3543 -811.217 -763.58 -1045.57 0 0 0 0.5 -1231.48 -1301.71 -979.823 989.013 -782.387 342.054 
524 2 4.3758 1.72227 3.8907 -102 0 0 -321.349 7.58209 -8.88489 2622.35 -2490.46 -1016.56 0 0 0 0.5 -54705.4 -930.384 -1143.97 1409.25 -1355.28 -200.442 
832 2 1.00126 0.667291 4.77615 -105 0 0 -427.953 9.76778 24.8967 -2193.17 1268.93 1687.44 0 0 0 0.5 -96607.3 -288.829 -746.973 2601.58 6127.77 -444.987 
527 2 1.65198 0.290797 4.27548 -68 0 -1 -494.156 21.9355 1.04194 -1456.23 1901.66 -73.9792 0 0 0 0.5 -130180 -1125.65 -1437.93 6774.7 366.941 -687.957 
362 1 1.65187 3.25527 4.75779 -106 0 -1 -104.275 -24.2629 28.9908 0 0 0 0 0 0 0.5 -5693.23 -308.236 -440.066 -1324.71 1582.84 368.299 
494 1 2.12497 3.98904 5.59004 165 1 0 -40.2844 -24.6386 2.37485 109.242 262.927 -561.936 0 0 0 0.5 -840.417 -264.007 243.012 -497.325 2.27623 -84.4485 
889 2 2.52202 0.866195 5.50396 -32 0 0 -374.319 -17.7835 10.9483 -3668.74 2491.46 -223.782 0 0 0 0.5 -74753.8 -1345.19 -449.759 -2242.58 2177.89 374.796 
486 1 1.55401 0.205353 5.87505 180 1 0 -475.971 -4.79962 24.4902 -1928.39 783.639 1408.78 0 0 0 0.5 -119234 -126.584 -706.921 -963.595 6516.7 -150.058 
438 1 2.42994 2.41215 4.55706 -27 0 0 -236.316 9.50246 -19.5025 19.5694 -884.656 559.857 0 0 0 0.5 -29240.4 310.694 -55.7801 1167.87 -2408.13 -129.51 
61 1 2.18213 0.116097 4.50049 -207 0 1 -494.815 24.8205 41.4118 2723.39 933.76 -803.161 0 0 0 0.5 -128982 -644.598 -2177.84 6816.21 10464.6 -555.587 
253 1 4.0144 1.71294 4.52133 -110 0 1 -317.373 -12.3088 16.0897 -403.165 1482.99 -1435.48 0 0 0 0.5 -53662.9 -742.129 -1538.57 -2091.63 2778.78 505.931 
483 1 4.16715 3.25114 4.57705 -6 0 -1 -177.755 18.438 -1.12423 63.1928 677.239 331.861 0 0 0 0.5 -16546.5 -670.066 -165.811 1682.46 -116.593 -193.326 
69 1 0.105791 2.78872 5.95007 -71 0 1 -209 9.37998 -15.5638 1576.23 -446.095 -365.965 0 0 0 0.5 -23388.8 -1403.88 -599.392 1514.07 -1387.03 -57.1043 
210 1 2.44785 1.60286 5.06923 55 0 -1 -309.609 -11.2711 2.27636 -1683.63 508.53 -1323.84 0 0 0 0.5 -51239.7 -482.157 -352.995 -1545.26 877.72 -304.46 
652 2 1.80987 3.04246 5.76565 4 0 0 -231.897 29.1611 -5.44995 -158.835 541.295 147.655 0 0 0 0.5 -28177 -674.542 -32.6133 3608.05 -643.386 20.6676 
861 2 4.74277 4.44694 4.05505 -8 0 1 -29.0955 15.0449 10.6475 -179.279 -560.5 -3770.01 0 0 0 0.5 -955.234 -1047.14 -808.707 1146.97 754.715 -397.827 
409 1 1.30699 1.25627 5.79158 253 1 0 -337.054 -18.3373 -13.7318 -463.221 685.844 470.043 0 0 0 0.5 -59623.8 143.452 56.5328 -3265.25 -2480.55 88.4637 
857 2 0.609423 2.27453 4.88291 -105 0 0 -262.479 8.19887 -9.48303 96.8014 -125.458 -593.549 0 0 0 0.5 -36150.3 -58.4211 189.762 1175.19 -1200.43 28.0221 
340 1 4.10105 2.41766 4.31232 -62 0 1 -233.945 16.6893 0.691436 -815.033 1222.3 210.577 0 0 0 0.5 -28764.1 -1318.2 -573.369 2246.32 208.296 -475.909 
190 1 0.214626 2.0197 5.83638 -116 0 1 -288.525 -5.91985 -20.5958 -59.1534 -196.459 -782.892 0 0 0 0.5 -43626.4 -1377.51 -269.97 -648.322 -3129.5 82.4177 
724 2 1.86559 1.45095 4.20701 -89 0 0 -278.31 -19.1041 -8.5218 0 0 0 0 0 0 0.5 -40556.1 -191.095 -38.0243 -2783.9 -1241.82 -85.2424 
460 1 4.3616 4.92907 4.80738 55 0 0 41.5545 -2.8151 -21.5785 -785.02 1584.9 2809.48 0 0 0 0.5 -1400.54 -606.468 -1183.58 524.945 1001.23 -682.406 
329 1 2.29515 4.39864 4.71462 -57 0 1 -57.6263 -0.370189 -7.05482 1046.91 -319.865 -11.3985 0 0 0 0.5 -2033.39 46.7572 464.173 104.691 -410.206 -153.58 
517 2 4.19695 2.49872 5.24697 -74 0 0 -219.177 10.6699 -0.451027 -579.223 939.413 -447.253 0 0 0 0.5 -25323.5 -277.637 -680.723 1297.68 -108.41 265.725 
2 1 2.05847 2.19526 5.53455 -37 0 0 -266.391 13.8523 -7.92071 -771.679 1475.74 361.751 0 0 0 0.5 -37350.6 -948.172 -449.719 2276.32 -890.307 -138.437 
876 2 3.43106 1.21183 5.33562 58 1 0 -357.822 5.95519 35.4728 -136.883 -327.33 2393.82 0 0 0 0.5 -66707.6 -405.733 -1348.06 1547.01 6575.51 -25.7527 
932 2 3.00106 2.57787 5.75772 -24 0 0 -269.529 1.63053 -30.7683 -503.915 1393.72 -1628.55 0 0 0 0.5 -38113.2 -193.274 -737.695 422.964 -4532.93 183.752 
111 1 2.88507 3.35592 4.24189 -23 0 0 -192.808 23.7249 -27.2796 47.8552 -43.2583 -16.0309 0 0 0 0.5 -19454.2 -284.356 -359.551 2385.05 -2760.83 349.737 
270 1 4.3247 1.48967 5.22683 -71 0 0 -336.81 -2.59751 11.3406 22.7116 -1917.04 1521.96 0 0 0 0.5 -59227.2 155.164 -790.755 -90.0327 1759.7 451.776 
958 2 3.18268 3.25609 5.14843 103 0 0 -181.667 16.7638 -22.7613 -110.489 -369.029 302.128 0 0 0 0.5 -17269.6 -20.6044 -154.503 1627.89 -2190.61 84.6431 
616 2 4.19444 4.06425 5.03045 -42 0 0 -131.059 22.7014 2.81944 1545.11 -208.549 -888.477 0 0 0 0.5 -9576.52 -485.907 -309.504 1640.57 598.366 -145.471 
674 2 3.24129 0.433749 5.47872 -30 0 0 -455.758 -6.2131 -0.252247 2258.83 1544.38 -960.258 0 0 0 0.5 -111064 -2393.33 -298.611 178.827 124.336 538.264 
413 1 3.15878 1.61214 4.80939 -128 0 0 -316.484 12.0829 -6.05541 330.565 954.453 -512.327 0 0 0 0.5 -54006.7 -298.613 -1147.47 2066.66 -670.831 339.244 
273 1 4.09251 0.671522 5.94413 -170 0 0 -461.896 26.7258 6.38639 -223.431 148.845 352.446 0 0 0 0.5 -111602 -416.165 -149.889 6486.97 1585.32 -188.516 
63 1 0.244609 3.48135 5.39808 199 1 0 -120.185 -0.149243 -9.87904 -1213.68 -2983.87 -979.576 0 0 0 0.5 -7376.07 470.748 -171.373 460.634 -353.644 727.062 
450 1 3.30274 0.804926 4.13718 -58 0 -1 -414.522 -30.9879 -5.45019 -2184.32 -534.269 -121.993 0 0 0 0.5 -90788.4 -693.711 -336.191 -6712.94 -1181.95 -42.24 
288 1 1.33334 4.57378 4.70304 9 0 0 -47.5544 -6.74279 13.7458 -776.792 130.41 50.5012 0 0 0 0.5 -1581.24 -38.6456 -122.592 -93.1555 324.365 56.1106 
430 1 4.36818 2.01431 5.88797 -108 0 0 -263.618 15.9383 22.1493 496.845 479.586 -252.909 0 0 0 0.5 -36419.2 -630.537 -1179.28 2239.68 2997.06 366.068 
122 1 0.383295 4.27571 5.01401 209 1 -1 -53.0505 -10.4247 -7.15018 755.515 657.684 -190.407 0 0 0 0.5 -1718.38 -521.936 -192.699 -291.471 -293.506 157.846 
257 1 3.41464 4.25786 4.52766 -26 0 0 -129.053 22.5296 -19.2214 3798.46 -1649.37 3962.77 0 0 0 0.5 -9888.15 -488.078 -1475.55 2032.22 -2523.08 760.621 
609 2 3.45781 4.19621 5.52832 3 0 -1 -127.749 11.6643 -21.5808 180.127 -2530.84 -1832.51 0 0 0 0.5 -9412.1 -792.553 -1262.73 1328.45 -588.435 -665.375 
462 1 3.86071 0.820748 4.64829 214 1 0 -402.117 4.65857 14.8139 1224.54 861.345 375.594 0 0 0 0.5 -84992.4 -748.225 -1109.45 1332.56 3289.29 434.53 
144 1 4.02439 0.204564 5.12525 -119 0 0 -455.244 -4.6361 22.8504 389.549 535.056 264.77 0 0 0 0.5 -109208 -1669.96 -903.172 -394.431 5543.04 318.194 
368 1 2.02097 3.00288 6.92501 -36 0 0 -215.166 17.0443 10.8461 -573.879 478.875 65.5782 0 0 0 0.5 -24160.1 -310.768 -69.4413 2000.28 1304.83 -163.376 
484 1 3.37024 1.24418 6.38529 -47 0 0 -361.172 -13.2972 11.9274 137.346 -1173.03 134.023 0 0 0 0.5 -68307.6 -586.207 -80.9328 -2456.82 2248.98 139.442 
603 2 0.434075 2.68703 7.82835 99 1 0 -290.458 32.2747 1.18576 1327.73 -153.972 870.779 0 0 0 0.5 -44893.7 -1192.5 -596.167 4777.17 244.054 335.579 
708 2 1.63419 1.36875 6.96051 -226 0 0 -345.705 -10.9284 26.9462 -2715.9 1097.79 -2129.07 0 0 0 0.5 -63461.9 -125.987 -1830.1 -1648.05 5088.37 -189.771 
429 1 1.77177 1.43218 7.94044 -44 0 -1 -368.525 20.8222 -24.5277 478.321 -262.381 2978.8 0 0 0 0.5 -71130.6 -47.1005 -1657.59 3969.77 -4911.26 104.182 
818 2 1.1579 3.08679 6.62577 34 0 0 -231.179 2.4091 -14.6859 324.705 117.24 -85.6313 0 0 0 0.5 -27848.5 -46.1419 -173.352 274.855 -1726.11 72.297 
92 1 1.51684 3.3336 7.72378 -2 0 0 -176.412 -12.126 -6.92713 2077.26 -127.734 -2528.83 0 0 0 0.5 -17012.9 924.271 -269.456 -396.294 -135.479 -476.59 
226 1 3.33549 1.92006 7.19984 -105 0 0 -277.285 -24.7682 -12.8823 -1107.63 1081.66 -1679.75 0 0 0 0.5 -40621.5 -909.811 -1116.41 -3139.68 -2231.8 242.388 
739 2 1.39264 2.06015 6.36515 -35 0 0 -281.162 2.35773 -13.4608 -1880.31 801.764 354.63 0 0 0 0.5 -42641.9 -63.7897 -65.6213 1040.06 -1390.03 -108.851 
44 1 2.09821 1.53958 6.08356 -82 0 -1 -339.116 4.71974 3.65203 2452.19 -597.833 -1098.91 0 0 0 0.5 -61463.2 -999.013 -649.781 1796.37 834.197 250.237 
684 2 4.34055 0.74734 7.37958 170 1 0 -399.837 3.31424 -7.86241 1754.03 -2362.55 -1956.04 0 0 0 0.5 -84129.7 -553.786 -124.918 1354.75 -1251.45 -345.24 
432 1 3.9193 3.11618 7.11564 27 0 0 -189.732 2.11815 -6.18133 267.007 -16.7396 -68.6709 0 0 0 0.5 -19049.7 -3.74721 -26.0805 226.904 -604.885 6.6178 
849 2 0.696651 0.59009 7.00689 66 1 0 -458.503 -3.28437 -6.89294 1643.26 352.087 -1019.57 0 0 0 0.5 -110565 -214.184 -564.338 -809.549 -1250.85 -198.117 
204 1 2.42196 1.02498 6.62532 -193 0 0 -380.963 2.45942 24.6457 2151.1 -873.382 -1638.49 0 0 0 0.5 -77087.2 -752.856 -1633.5 1191.14 4809.78 367.215 
560 2 0.0685194 0.619954 7.58284 111 1 0 -415.266 -13.173 24.149 -846.162 126.972 1377.67 0 0 0 0.5 -91082.8 -74.4152 -693.305 -2845.77 5683.73 128.524 
222 1 1.10859 2.48559 7.41583 229 1 1 -275.521 15.5608 -11.8902 609.509 253.804 -150.79 0 0 0 0.5 -39774.6 176.489 -77.776 2504.55 -1461.97 303.566 
635 2 2.43649 2.28966 6.64836 -163 0 1 -251.196 -16.5901 -1.33079 -2388.45 -266.122 569.594 0 0 0 0.5 -34089 -208.38 -126.169 -1767.25 356.439 -63.3533 
426 1 0.731441 1.47385 7.40862 184 1 0 -351.832 -9.96935 8.66594 256.703 -303.062 41.2629 0 0 0 0.5 -64827.3 -259.455 -473.856 -1801.69 1604.29 284.645 
602 2 0.387444 1.24641 6.13662 133 1 0 -333.953 1.68545 9.49531 971.373 -483.971 173.429 0 0 0 0.5 -58479.3 -1075.17 -367.72 370.455 1720.48 204.367 
330 1 2.46292 0.291831 6.16081 139 1 -1 -467.879 -15.6931 14.8995 -2277.32 -190.184 -130.961 0 0 0 0.5 -115609 -498.144 -544.362 -3653.01 3345.99 251.422 
563 2 4.8663 4.8929 6.30856 -14 0 0 24.6542 -8.67023 -24.1266 -2593.39 640.236 1634.11 0 0 0 0.5 -1647.86 -602.156 -187.426 1220.48 884.498 -941.841 
870 2 0.543931 2.05969 6.77427 -38 0 0 -278.274 -7.02164 -20.0645 237.296 -149.118 -129.213 0 0 0 0.5 -41089.5 -373.405 -310.163 -657.945 -2686.38 137.595 
570 2 3.97266 0.163075 6.73794 -161 0 0 -464.735 -0.35037 1.48333 888.029 -1154.96 1097.79 0 0 0 0.5 -113456 842.057 53.6931 209.706 166.999 -19.4308 
619 2 0.271962 0.512607 6.07321 59 1 0 -461.349 -2.64775 -9.18875 -1348.93 2246.36 -1516.92 0 0 0 0.5 -111621 -1576.82 -296.559 -319.326 -2428.89 421.936 
588 2 1.8457 3.96567 6.55355 -36 0 1 -96.1722 -21.1889 -0.686958 -47.8531 -1119.22 97.4526 0 0 0 0.5 -5441.51 -558.475 -175.494 -830.987 -212.427 105.462 
797 2 2.67099 0.736487 7.30969 147 1 -1 -452.514 12.5412 47.2657 533.109 -195.992 2285 0 0 0 0.5 -107360 -533.189 -1929.52 3204.22 10935.3 -23.2103 
966 2 2.68728 4.03186 6.69164 174 1 0 -91.6527 21.7813 15.541 952.928 1766.75 987.03 0 0 0 0.5 -4578.42 -811.927 -313.944 1205.08 731.638 -511.066 
54 1 1.77904 4.22791 7.44367 -36 0 0 -69.1879 10.5503 1.45254 -4506.5 1720.53 -108.475 0 0 0 0.5 -3607.38 -215.71 -80.4708 1767.78 -314.931 -45.2593 
630 2 2.38435 3.6543 7.59327 64 0 0 -177.18 8.9009 12.5544 4480.62 -1275.96 2040.17 0 0 0 0.5 -17735.5 -874.941 -227.924 2576.39 1254.5 224.3 
91 1 4.53772 4.34457 7.02782 25 0 0 -82.6214 0.984494 -2.69871 1666.06 -1300.67 -955.064 0 0 0 0.5 -4283.36 -1203.76 226.941 978.426 -199.276 -79.1839 
290 1 4.31313 1.62221 6.44351 139 1 -1 -360.739 5.54531 31.6135 -2809.82 1338.86 836.604 0 0 0 0.5 -68889.5 -926.848 -1062.93 1727.61 5780.65 461.756 
554 2 3.02224 4.32641 7.82126 -79 0 0 -74.1348 -20.5664 0.789252 -1838.17 -1434.54 825.512 0 0 0 0.5 -2832.08 -29.3409 368.764 -289.526 536.195 484.837 
77 1 3.7951 1.37559 7.79283 191 1 0 -339.115 -8.08225 -12.4169 -302.432 1171.54 3556.95 0 0 0 0.5 -61029.6 -834.86 -838.078 -426.302 -2222.73 157.395 
671 2 3.49309 4.73187 7.02314 23 0 0 4.02497 -0.186009 -8.87008 -751.995 2659.59 -1432.43 0 0 0 0.5 -348.005 -785.959 -1252.22 522.313 0.0734454 -306.282 
208 1 0.591825 4.76469 6.99327 -11 0 0 -43.106 3.33467 -3.44539 1224.35 -1476.88 636.988 0 0 0 0.5 -1299.8 -808.032 -1128.16 578.35 -598.894 898.257 
94 1 0.232838 4.48937 6.04165 -37 0 -1 -8.3566 -17.3252 -12.1598 -56.3242 955.137 435.598 0 0 0 0.5 -35.1102 260.979 9.54993 -100.464 -64.4504 80.3908 
953 2 0.753124 4.33779 7.82703 52 0 0 -55.0147 23.3323 -14.0871 21.5397 253.2 886.149 0 0 0 0.5 -1621.03 -757.367 -753.541 808.48 -554.451 625.288 
492 1 0.238434 3.44437 7.21349 -159 0 0 -156.551 11.3039 -20.2222 1600.62 -2163.34 -2773.09 0 0 0 0.5 -13404.1 -1105.47 -868.687 1655.37 -1502.24 62.7527 
856 2 3.61852 4.1505 6.52413 -11 0 0 -71.6354 -16.1839 -7.98861 1273.74 -3413.29 50.3047 0 0 0 0.5 -2806.75 -1076.3 -738.754 -82.0101 -591.154 -112.08 
306 1 3.27169 2.0858 6.28913 152 1 0 -293.795 -2.11791 -7.68035 2895.37 -428.964 -670.844 0 0 0 0.5 -46314.7 -845.251 -868.345 139.538 -933.096 297.448 
651 2 4.87156 3.00829 7.39905 -16 0 0 -189.364 -15.1467 -19.231 487.642 1154.09 588.418 0 0 0 0.5 -18753.5 377.956 -79.7919 -1323.28 -1833.83 90.6026 
417 1 3.88759 4.35908 7.52567 13 0 0 -66.4434 -15.1851 38.438 1441.52 -1209.09 2082.1 0 0 0 0.5 -3339.72 -358.246 -1438.05 -288.019 1391.4 625.275 
969 2 1.31076 4.60057 6.2563 28 0 -1 -52.366 3.0541 -17.5333 -626.816 23.7309 -72.2409 0 0 0 0.5 -1675.76 -720.335 -295.428 432.28 -638.509 337.383 
212 1 3.15775 0.115872 6.37447 201 1 0 -465.412 9.02058 15.0278 837.47 563.775 441.433 0 0 0 0.5 -114916 -328.753 -1173.44 2507.34 3471.25 -178.247 
415 1 3.04624 2.44429 7.821 7 0 0 -251.698 -6.34777 -0.444082 481.157 -200.071 279.63 0 0 0 0.5 -33427.3 -397.544 -406.615 -644.541 168.814 -72.4922 
869 2 2.98752 3.18561 7.23458 -35 0 1 -193.566 -0.525626 -0.53611 775.536 -502.484 -840.549 0 0 0 0.5 -20126.5 -349.319 -254.637 238.538 157.9 -44.1124 
559 2 3.14331 4.69498 6.04381 -86 0 0 -10.9564 1.7583 -5.02251 -3195.47 4443.01 1476.59 0 0 0 0.5 -679.393 -1146.81 -1108.1 839.429 88.1033 -330.817 
241 1 2.88198 3.33873 6.2949 158 1 0 -207.142 3.98674 -4.65523 431.006 -1508.7 -949.223 0 0 0 0.5 -22512.6 -615.26 -259.731 598.287 -414.374 -335.473 
754 2 4.87881 1.08311 6.6225 -87 0 1 -401.083 -5.07325 -21.4631 910 -2362.25 1602.36 0 0 0 0.5 -85603.4 -693.66 -355.999 -228.239 -4553.4 99.5205 
221 1 2.30263 0.0598688 9.98362 119 1 -1 -457.999 -6.71665 -2.9697 199.858 -280.163 -199.793 0 0 0 0.5 -109888 -66.0236 -399.903 -1578.41 -764.624 16.7151 
788 2 2.49052 2.73408 9.1328 26 0 0 -190.004 -9.65741 7.29677 17.9961 15.4122 398.81 0 0 0 0.5 -18906.5 -78.4918 -201.338 -950.848 714.135 42.423 
533 2 1.67552 3.68091 8.69874 212 1 -1 -134.194 14.0063 0.569762 450.953 -2134.01 -57.1712 0 0 0 0.5 -9666.78 937.084 -318.173 1170.19 8.98903 -61.8522 
334 1 0.452952 1.68466 9.82816 107 1 -1 -315.565 8.56454 -5.8299 292.027 -829.37 2275.18 0 0 0 0.5 -52998.4 -325.851 -1517.32 1260.81 -1141.06 92.753 
806 2 0.96301 0.819804 9.90132 -91 0 0 -470.579 14.4414 -4.21686 151.531 -165.478 129.789 0 0 0 0.5 -115906 -59.5795 21.2135 3512.83 -1003.37 -7.03163 
146 1 1.39106 1.31351 9.07629 -28 0 -1 -336.761 -11.0717 -7.60478 -2363.12 -246.549 -557.154 0 0 0 0.5 -60355.7 -74.8028 -84.5067 -2054.03 -1570.92 -68.0816 
500 1 2.70759 1.96704 8.58828 -39 0 0 -245.502 -22.7815 -5.21363 -64.1201 -185.406 140.61 0 0 0 0.5 -31574.2 -325.835 -99.8121 -2940.96 -632.973 -35.6256 
862 2 3.5983 1.18522 9.68001 -81 0 0 -349.524 -14.8582 -4.11429 78.2959 1861.42 1588.53 0 0 0 0.5 -63969.5 -719.994 -430.904 -2743.31 -774.776 -527.466 
675 2 1.49308 2.72761 8.76013 11 0 0 -213.101 -18.0778 18.4786 417.875 2183.46 -140.621 0 0 0 0.5 -23739.5 869.636 -174.47 -1817.93 2049 107.882 
168 1 2.21666 1.39965 9.27094 91 1 -1 -361.901 14.3968 8.74179 2011.89 -1282.61 467.194 0 0 0 0.5 -69514 610.811 -91.712 2793.95 1436.36 -46.949 
469 1 1.99738 0.444935 9.21477 73 1 0 -447.646 1.09327 -13.3723 218.296 1685.74 -118.679 0 0 0 0.5 -104906 692.628 -301.851 452.34 -3184.58 131.693 