ITEM: TIMESTEP
148000
ITEM: NUMBER OF ATOMS
1000
ITEM: BOX BOUNDS xy xz yz pp pp pp
0.0000000000000000e+00 1.0000000000000000e+01 0.0000000000000000e+00
0.0000000000000000e+00 1.0000000000000000e+01 0.0000000000000000e+00
0.0000000000000000e+00 1.0000000000000000e+01 0.0000000000000000e+00
ITEM: ATOMS id type x y z ix iy iz vx vy vz fx fy fz omegax omegay omegaz radius c_2[1] c_2[2] c_2[3] c_2[4] c_2[5] c_2[6] 
120 1 3.15852 1.54145 0.0722842 0 1 0 -9.80602e-06 2.00588e-05 1.38318e-05 8.88188e-06 -1.79197e-05 -1.20612e-05 1.14986e-05 -1.31853e-06 -7.96762e-06 0.5 -1.02322e-05 -4.89401e-05 -4.11478e-06 -5.57033e-06 -1.14815e-06 -1.07346e-05 
525 2 2.11628 1.23433 1.6999 0 0 0 -1.12844e-05 -3.96827e-05 -3.67057e-05 9.0015e-06 3.36074e-05 3.25783e-05 -5.1736e-06 -4.89171e-07 1.04949e-05 0.5 7.63399e-08 -3.13133e-06 1.74908e-06 3.78399e-06 2.78406e-06 -1.98202e-06 
371 1 4.9593 3.68328 1.58372 0 0 1 9.74771e-06 -2.2336e-05 3.13898e-05 -8.43657e-06 1.97921e-05 -2.76849e-05 2.78608e-06 -8.97368e-07 1.65197e-06 0.5 -3.99273e-06 -2.45272e-05 1.90937e-05 -2.91608e-06 -2.45679e-06 2.79318e-06 
18 1 1.98117 2.69195 0.5325 0 0 0 -5.60289e-06 8.91824e-07 2.98078e-05 4.53855e-06 -1.17179e-06 -2.57612e-05 1.8569e-05 -6.9886e-06 5.75859e-06 0.5 -8.59021e-06 -3.54549e-05 -2.02688e-05 2.74638e-05 1.84301e-05 -1.92362e-05 
868 2 2.87004 3.00634 0.0288951 0 0 1 1.8773e-06 -2.12477e-06 2.83722e-05 -1.27749e-06 1.31495e-06 -2.48127e-05 1.58604e-05 -3.21861e-06 6.26992e-06 0.5 -1.90891e-05 -3.48073e-05 -4.42193e-06 2.55405e-05 2.48884e-06 -1.7766e-07 
25 1 1.41548 0.708711 1.08322 0 0 0 -5.2987e-06 -9.67721e-06 -3.96271e-05 4.25787e-06 7.52175e-06 3.5494e-05 1.40674e-05 -3.21621e-06 6.33317e-06 0.5 -1.51659e-05 -8.70694e-05 -4.56098e-05 3.03011e-05 2.54425e-05 -3.60607e-05 
378 1 4.61919 2.40719 0.0725671 0 0 1 6.93272e-07 9.48833e-06 2.44543e-05 -5.39818e-07 -8.1369e-06 -2.17372e-05 1.87357e-05 5.21251e-06 -3.21283e-06 0.5 -8.40639e-06 -2.28021e-05 -1.21752e-05 -8.67422e-06 -5.12069e-06 -2.20128e-05 
8 1 3.44143 2.06797 1.74253 0 0 0 1.2775e-06 -2.13402e-05 1.12812e-05 -1.39925e-06 1.84141e-05 -1.01581e-05 1.47886e-05 -5.1367e-06 1.96513e-06 0.5 -2.93065e-06 -5.91029e-06 4.8125e-06 7.20279e-06 7.13795e-06 3.03795e-06 
629 2 4.07712 2.61561 1.1981 0 0 1 7.08627e-06 -1.21414e-05 2.73244e-05 -6.43802e-06 1.05587e-05 -2.39683e-05 1.79312e-05 -3.42327e-06 -1.40208e-07 0.5 -2.61811e-05 -1.15152e-05 -2.5354e-05 1.92757e-06 -1.26445e-05 -6.3378e-06 
5 1 2.34652 3.90052 1.05343 0 0 0 -5.45197e-06 -3.56162e-05 3.41701e-05 5.12522e-06 3.10629e-05 -2.93859e-05 5.43704e-07 2.44e-06 7.82351e-06 0.5 -3.46388e-06 -4.94634e-06 -7.29045e-06 5.43244e-06 2.86999e-06 -2.097e-06 
650 2 0.459141 3.43668 1.12968 0 0 0 -2.08009e-05 -3.02379e-05 -3.1303e-06 1.83224e-05 2.56296e-05 4.22058e-06 1.77664e-05 3.88683e-06 6.50732e-07 0.5 -2.92919e-05 -3.43023e-05 -3.35142e-05 2.18825e-05 2.45692e-05 -1.65287e-05 
14 1 3.29515 3.13365 1.54472 0 0 0 1.83839e-06 -2.16547e-05 2.97171e-05 -1.5914e-06 1.91259e-05 -2.58507e-05 7.56301e-06 2.84149e-06 1.64135e-06 0.5 -8.83762e-07 -7.8372e-06 -1.13918e-05 8.26371e-06 5.70398e-07 -9.62718e-06 
264 1 3.99642 3.86791 1.37951 0 0 0 9.43125e-06 -2.44053e-05 3.13694e-05 -8.16293e-06 2.14731e-05 -2.77251e-05 1.0631e-05 2.55216e-06 6.87017e-07 0.5 -7.68871e-06 -1.1694e-06 -1.74292e-05 7.70431e-06 5.38275e-06 -9.59213e-07 
223 1 0.747646 2.47807 1.14565 0 0 1 -1.89445e-05 -2.90633e-05 -1.28632e-07 1.62731e-05 2.44617e-05 9.56615e-07 2.05445e-05 -7.84902e-06 3.80794e-06 0.5 -1.89735e-05 -4.06315e-05 -0.000107444 1.2457e-05 4.25012e-05 -2.61885e-05 
364 1 4.4227 4.23693 0.539816 0 0 1 -2.55129e-06 8.11354e-06 4.02169e-05 2.91852e-06 -7.25376e-06 -3.53579e-05 1.13724e-05 1.89318e-07 6.38197e-06 0.5 4.03595e-07 1.82256e-06 -2.62379e-06 -1.43554e-07 8.24108e-06 -3.8405e-06 
107 1 1.66077 1.61825 0.747464 0 0 1 -1.32926e-05 -1.54919e-06 -2.28855e-05 1.12531e-05 5.17008e-07 2.11401e-05 2.09967e-05 -9.33726e-07 1.52931e-06 0.5 1.77927e-05 -1.90073e-05 -1.77274e-05 -2.46928e-06 8.62118e-07 -1.23397e-05 
529 2 2.67264 2.19961 1.06194 0 0 0 4.0437e-06 -1.00418e-05 7.03503e-06 -4.02945e-06 8.26357e-06 -5.83148e-06 1.90224e-05 -1.55619e-06 4.18622e-06 0.5 -2.81909e-06 -9.25869e-06 -1.20884e-05 5.78679e-06 9.87846e-07 6.64634e-07 
515 2 4.38643 0.435922 1.64386 0 0 0 1.59041e-06 -2.34375e-05 -9.92256e-06 -1.3027e-06 2.04092e-05 8.19083e-06 1.12382e-05 3.1973e-07 6.43752e-08 0.5 -2.03757e-05 -1.78346e-05 -2.80969e-05 -2.57955e-05 1.05307e-05 8.18902e-06 
244 1 4.11373 0.57046 0.682728 0 1 1 1.989e-06 2.84033e-06 -5.6792e-06 -1.63743e-06 -2.32709e-06 4.52046e-06 1.64351e-05 4.40406e-06 -2.3119e-06 0.5 -1.14167e-05 -9.81059e-06 -2.35237e-05 -4.12256e-06 8.37173e-06 4.55446e-06 
20 1 2.90179 0.57083 1.78383 0 0 0 2.25583e-06 -1.91589e-05 -1.57828e-05 -2.14837e-06 1.63633e-05 1.35353e-05 7.37594e-06 -5.63842e-06 2.25366e-06 0.5 -1.95799e-05 -3.91408e-05 -5.26097e-05 4.29287e-06 2.6528e-05 -2.72344e-05 
280 1 4.09077 1.58201 1.14625 0 0 0 4.28458e-06 -8.13265e-06 4.79124e-06 -3.97686e-06 7.04196e-06 -4.6655e-06 1.67729e-05 -2.26202e-06 -1.11932e-06 0.5 -1.84669e-05 -1.52734e-05 -4.11651e-05 -6.02753e-07 2.51065e-05 6.01896e-06 
620 2 1.3946 4.37083 0.857641 0 0 1 -8.67195e-06 -2.2215e-05 2.04857e-05 9.14959e-06 1.91421e-05 -1.6617e-05 1.47045e-05 8.07621e-06 -4.52021e-06 0.5 -7.77279e-06 -3.67867e-05 -5.83558e-05 -2.00758e-06 8.66628e-08 8.7847e-06 
1000 2 3.60331 2.39824 0.339805 0 1 1 1.01195e-05 6.00973e-06 2.28289e-05 -8.25224e-06 -5.66326e-06 -2.03473e-05 1.36936e-05 -1.01032e-07 -1.97326e-06 0.5 -1.68677e-05 -3.75409e-05 -1.91215e-05 -5.79998e-06 -1.42826e-05 -5.95624e-06 
103 1 3.28431 3.68319 0.698924 0 0 1 -2.68961e-07 -9.7911e-06 3.76531e-05 3.41138e-07 8.1725e-06 -3.30836e-05 1.27966e-05 6.98524e-07 6.01173e-06 0.5 -2.75182e-06 1.37629e-06 -6.73018e-06 3.91962e-06 4.55105e-06 -3.96605e-06 
622 2 0.930667 4.80385 0.0848179 0 0 1 -8.97238e-06 8.08706e-07 3.35583e-05 9.45531e-06 -1.04483e-06 -2.81038e-05 2.08019e-05 -3.87642e-06 6.13335e-07 0.5 -6.60666e-08 3.61745e-06 -2.53875e-05 -3.06125e-06 -9.78416e-06 5.60338e-06 
506 2 0.743572 1.45132 1.18237 0 0 0 -2.06129e-05 -2.98903e-05 -3.54039e-05 1.75299e-05 2.51763e-05 3.18323e-05 1.72745e-05 -3.07698e-06 1.04649e-05 0.5 6.69827e-06 -5.04723e-05 -6.85737e-06 5.86674e-05 1.41698e-05 -3.17926e-05 
626 2 1.28817 3.41646 0.566227 0 0 1 -1.96589e-05 -1.33903e-05 -4.16269e-07 1.72193e-05 1.15991e-05 1.66895e-06 7.45337e-06 -9.16438e-06 4.76713e-06 0.5 -2.62677e-05 -3.87717e-05 -7.85571e-06 1.88348e-05 2.00557e-05 -1.23798e-05 
553 2 0.744044 0.0774146 1.56309 0 0 0 -1.13748e-06 -2.27884e-05 -5.15671e-05 3.85689e-07 1.91922e-05 4.61502e-05 1.22654e-06 -9.18173e-06 1.31384e-05 0.5 4.88709e-06 4.00515e-06 3.98332e-06 -1.47482e-06 3.83697e-06 -6.8682e-06 
135 1 1.54768 3.20474 1.67709 0 0 0 1.00427e-05 -3.19994e-05 -2.42386e-06 -8.92636e-06 2.75108e-05 2.97581e-06 1.17163e-05 -1.82126e-05 -2.47645e-06 0.5 2.45251e-06 -7.97971e-05 -1.36181e-05 1.91929e-05 8.66971e-06 -1.44647e-06 
624 2 4.3246 4.92099 1.47154 0 0 1 7.90309e-06 -1.31065e-05 3.36749e-05 -6.00905e-06 1.21756e-05 -2.9996e-05 8.19475e-06 2.94235e-06 2.73631e-06 0.5 5.07385e-06 3.88187e-06 -2.38095e-05 2.96076e-06 -9.60336e-06 -1.44698e-05 
256 1 4.58719 1.36785 0.305 0 0 0 4.38072e-06 4.72639e-06 1.56248e-06 -3.90431e-06 -3.86539e-06 -1.83504e-06 1.77209e-05 3.82188e-06 -7.51056e-06 0.5 -6.8863e-06 -1.79748e-05 -3.32126e-05 -1.26992e-05 1.14995e-05 -2.14243e-05 
260 1 3.31854 0.0700611 1.02518 0 0 0 3.03706e-06 -9.72992e-06 -2.15973e-05 -2.17264e-06 8.33379e-06 1.88399e-05 8.70362e-06 8.03906e-06 -4.18451e-06 0.5 -1.29586e-05 -3.53402e-05 -3.65672e-05 -2.46754e-06 9.0925e-06 -2.12793e-05 
616 2 3.19106 4.48061 1.50662 0 0 1 9.33665e-06 -3.01766e-05 3.17492e-05 -8.23695e-06 2.62952e-05 -2.82278e-05 -1.45796e-06 2.18802e-06 2.89724e-06 0.5 -1.30197e-05 -5.02747e-06 -5.87005e-06 8.10428e-06 2.49566e-06 -3.60975e-06 
106 1 1.74521 2.2356 1.52961 0 0 1 4.3702e-06 -3.36169e-05 5.27403e-07 -4.33105e-06 2.88416e-05 4.57107e-07 1.58903e-05 -7.00223e-06 -4.2054e-06 0.5 3.23289e-06 -4.28074e-05 -1.328e-05 1.03046e-05 1.66728e-05 -1.32928e-05 
157 1 1.3897 4.17881 1.83902 0 0 0 8.59089e-06 -3.56081e-05 1.79627e-05 -7.00887e-06 3.07036e-05 -1.44458e-05 1.37372e-05 3.71321e-06 1.26638e-06 0.5 -1.89751e-05 -6.00483e-05 -6.46977e-05 1.12242e-05 2.25401e-05 -1.21353e-05 
516 2 2.34691 0.890425 0.687968 0 0 0 -1.13494e-06 9.07183e-06 -1.33421e-05 5.9679e-07 -8.73704e-06 1.22346e-05 1.2299e-06 -9.33693e-06 -2.83151e-06 0.5 3.99522e-06 -1.15316e-05 -4.03872e-06 2.25092e-06 1.39079e-05 -1.46341e-05 
183 1 0.415262 4.58223 1.00378 0 0 0 -7.75307e-06 -3.27772e-05 4.49225e-05 8.65571e-06 2.87257e-05 -3.68469e-05 2.81149e-05 1.08935e-05 2.79214e-06 0.5 2.15607e-06 -2.28176e-06 1.94971e-06 1.88827e-06 -3.3289e-06 1.94929e-06 
625 2 0.399958 3.91216 0.210003 0 0 1 -1.39438e-05 1.72977e-06 1.62034e-05 1.30881e-05 -1.3171e-06 -1.207e-05 2.87417e-05 -2.09933e-06 -9.25896e-06 0.5 -1.74871e-06 -8.06525e-07 -6.90993e-06 -1.89342e-06 -2.47946e-06 5.1177e-06 
91 1 2.22066 4.71678 1.69643 0 0 1 9.90005e-06 -3.4743e-05 3.04738e-05 -8.46923e-06 3.02831e-05 -2.59967e-05 2.68129e-06 -3.14602e-06 -1.0559e-06 0.5 -1.62259e-05 -1.40485e-05 -4.98913e-06 -6.15153e-06 5.83164e-06 -2.89474e-06 
257 1 4.94043 2.69124 1.70825 0 0 0 6.98144e-06 -2.30695e-05 2.51599e-05 -6.29946e-06 2.0431e-05 -2.22996e-05 8.40809e-06 8.6865e-07 -2.03881e-06 0.5 -2.95473e-05 -2.22765e-05 -5.70962e-05 1.62746e-06 -1.65816e-05 -1.07098e-05 
4 1 3.72174 1.12778 1.95711 0 0 0 2.50037e-06 -2.44202e-05 -5.13306e-06 -2.30205e-06 2.10936e-05 3.95748e-06 1.15877e-05 -1.4262e-06 -3.76412e-07 0.5 -7.99937e-06 -1.36672e-05 -3.91539e-05 -1.07661e-05 1.18846e-05 2.04103e-05 
609 2 1.99624 4.76004 0.136897 0 0 1 -2.84659e-06 -1.13131e-05 3.86678e-05 3.17442e-06 9.46735e-06 -3.35679e-05 7.16961e-06 -8.12892e-06 5.31374e-06 0.5 -6.57588e-05 -0.000204236 -3.28634e-05 5.39353e-05 2.25302e-05 -4.1709e-05 
117 1 3.12745 1.31375 1.15364 0 1 0 4.95734e-06 -1.08214e-05 -4.99037e-06 -4.47273e-06 9.0678e-06 4.1059e-06 1.52285e-05 -2.92806e-06 -1.0099e-06 0.5 1.83156e-06 -1.11699e-05 2.42563e-06 1.29568e-06 7.38467e-06 7.3817e-06 
511 2 1.0808 2.25053 0.230646 0 0 0 -6.88709e-06 1.74446e-05 -7.33337e-06 5.92884e-06 -1.60512e-05 7.29269e-06 2.75823e-05 -4.41505e-06 -6.09393e-06 0.5 -1.27118e-05 -3.98724e-05 -0.000100359 8.92823e-06 4.2931e-05 -2.11505e-05 
911 2 0.492021 0.56362 0.69764 1 0 0 -4.00912e-06 -1.23504e-05 -4.76184e-05 3.16243e-06 9.76299e-06 4.25128e-05 3.82996e-06 -4.82162e-06 -1.27073e-06 0.5 9.50181e-06 -3.68037e-05 7.50416e-07 -3.87413e-06 3.80296e-06 -1.51823e-05 
668 2 0.00216586 3.81978 1.93313 0 0 0 -6.25026e-07 -5.72738e-05 2.03321e-05 6.69628e-08 4.90129e-05 -1.6529e-05 6.3716e-06 6.83124e-06 -4.25276e-06 0.5 -4.42254e-05 -0.000115659 -4.72256e-05 3.45528e-05 -8.55003e-06 -3.97465e-06 
90 1 2.93989 4.58016 0.420375 0 0 1 -5.35134e-06 -8.63396e-06 4.72912e-05 5.59192e-06 7.36364e-06 -4.17916e-05 8.18114e-06 -2.99485e-06 7.8025e-06 0.5 -7.83902e-06 2.94814e-05 5.03753e-06 2.24283e-05 1.59423e-05 1.10474e-05 
734 2 4.13742 3.24507 0.374915 0 1 1 7.86557e-06 6.43861e-06 4.08688e-05 -6.82201e-06 -5.6814e-06 -3.61292e-05 1.67369e-05 2.35001e-06 1.34661e-06 0.5 -9.30006e-06 -8.87414e-06 -4.65713e-06 8.68454e-07 7.06351e-06 -3.95374e-06 
672 2 0.0675579 1.9856 1.68986 0 0 0 -2.51829e-05 -4.62831e-05 -2.41935e-05 2.15218e-05 3.96499e-05 2.18764e-05 1.79357e-05 -3.15803e-06 5.89399e-06 0.5 -6.74412e-05 -0.000122043 -4.91766e-05 4.69083e-05 3.9013e-05 1.99942e-06 
759 2 4.95866 2.03868 0.95074 0 0 0 7.74507e-06 -1.05841e-05 1.44155e-05 -7.11748e-06 9.48698e-06 -1.2885e-05 1.5826e-05 -9.8728e-07 -3.93352e-06 0.5 -5.70477e-06 -3.88581e-05 -1.41337e-05 -9.626e-06 -1.05446e-06 -7.25101e-06 
21 1 1.84566 0.356772 2.43117 0 0 0 -8.20148e-06 -3.57297e-05 -3.36259e-05 7.03004e-06 3.09168e-05 2.97794e-05 7.18307e-06 -1.0564e-05 1.01813e-05 0.5 2.45374e-06 3.60252e-06 -5.0445e-07 -3.98522e-07 3.21286e-06 -6.46357e-06 
682 2 2.73058 4.08362 2.77248 0 0 0 7.88974e-06 -2.48e-05 2.59458e-05 -6.93108e-06 2.16931e-05 -2.25981e-05 6.12867e-07 -4.62144e-07 2.59699e-07 0.5 -3.73194e-05 -3.08155e-05 -1.09756e-05 1.32465e-05 2.53802e-05 3.0333e-05 
907 2 0.982093 4.62506 2.63571 1 0 0 7.72355e-06 -4.62091e-05 2.34804e-05 -7.05298e-06 3.9297e-05 -1.93029e-05 2.0714e-06 -5.71518e-06 2.16583e-06 0.5 -4.17905e-05 -5.68181e-05 -5.69877e-05 1.54341e-05 2.93132e-05 -2.02728e-05 
144 1 1.68506 3.60065 2.81087 0 0 0 1.12488e-05 -4.18488e-05 3.10137e-06 -1.0113e-05 3.58369e-05 -2.30406e-06 -3.11959e-08 4.58234e-07 -1.83267e-06 0.5 -1.25897e-05 -7.68935e-06 -8.87192e-06 1.01768e-05 1.63457e-06 -1.69988e-06 
675 2 2.83106 4.73851 3.5454 0 0 0 8.88338e-06 -2.05573e-05 2.73045e-05 -8.99178e-06 1.85831e-05 -2.39555e-05 -5.16614e-06 1.52012e-06 -2.48486e-06 0.5 9.32691e-07 6.83945e-06 1.24453e-05 5.87027e-06 -7.78687e-07 1.23496e-05 
502 2 4.38953 1.31125 3.26921 0 0 0 3.49176e-06 -2.31445e-05 -3.25954e-06 -3.90061e-06 2.10339e-05 2.30299e-06 3.82643e-06 1.84963e-06 -2.92352e-06 0.5 -2.90993e-05 -1.70254e-05 -1.73536e-05 -1.65556e-05 1.86144e-05 3.06646e-05 
27 1 2.60908 0.300756 3.21067 0 0 0 4.30356e-06 -2.78308e-05 -1.92246e-05 -4.62503e-06 2.4004e-05 1.65503e-05 -1.41854e-06 -4.45599e-06 3.41418e-06 0.5 -2.72716e-05 -3.23195e-05 -6.49434e-05 1.12389e-05 2.53492e-05 4.21851e-06 
965 2 1.35575 3.65815 3.79896 1 0 0 1.4171e-05 -4.70908e-05 -2.66025e-06 -1.26224e-05 3.98151e-05 2.95462e-06 -3.75971e-06 6.83943e-06 -7.74436e-06 0.5 -1.0716e-05 -3.01752e-05 -3.59821e-05 1.71672e-05 -1.00703e-05 2.0748e-05 
61 1 1.66165 0.448633 3.51355 0 0 0 -4.22221e-06 -3.94017e-05 -4.43087e-05 2.83e-06 3.32539e-05 3.90131e-05 -1.35665e-06 -3.41076e-06 6.7522e-06 0.5 -2.02674e-05 -6.534e-07 -3.8609e-06 3.66125e-06 1.52729e-05 -1.73511e-06 
680 2 1.1901 2.78153 3.34693 0 0 0 -7.19585e-06 -4.22282e-05 -4.12419e-06 5.82749e-06 3.56282e-05 4.19668e-06 2.04121e-06 4.13199e-06 -1.42505e-06 0.5 -1.13902e-06 -1.00049e-05 -1.64858e-05 1.60254e-06 8.2405e-06 5.29041e-06 
251 1 4.7142 3.03384 3.89554 0 0 0 1.89461e-05 -2.75478e-05 2.54859e-05 -1.72201e-05 2.48369e-05 -2.26904e-05 8.31996e-06 6.60379e-06 -9.95444e-06 0.5 -3.036e-05 -7.89194e-06 1.11339e-06 -2.40493e-05 1.06011e-05 1.91283e-05 
517 2 4.0089 2.89362 2.2182 0 0 0 7.02312e-06 -2.70898e-05 2.22351e-05 -5.86995e-06 2.44806e-05 -1.94821e-05 3.11462e-06 3.27532e-06 -3.30137e-06 0.5 4.23863e-07 -6.56517e-07 -7.31195e-06 -9.98221e-07 -9.77448e-07 4.53023e-06 
6 1 3.42179 1.77988 2.73261 0 0 0 1.01566e-06 -2.03694e-05 1.32083e-05 -1.58648e-06 1.78198e-05 -1.18162e-05 1.0854e-05 -3.41113e-06 5.09306e-06 0.5 -4.0212e-05 8.22004e-07 3.60768e-06 1.05598e-05 1.96334e-05 8.05747e-06 
519 2 4.43345 3.61409 3.03091 0 0 0 6.63571e-06 -2.08811e-05 3.50517e-05 -5.98547e-06 1.92386e-05 -3.09558e-05 4.13837e-06 3.33255e-06 -1.37303e-06 0.5 6.45405e-07 1.70004e-05 1.00527e-05 -1.25546e-05 -2.15952e-06 8.07937e-06 
509 2 1.9362 1.51611 3.62334 0 0 0 1.40993e-05 -3.43328e-05 -3.86359e-05 -1.28698e-05 2.84691e-05 3.41537e-05 -4.35711e-06 1.40078e-05 4.48535e-07 0.5 4.34555e-06 -4.81699e-06 -3.72016e-05 -4.26033e-06 7.67157e-06 1.04457e-05 
142 1 1.03538 1.94219 2.17004 0 0 0 -1.19509e-05 -3.61608e-05 -1.88303e-05 9.77968e-06 3.08202e-05 1.71067e-05 1.51656e-05 -1.80005e-08 2.51788e-06 0.5 4.67146e-07 -5.06144e-06 -1.11071e-05 4.43371e-06 -7.96498e-07 1.22648e-05 
941 2 0.192215 2.25844 2.77345 1 0 0 -1.94527e-05 -5.48426e-05 -1.6904e-05 1.6504e-05 4.7044e-05 1.54551e-05 8.45864e-06 7.71326e-07 1.63568e-06 0.5 -8.10718e-06 -2.38226e-05 -3.55835e-05 -8.4876e-08 5.76012e-06 4.23788e-06 
919 2 0.650387 4.31555 3.53384 1 0 0 2.73211e-06 -5.13746e-05 1.71135e-05 -2.72387e-06 4.367e-05 -1.37883e-05 7.42866e-06 1.51098e-06 -8.41331e-06 0.5 -2.31122e-05 -4.12184e-05 -2.5047e-05 2.28845e-05 8.00076e-07 1.47568e-05 
95 1 3.53903 3.77815 2.26938 0 0 1 1.03754e-05 -2.5777e-05 3.05163e-05 -9.08487e-06 2.32024e-05 -2.69599e-05 1.43684e-06 -4.74014e-09 5.8386e-08 0.5 -2.56212e-05 -9.04026e-06 -3.52008e-05 8.52485e-07 1.45392e-05 -4.63499e-06 
458 1 1.55689 4.75362 3.86466 1 0 0 8.0739e-06 -3.43711e-05 3.29374e-05 -7.57783e-06 2.92336e-05 -2.83402e-05 -8.66002e-06 1.18409e-06 1.25221e-06 0.5 -1.06457e-05 -5.8719e-06 -6.60981e-06 8.45107e-06 -1.42817e-06 -1.206e-06 
41 1 1.14045 0.960483 2.0111 0 0 0 -7.58157e-06 -3.31645e-05 -3.39193e-05 6.00811e-06 2.81916e-05 3.0394e-05 1.31445e-05 -1.45913e-06 5.57467e-06 0.5 -1.07968e-05 -7.38995e-06 -2.51507e-05 4.81377e-06 2.08053e-05 -1.26479e-05 
814 2 0.271119 1.22755 3.4035 1 0 0 1.75411e-06 -4.22247e-05 -3.01441e-05 -2.19877e-06 3.57289e-05 2.70176e-05 6.40789e-06 -4.45293e-06 1.45198e-05 0.5 -2.92625e-05 -2.91031e-05 -3.26905e-05 1.19162e-05 2.11756e-05 3.41356e-05 
130 1 1.70519 2.64752 2.50034 0 0 0 -9.86494e-06 -3.89888e-05 -6.26739e-06 8.31074e-06 3.32518e-05 6.08948e-06 1.17644e-05 -5.06515e-06 -5.79297e-06 0.5 -1.45296e-05 -3.7059e-05 -3.20715e-05 1.50414e-05 1.41924e-05 2.12744e-05 
12 1 2.70257 1.09577 2.61133 0 0 0 7.64795e-06 -2.28575e-05 -1.21238e-05 -6.98181e-06 1.95739e-05 1.03221e-05 6.32066e-06 -1.03689e-05 5.65144e-06 0.5 -3.18464e-05 -4.83992e-05 -3.49706e-05 1.65527e-05 2.09454e-05 -1.04405e-06 
512 2 3.18634 2.03168 3.78746 0 0 0 1.19687e-05 -5.05995e-06 1.01776e-05 -1.1393e-05 4.37313e-06 -8.31995e-06 8.21098e-06 -3.24533e-06 5.05866e-06 0.5 -8.45435e-06 -1.93013e-05 -1.35621e-05 1.04428e-06 -7.58128e-08 1.87501e-05 
151 1 2.47924 3.3005 3.34131 0 0 0 5.8149e-06 -3.00852e-05 1.77776e-05 -4.99368e-06 2.6433e-05 -1.52395e-05 -1.37843e-06 -3.85101e-06 1.79444e-06 0.5 -5.92457e-06 -5.51051e-05 -4.4433e-05 2.49213e-06 1.76806e-05 1.87139e-05 
667 2 0.284324 1.32083 2.40711 0 0 0 -7.86708e-06 -4.53884e-05 -3.0065e-05 6.26422e-06 3.88136e-05 2.69847e-05 9.11807e-06 2.66049e-06 7.8627e-06 0.5 -1.54734e-05 -7.03256e-05 -5.29138e-05 2.59213e-06 7.85492e-07 9.71789e-06 
38 1 3.79042 0.738153 3.87284 0 0 0 9.32648e-06 -7.54269e-06 -7.44188e-06 -9.03977e-06 7.16137e-06 6.19922e-06 -9.88773e-06 -1.69918e-06 -1.64722e-06 0.5 -3.23843e-05 -1.21759e-05 -7.33066e-05 -3.53403e-05 2.17783e-05 5.27479e-05 
936 2 0.319917 3.36951 3.50683 1 0 0 -1.70501e-05 -4.3754e-05 1.49948e-06 1.42984e-05 3.71021e-05 -2.58119e-07 8.13176e-06 -8.42104e-06 -4.82407e-06 0.5 2.31728e-06 -4.76078e-05 -1.86796e-05 2.65627e-07 2.34423e-05 3.27577e-05 
531 2 4.80013 0.808218 2.48028 0 0 0 -5.24768e-06 -3.49264e-05 -3.04897e-06 3.93758e-06 3.11485e-05 2.23228e-06 1.54297e-06 1.09428e-06 -5.60413e-06 0.5 -8.76995e-06 -4.71073e-08 -1.90768e-05 -1.13314e-05 -1.6432e-05 -1.01461e-05 
527 2 4.03024 4.31518 3.61906 0 0 0 1.40416e-05 -1.96762e-05 3.90075e-05 -1.29871e-05 1.79213e-05 -3.4444e-05 -4.03056e-06 2.50606e-07 1.51021e-06 0.5 -2.62354e-05 -3.38079e-06 7.05018e-06 -1.91197e-05 5.89465e-06 1.97098e-05 
383 1 4.36293 4.34455 2.2889 0 0 1 3.63715e-06 -1.60191e-05 3.19551e-05 -3.19002e-06 1.46742e-05 -2.8482e-05 1.94955e-06 -7.75331e-07 1.67914e-06 0.5 -2.2328e-05 -4.53437e-06 8.6623e-06 1.09244e-05 -3.22795e-06 -7.42216e-06 
992 2 0.69568 0.439349 3.85271 1 1 0 4.28352e-06 -4.35592e-05 -3.724e-05 -4.63778e-06 3.66435e-05 3.30055e-05 -7.1864e-07 7.97754e-06 5.59111e-06 0.5 -2.37333e-05 -5.4467e-05 -1.02124e-05 1.65205e-05 -7.2515e-06 2.65305e-05 
521 2 4.93615 4.52797 3.25035 0 0 0 1.07257e-05 -1.51595e-05 3.4002e-05 -1.00899e-05 1.38367e-05 -3.02129e-05 -3.06213e-06 3.8491e-06 2.90021e-06 0.5 -5.8236e-06 -1.07801e-05 -1.50895e-05 -5.70855e-06 -6.97235e-07 2.31036e-05 
136 1 1.88498 1.67145 2.62267 0 0 0 -5.91478e-06 -4.1679e-05 -3.34531e-05 4.53754e-06 3.55329e-05 2.97587e-05 3.53418e-06 6.47439e-06 4.61396e-06 0.5 -3.66557e-05 -4.42382e-05 -3.07717e-05 2.64412e-05 4.85579e-07 1.28434e-05 
540 2 4.51129 0.178607 3.415 0 0 0 3.48765e-06 -2.49023e-05 -6.4703e-06 -3.79418e-06 2.27181e-05 5.00572e-06 -1.22001e-05 3.78281e-06 -6.18432e-06 0.5 1.17059e-05 8.52782e-06 6.35007e-07 -9.37087e-06 -5.66593e-06 8.23984e-06 
510 2 3.85504 2.56843 3.17075 0 0 0 1.68839e-06 -2.4226e-05 2.01415e-05 -2.47378e-06 2.14923e-05 -1.81027e-05 2.04771e-06 3.00889e-07 -1.19808e-07 0.5 1.58889e-05 1.85097e-05 -9.77769e-06 -4.7175e-07 2.61239e-06 1.46525e-05 
19 1 4.3655 1.8475 2.40881 0 0 0 -7.1561e-07 -6.50292e-06 1.1024e-05 -2.77119e-07 6.05449e-06 -1.04264e-05 6.86779e-06 1.43115e-06 -1.9176e-06 0.5 -5.50315e-05 -1.87206e-06 -2.69126e-05 2.24299e-06 2.50328e-05 4.58782e-06 
543 2 1.07326 1.78716 3.19514 0 0 0 3.10359e-06 -4.0694e-05 -2.08576e-05 -3.31051e-06 3.42846e-05 1.88764e-05 9.68974e-06 8.92331e-06 3.65421e-06 0.5 -6.13458e-06 -6.90709e-06 -4.21971e-06 -1.00616e-05 8.54397e-06 6.03753e-06 
773 2 4.78774 2.22775 3.30762 0 0 0 2.74259e-06 -2.36925e-05 1.76569e-05 -3.23641e-06 2.15061e-05 -1.5926e-05 4.17002e-06 5.61598e-06 -3.55402e-06 0.5 -4.02102e-06 -4.06397e-05 -7.92763e-05 -1.14778e-05 2.3732e-05 7.46359e-05 
555 2 2.23907 2.50561 3.8985 0 0 0 9.38972e-06 -2.83748e-05 2.17696e-05 -8.7646e-06 2.5152e-05 -1.87027e-05 -2.29507e-06 -7.90545e-07 1.94014e-06 0.5 1.29439e-06 6.47654e-06 8.21194e-06 -5.58089e-07 5.84525e-06 1.76978e-05 
429 1 0.306933 2.40109 3.75656 1 0 0 -1.26857e-05 -4.8273e-05 -1.864e-05 1.05282e-05 4.0979e-05 1.70264e-05 5.14413e-06 1.88398e-06 1.0048e-05 0.5 -1.20171e-05 -7.81858e-05 -4.73919e-05 1.84994e-05 -1.1383e-05 4.46325e-05 
316 1 0.889718 0.512904 2.86994 1 0 0 -8.83606e-06 -4.40762e-05 -4.01193e-05 6.72886e-06 3.74468e-05 3.55486e-05 4.18267e-06 4.83131e-07 6.77873e-06 0.5 5.94197e-06 -8.93606e-06 -3.42169e-06 3.92715e-06 3.27351e-06 8.59042e-06 
503 2 3.61689 0.768812 2.88624 0 0 0 4.50056e-06 -2.55653e-05 -6.08583e-06 -4.17076e-06 2.24005e-05 4.88818e-06 -1.30779e-06 -6.91093e-08 1.83011e-06 0.5 -6.00825e-07 4.64696e-06 -4.89779e-05 9.57261e-07 -8.60726e-07 1.24919e-05 
896 2 0.702241 3.66503 2.63023 1 0 0 9.38468e-06 -4.66352e-05 1.26574e-05 -8.61434e-06 3.97019e-05 -9.89097e-06 5.64538e-06 1.50458e-06 -3.62218e-06 0.5 -2.24593e-05 -2.42293e-05 -4.97179e-05 5.62959e-06 -1.14404e-05 1.15595e-05 
690 2 1.93672 4.67096 2.92997 0 0 0 4.3499e-06 -3.12184e-05 3.21036e-05 -3.95426e-06 2.70033e-05 -2.7453e-05 -1.57662e-06 -1.81995e-08 5.68528e-06 0.5 -3.4111e-05 -1.91211e-05 -5.60136e-06 2.17886e-05 1.4929e-06 -4.63871e-06 
641 2 3.45948 3.50051 3.22723 0 0 0 5.8336e-06 -1.98735e-05 3.16505e-05 -5.23634e-06 1.80093e-05 -2.79725e-05 -3.01826e-06 -1.11639e-07 2.71902e-06 0.5 4.51933e-06 8.52209e-06 -2.00217e-05 9.31302e-07 -7.68703e-06 2.74504e-05 
528 2 3.34274 4.80217 2.44241 0 0 0 1.24712e-05 -2.68377e-05 2.99928e-05 -1.13099e-05 2.35354e-05 -2.66956e-05 1.18524e-06 1.20171e-06 7.64532e-07 0.5 -5.46827e-06 -1.05129e-05 -1.35393e-05 -8.92488e-06 3.96451e-07 1.00575e-06 
225 1 2.66658 2.37984 2.99793 0 0 1 -6.57561e-06 -3.05702e-05 1.35321e-05 5.24845e-06 2.67053e-05 -1.1444e-05 -2.06763e-06 5.96227e-06 4.95472e-06 0.5 -1.2361e-05 -3.3348e-05 -2.73755e-07 2.06335e-05 -5.75788e-06 -3.40737e-06 
119 1 0.614487 2.84345 2.06694 0 0 0 -1.90069e-05 -3.70057e-05 3.02767e-06 1.60587e-05 3.16093e-05 -1.92302e-06 1.43337e-05 9.64147e-07 -9.52498e-07 0.5 9.22288e-06 -2.22262e-05 -4.98442e-05 3.94758e-06 1.90884e-05 -4.30365e-06 
94 1 2.46189 3.50069 2.00485 0 0 1 -3.48896e-07 -3.04141e-05 3.27741e-05 2.72601e-07 2.61894e-05 -2.82539e-05 6.30279e-06 -2.58955e-06 9.96103e-07 0.5 8.70998e-06 8.54069e-06 4.3779e-06 8.31544e-06 9.21582e-06 1.3702e-05 
522 2 2.58374 2.50803 2.00903 0 0 0 -2.88282e-06 -3.08332e-05 1.31593e-05 2.31231e-06 2.65295e-05 -1.11879e-05 1.17966e-05 -6.34577e-06 3.28732e-06 0.5 -9.02927e-06 -8.9734e-07 -9.31537e-06 1.32482e-05 1.81947e-05 2.04097e-06 
200 1 2.46547 0.208511 4.196 0 1 0 2.07676e-05 -1.57026e-05 -1.56774e-05 -1.9287e-05 1.35051e-05 1.34195e-05 -1.238e-05 -7.96063e-06 1.44483e-05 0.5 -2.9034e-05 -1.68034e-05 -5.0021e-05 3.25912e-06 2.01302e-05 1.22948e-05 
114 1 4.70709 1.00385 4.17137 0 0 0 8.35205e-06 -1.17113e-05 -7.21984e-07 -8.25951e-06 1.12495e-05 1.49228e-07 -3.98536e-06 -1.8422e-06 -5.60436e-06 0.5 -1.62699e-05 1.45661e-06 2.98079e-06 -3.0369e-06 -9.45193e-06 -3.80891e-06 
820 2 1.30996 2.29327 4.21136 1 0 0 2.9888e-06 -3.11282e-05 7.36859e-07 -2.78471e-06 2.60595e-05 -1.71595e-08 -6.49216e-06 -5.65717e-06 8.23089e-06 0.5 -5.28779e-06 5.77409e-06 -1.20691e-05 2.18482e-05 1.395e-05 1.88349e-05 
47 1 4.65573 1.58201 5.43553 0 0 0 2.09899e-05 -6.10528e-06 7.23934e-06 -1.94137e-05 6.63579e-06 -6.68821e-06 1.81757e-06 7.01467e-06 2.17225e-06 0.5 -2.24962e-05 -3.29419e-05 -1.38954e-05 -9.29411e-06 -1.55077e-05 2.4031e-05 
824 2 1.64908 3.83184 5.79236 1 0 0 4.1535e-06 1.0872e-05 3.12141e-05 -3.69077e-06 -9.44332e-06 -2.65489e-05 -1.30551e-05 1.10257e-07 -5.49486e-06 0.5 -6.48191e-06 -5.66773e-06 -2.33145e-05 -3.32647e-06 7.53705e-07 8.38382e-06 
172 1 3.44268 0.338813 4.72114 0 1 0 1.05204e-05 1.2931e-05 2.7146e-06 -1.05981e-05 -1.09383e-05 -2.98609e-06 -1.21307e-05 -2.97327e-06 2.80486e-06 0.5 -2.88178e-05 -2.94897e-05 -9.57194e-05 -2.55879e-05 2.47358e-05 4.10024e-05 
718 2 0.202284 2.03674 5.5128 0 1 0 1.16625e-06 -7.07029e-06 2.48712e-06 -1.46333e-06 4.83619e-06 -1.24003e-06 -9.57053e-06 -4.96172e-06 1.37242e-06 0.5 -3.83302e-05 -7.77967e-06 -2.50986e-05 1.94285e-05 -1.98328e-05 5.48137e-05 
505 2 0.484436 3.50178 5.83383 0 0 -1 -4.28754e-06 2.48078e-05 2.20513e-05 3.74771e-06 -2.31036e-05 -1.85671e-05 2.0935e-06 -6.22331e-06 1.20811e-05 0.5 -2.11651e-06 -7.85453e-05 -3.88458e-05 1.97602e-06 -4.99218e-07 6.30252e-05 
524 2 3.99533 2.73519 5.70676 0 0 0 4.42026e-05 2.69062e-05 5.00371e-05 -4.04207e-05 -2.20692e-05 -4.46879e-05 -1.26471e-05 3.26502e-05 1.8736e-05 0.5 2.43891e-07 7.94873e-06 7.99647e-06 -5.60855e-06 -6.47518e-06 5.53622e-06 
839 2 0.579381 1.61475 4.31103 1 0 0 1.08904e-05 -4.39774e-05 -2.40927e-05 -9.74458e-06 3.72968e-05 2.17307e-05 -3.50865e-06 -4.8605e-07 1.21122e-05 0.5 -5.8057e-06 -5.60301e-05 -3.32229e-05 3.15967e-05 -1.21368e-06 5.74413e-05 
937 2 2.44361 3.38656 4.33719 1 0 0 9.9752e-06 -2.39338e-05 1.69651e-05 -9.04336e-06 2.12713e-05 -1.45643e-05 -7.51645e-06 -6.301e-06 5.44663e-06 0.5 -2.49849e-06 8.19562e-06 -4.14071e-05 1.19441e-05 1.14398e-05 2.23553e-05 
811 2 2.60623 3.94631 5.52496 1 0 0 1.54385e-06 6.29637e-06 2.00957e-05 -1.52878e-06 -4.92783e-06 -1.7041e-05 -1.00786e-05 -8.28338e-06 -4.32192e-07 0.5 -4.68041e-06 -2.31179e-05 -7.34424e-06 -1.02646e-05 -4.70357e-06 2.16996e-05 
827 2 1.52088 3.18135 4.66348 1 0 0 7.96807e-06 -3.16003e-05 6.47559e-06 -6.8158e-06 2.65022e-05 -4.98424e-06 -1.27489e-05 -7.51674e-06 -3.89331e-06 0.5 -5.74124e-06 -6.32912e-06 -3.65712e-05 -2.40567e-06 7.87302e-06 2.65045e-05 
149 1 4.05562 3.93275 4.61879 0 0 0 8.6715e-06 -1.35352e-06 3.38949e-05 -8.4689e-06 2.2344e-06 -2.99336e-05 -2.54231e-06 1.14291e-06 6.37912e-06 0.5 -3.28071e-06 -1.04423e-05 1.33879e-05 3.31082e-05 -1.7571e-05 1.14111e-05 
925 2 0.623237 3.59906 4.52293 1 0 0 1.48685e-05 -1.91864e-05 -9.89869e-07 -1.31296e-05 1.51157e-05 1.65513e-06 -1.12891e-05 3.26333e-06 -3.38023e-06 0.5 1.00324e-07 -1.83211e-05 -6.23213e-06 -2.36891e-06 -4.88138e-06 1.0318e-05 
168 1 3.33522 4.60361 5.33156 0 0 0 7.56082e-06 3.58305e-06 3.52063e-05 -7.26732e-06 -2.27643e-06 -3.11817e-05 -6.45068e-06 -6.14196e-06 6.15579e-06 0.5 -2.69071e-05 -2.26536e-05 -2.51735e-05 1.95909e-06 -9.02067e-06 1.88248e-05 
928 2 1.5747 4.4088 4.97869 1 0 0 6.61738e-06 4.53781e-06 2.68845e-05 -5.79373e-06 -3.52008e-06 -2.25009e-05 -7.45307e-06 -4.80064e-07 -8.70583e-06 0.5 -1.5256e-05 -1.87185e-05 -1.70365e-05 -1.1341e-05 5.04636e-06 1.35078e-05 
148 1 3.93983 3.74232 5.74567 0 0 0 3.60519e-06 2.56768e-05 4.69075e-05 -4.01419e-06 -2.10002e-05 -4.13403e-05 -1.02503e-05 -5.10784e-06 2.06111e-05 0.5 8.97556e-06 2.28421e-05 2.07924e-05 1.32948e-05 1.49193e-05 1.31875e-05 
914 2 4.69244 4.38505 5.24421 0 0 0 -4.71953e-06 7.60924e-06 4.13485e-05 3.18684e-06 -4.60352e-06 -3.71209e-05 -1.49715e-05 -8.66962e-06 -6.78107e-06 0.5 -6.05553e-08 5.38698e-06 1.06438e-05 3.12316e-07 4.29538e-06 6.82019e-06 
23 1 2.87773 1.11848 4.05717 0 0 0 6.61108e-06 -1.08984e-05 -1.69097e-05 -6.82886e-06 9.43366e-06 1.50817e-05 2.42255e-06 -3.45129e-06 2.64882e-06 0.5 -2.42651e-05 -2.40393e-05 -1.76749e-05 -1.16422e-05 1.30247e-05 1.4656e-05 
594 2 2.05585 1.97088 4.8024 0 0 0 1.19699e-05 8.99818e-06 9.34692e-06 -1.07444e-05 -8.38493e-06 -7.1148e-06 4.16831e-06 -5.26437e-06 1.39169e-05 0.5 -5.96865e-07 -2.7184e-05 -4.82606e-06 1.57694e-05 -7.28848e-06 1.48682e-05 
539 2 3.78454 1.04072 5.46911 0 0 0 1.29436e-05 2.4154e-05 1.50512e-05 -1.22025e-05 -2.03476e-05 -1.36379e-05 -5.85141e-06 9.28039e-06 -3.06172e-06 0.5 -9.26352e-06 -8.74118e-05 -3.5927e-05 -3.1852e-05 -2.21118e-05 6.99748e-05 
730 2 0.461761 1.11569 5.16958 0 1 0 6.29594e-06 -8.67378e-06 -4.18467e-06 -6.16853e-06 6.34634e-06 4.21447e-06 -4.77761e-06 -1.67628e-06 1.43857e-05 0.5 2.42483e-05 -5.35274e-06 -1.96277e-05 1.89955e-06 -4.68523e-06 4.03781e-05 
689 2 3.51933 0.103655 5.69619 0 1 0 5.61834e-06 2.27499e-05 8.1484e-07 -5.69534e-06 -1.91649e-05 -1.25783e-06 -3.44944e-06 -6.51769e-06 -2.95439e-06 0.5 -3.75376e-05 -0.000109546 -9.57738e-05 -1.44158e-05 3.3885e-06 8.11308e-05 
450 1 0.619269 4.79872 4.46891 1 0 0 3.11235e-05 -1.68631e-05 1.42529e-05 -2.69031e-05 1.41025e-05 -1.10646e-05 -2.3262e-05 -5.82374e-06 3.16587e-06 0.5 -1.25837e-05 -3.42999e-05 -7.15408e-05 1.70501e-06 -1.18711e-05 4.04793e-05 
549 2 4.49944 0.500885 5.01435 0 0 0 -4.71516e-06 3.61378e-06 5.9804e-06 3.26272e-06 -2.28437e-06 -5.79543e-06 -4.29449e-06 4.57628e-06 -1.11347e-05 0.5 2.51636e-05 3.55729e-05 2.28297e-05 -1.57886e-05 -1.23127e-05 1.43473e-05 
591 2 1.44654 1.12501 4.40336 0 0 0 2.04172e-05 -2.79255e-05 -3.19372e-05 -1.82769e-05 2.28816e-05 2.83711e-05 -7.92334e-06 6.2445e-06 3.64823e-06 0.5 -1.75415e-05 -2.98237e-05 -2.33502e-05 7.73119e-06 3.08936e-06 2.29184e-05 
243 1 1.20287 1.83742 5.34381 0 1 0 1.59345e-07 7.41195e-06 -6.79368e-06 -6.78412e-07 -7.65044e-06 6.6025e-06 -3.79025e-06 -3.86749e-06 8.26242e-06 0.5 -1.16582e-05 -1.3294e-05 -6.74632e-06 1.13064e-05 -1.95405e-06 1.93222e-05 