ITEM: TIMESTEP
106500
ITEM: NUMBER OF ATOMS
1000
ITEM: BOX BOUNDS xy xz yz pp pp pp
0.0000000000000000e+00 1.0000000000000000e+01 0.0000000000000000e+00
0.0000000000000000e+00 1.0000000000000000e+01 0.0000000000000000e+00
0.0000000000000000e+00 1.0000000000000000e+01 0.0000000000000000e+00
ITEM: ATOMS id type x y z ix iy iz vx vy vz fx fy fz omegax omegay omegaz radius c_2[1] c_2[2] c_2[3] c_2[4] c_2[5] c_2[6] 
120 1 3.16617 1.52279 0.06458 0 1 0 -0.0162831 0.0348824 0.0139694 0.0202803 -0.0383569 -0.0153582 0.00976295 -0.00596133 -0.00756053 0.5 -0.011713 -0.0347362 -0.00127876 -0.000573739 -0.000116543 -0.0062492 
525 2 2.12001 1.25265 1.72018 0 0 0 -0.00677049 -0.0252812 -0.0205067 0.0176882 0.000485787 -0.0276924 -0.000353074 0.00195268 0.00819748 0.5 -0.00162446 -0.00728326 -0.0200725 0.00505782 0.00641487 -0.0109945 
371 1 4.95604 3.69542 1.56211 0 0 1 0.00239807 -0.0190066 0.0380461 0.00289725 0.015449 -0.0380057 0.00887326 0.00289833 2.26821e-05 0.5 0.000121047 -0.0246828 0.0295978 -0.0046752 -0.00410582 -0.000890078 
18 1 1.98355 2.68668 0.515672 0 0 0 -0.00443986 0.0111507 0.0276258 0.00618268 -0.0120284 -0.0226878 0.0173673 -0.0109137 0.00806377 0.5 0.00307529 -0.0386443 -0.0176983 0.0281315 0.0327802 -0.0282414 
94 1 2.46581 3.51597 1.98489 0 0 1 -0.00988261 -0.0235601 0.0335478 0.0134307 0.0175552 -0.0275264 0.0150113 -0.00550564 0.00497629 0.5 0.0141157 0.0173913 0.00634574 0.00868624 0.0135553 0.0121672 
25 1 1.41428 0.709714 1.11366 0 0 0 0.00679344 0.00160833 -0.0530981 -0.0105042 -0.00620748 0.0492589 0.0173476 0.00313114 0.00826297 0.5 -0.0374647 -0.118382 -0.0530009 0.0556066 0.0298657 -0.0591578 
378 1 4.62315 2.39704 0.0546023 0 0 1 -0.0120035 0.0199398 0.0311598 0.0181638 -0.0216864 -0.0280308 0.020886 0.0050508 -0.00247434 0.5 -0.00973451 -0.0251607 -0.00907018 -0.0209898 -0.00835483 -0.0329828 
8 1 3.4405 2.07727 1.73232 0 0 0 0.00168954 -0.0119503 0.018608 -0.0016745 0.00320232 -0.0168073 0.0170986 -0.00454015 0.00273156 0.5 -0.0127413 -0.00155053 0.00554464 0.0114713 0.0189546 -0.0094016 
629 2 4.0743 2.61848 1.17934 0 0 1 0.00214013 -0.000523633 0.0302418 0.00368226 -0.00664153 -0.0207457 0.0199897 -0.000515422 -4.43235e-05 0.5 -0.00819029 -0.00920654 -0.0121348 0.00296474 -0.000434595 -0.00816358 
5 1 2.34997 3.90093 1.02626 0 0 0 -0.00811199 0.0162818 0.050447 0.0153879 -0.0235083 -0.0409287 0.0222952 0.000518122 -0.0084276 0.5 0.0049063 0.00203487 -0.0039551 -0.00328761 -0.00220894 0.0013989 
650 2 0.475067 3.45468 1.14373 0 0 0 -0.0279342 -0.0326295 -0.0254971 0.0249941 0.0340857 0.0140133 0.0166871 0.0047831 0.00691489 0.5 -0.0314091 -0.0302173 -0.0119425 0.0220938 0.0239673 -0.0275687 
14 1 3.29723 3.14381 1.52602 0 0 0 -0.00604158 -0.0131391 0.03083 0.00748903 0.00599588 -0.0253049 0.0178902 0.00054203 -0.00141571 0.5 0.00451335 -0.0091571 -0.0102113 0.00411325 0.00532109 -0.0172641 
264 1 3.99326 3.87925 1.35673 0 0 0 0.00279011 -0.0148164 0.0399501 0.000854679 0.00576638 -0.037808 0.0185524 0.00306851 -0.00315054 0.5 0.00040626 0.00051169 -0.0012577 0.0100154 0.00228207 -0.00367278 
223 1 0.759062 2.49425 1.15095 0 0 1 -0.0169125 -0.0286289 -0.0106603 0.0102774 0.0290902 0.00980024 0.0224815 -0.00305068 0.0120827 0.5 -0.0252279 -0.0396205 -0.141806 0.0163248 0.0551029 -0.0437098 
364 1 4.42551 4.22778 0.511588 0 0 1 -0.00212073 0.0159565 0.0487428 -0.00197471 -0.0109029 -0.0422161 0.0137377 0.00086687 0.00253731 0.5 0.00819344 -0.00518787 0.0117507 0.00107077 -0.00185563 -0.00710337 
107 1 1.66801 1.6142 0.770486 0 0 1 -0.0117947 0.00998424 -0.044747 0.00897873 -0.0120752 0.0490278 0.0242188 0.00293782 0.00565969 0.5 0.0310461 0.00267824 0.00428731 -0.0127288 0.00947318 -0.021704 
529 2 2.66845 2.1998 1.05831 0 0 0 0.00754828 0.00483986 0.0073031 -0.00588566 -0.0127248 -0.00901443 0.0225098 -0.00642401 0.00685146 0.5 -0.000937664 -0.00180777 -0.00283082 0.000870723 0.0167997 -0.006024 
515 2 4.3859 0.447659 1.6492 0 0 0 0.000632935 -0.0164195 -0.00933031 -0.000159748 0.00847082 0.0083887 0.0147285 0.0031448 -0.00176777 0.5 -0.029637 -0.0238115 -0.0576294 -0.0490859 0.0133724 0.015364 
244 1 4.11388 0.566285 0.684891 0 1 1 -0.00156858 0.009516 -0.00319505 0.00264668 -0.0125014 0.00179178 0.0181836 0.00520368 -0.00272455 0.5 -0.0307889 -0.0297385 -0.0495779 -0.0177265 0.0174082 0.0169461 
20 1 2.89961 0.578993 1.79249 0 0 0 0.00329921 -0.0115081 -0.0150941 -0.00246963 0.00846573 0.01885 0.0131922 -0.00362954 0.00238218 0.5 -0.0287933 -0.0436455 -0.0732071 0.00755447 0.0386274 -0.039416 
280 1 4.08855 1.58256 1.14014 0 0 0 0.00262795 0.00243839 0.0114283 -0.000752608 -0.00629067 -0.0115604 0.0177245 -0.00038042 -0.00259249 0.5 -0.0420621 -0.0226602 -0.0631156 -0.0050769 0.0404286 0.00148814 
620 2 1.40868 4.3816 0.855991 0 0 1 -0.0217342 -0.0157288 -0.00404658 0.0093017 0.0151537 0.0101995 0.025032 0.0015784 0.00896717 0.5 0.00164425 -0.0372998 -0.0759646 0.00094255 -0.003316 0.0105424 
1000 2 3.60216 2.38742 0.322996 0 1 1 -0.00430337 0.0237361 0.0281845 0.021171 -0.0365051 -0.0222123 0.0131016 -0.00253327 -0.00567169 0.5 -0.0170157 -0.0357945 -0.00973392 -0.00522587 -0.00614828 -0.004117 
103 1 3.2878 3.68167 0.672914 0 0 1 -0.00909659 0.00985439 0.0448614 0.0115154 -0.0206229 -0.040721 0.015263 0.00103434 -0.00199061 0.5 0.0169449 0.00591595 0.0056339 -0.00354165 0.00349755 -0.000711046 
622 2 0.947782 4.79573 0.0710985 0 0 1 -0.0278066 0.0255163 0.0212712 0.00721904 -0.0473401 -0.0199777 0.0326861 -0.00497456 0.00996705 0.5 0.00377925 0.0169492 -0.0456791 0.00752313 -0.0139285 0.00516514 
506 2 0.752901 1.4689 1.21049 0 0 0 -0.0128706 -0.0330121 -0.0499429 0.00260993 0.0326399 0.0424369 0.019172 0.00152402 0.0165862 0.5 -0.0141185 -0.0490941 0.00332564 0.0798089 0.0274476 -0.0350753 
626 2 1.30277 3.42238 0.577741 0 0 1 -0.0265413 -0.00824078 -0.0225929 0.0296986 0.00836893 0.0200639 0.00348813 -0.0134476 0.012125 0.5 -0.0277568 -0.0414441 -0.0100708 0.0209898 0.0240513 -0.019573 
553 2 0.737405 0.0921603 1.60278 0 0 0 0.0178275 -0.0276542 -0.0701106 -0.0227834 0.0273204 0.0675444 0.0103435 -0.00477849 0.0107662 0.5 0.00937333 0.0110413 0.000564647 -0.00169128 -0.000648466 -0.00413491 
135 1 1.54261 3.22528 1.68453 0 0 0 0.00666468 -0.0374331 -0.0147374 -0.00260744 0.0406746 0.0119015 0.00559849 -0.024459 0.00581344 0.5 0.00549289 -0.101304 -0.0137089 0.026379 0.0138795 -0.010855 
624 2 4.32326 4.93041 1.4443 0 0 1 0.00186418 -0.0140531 0.0510081 -0.000284249 0.00702118 -0.0543656 0.0137346 0.00513889 0.00422088 0.5 0.00244337 0.00929246 -0.0212012 0.00308366 -0.00658989 -0.0243671 
256 1 4.58678 1.36175 0.301692 0 0 0 -0.00215604 0.0133089 0.00571129 0.00574964 -0.0161191 -0.00483688 0.0199846 0.00668129 -0.00843339 0.5 -0.0278778 -0.0452416 -0.0907699 -0.0291707 0.0301486 -0.017471 
260 1 3.31902 0.0732789 1.03862 0 0 0 -0.00167068 -0.00435385 -0.0227018 0.00114186 0.00568921 0.0229224 0.00952433 0.00909989 -0.00774335 0.5 -0.0347469 -0.0606699 -0.0549572 -0.0120837 0.0194959 -0.0300299 
616 2 3.1864 4.494 1.48208 0 0 1 0.00613236 -0.0185002 0.0448805 -0.000491257 0.0119733 -0.0445329 0.00768805 -0.00340931 0.00355545 0.5 -0.0164947 -0.00653794 -0.00609088 0.012217 0.00865589 -0.0038916 
106 1 1.74015 2.25672 1.53335 0 0 1 0.0109125 -0.0378125 -0.00688794 -0.015426 0.0390785 0.00569799 0.0192413 -0.00858482 0.00193637 0.5 0.000711198 -0.054394 -0.0011357 0.0193906 0.030115 -0.00682903 
157 1 1.38965 4.20126 1.83961 0 0 0 -0.00421309 -0.0400607 -0.00880352 0.00866258 0.0418689 0.0150493 0.0141467 0.000973379 0.00235058 0.5 -0.0291791 -0.075392 -0.0789272 0.00976347 0.0300116 -0.0209377 
516 2 2.34469 0.878566 0.701618 0 0 0 0.00536293 0.0235847 -0.0271074 -0.00676283 -0.0238747 0.029509 -0.00170301 -0.0173673 -0.00516826 0.5 0.00183793 0.0066452 -0.00310443 -0.00349103 0.0254238 -0.0141688 
183 1 0.432581 4.61077 0.992845 0 0 0 -0.0339367 -0.0638293 0.00301926 0.0446663 0.11219 0.050623 0.0244607 -0.0013921 0.0331863 0.5 0.0102004 -0.0258275 -0.0213648 0.00314211 -0.00214116 -0.0189408 
625 2 0.411646 3.91336 0.217663 0 0 1 -0.0149629 -0.00216249 -0.0181575 0.0156162 -0.0247617 -0.00898646 0.0401565 -0.0051964 0.00787504 0.5 0.0034808 -0.000972466 -0.0183902 0.00478932 -0.00432091 -0.021407 
91 1 2.21936 4.7383 1.6854 0 0 1 -0.00165971 -0.0378535 0.015028 0.00765885 0.0344959 -0.016689 0.00864822 -0.0178146 0.0032141 0.5 -0.0241893 -0.0199228 -0.00441956 -0.00869021 0.0136865 0.000358643 
257 1 4.9368 2.7039 1.69058 0 0 0 0.00377442 -0.0201145 0.0297768 0.00210377 0.0171492 -0.0253602 0.0147167 0.00291994 -0.00109986 0.5 0.00192526 -0.0334423 -0.0885477 -0.00692452 -0.00771467 -0.0274828 
4 1 3.72009 1.13946 1.95739 0 0 0 0.00192617 -0.0165836 0.000789929 -0.000624793 0.00185172 -0.00700089 0.0170185 0.000340371 -0.000898649 0.5 -0.000413628 0.00251915 -0.0294498 -0.0225536 0.0178609 0.0198715 
522 2 2.58642 2.52333 2.00097 0 0 0 -0.00475552 -0.0233346 0.0159027 0.00371203 0.0166941 -0.0189228 0.0146687 -0.00843557 0.00958371 0.5 -0.0202963 0.00356271 0.0097455 0.0224706 0.0401843 -0.00389743 
117 1 3.12503 1.31534 1.15454 0 1 0 0.00270223 0.00150683 -0.000293109 0.000146174 -0.00859955 0.00019197 0.0190444 -0.00659292 -0.00142927 0.5 0.00023486 -0.00394472 0.0144491 -0.00311983 0.0202556 0.00451042 
511 2 1.08525 2.23381 0.242254 0 0 0 -0.00814331 0.0316129 -0.0248289 0.00848693 -0.0314939 0.0288534 0.035034 0.000291801 -0.00360975 0.5 -0.00543936 -0.045775 -0.117629 0.0237853 0.0689044 -0.0470667 
911 2 0.490434 0.568023 0.731558 1 0 0 0.00681896 -0.00364394 -0.0552575 -0.0101054 0.00142168 0.0503812 0.00539809 0.00616969 -0.010405 0.5 0.00823391 0.00262391 -3.32396e-05 0.00284934 0.00485759 -0.00331055 
668 2 0.0016132 3.85608 1.92898 0 0 0 -0.00371843 -0.0649767 0.00483742 0.0125086 0.0624993 -0.00860952 0.00157626 0.0121522 0.00270739 0.5 -0.0349138 -0.101964 -0.0315857 0.0333577 -0.00350555 -0.00544335 
90 1 2.9475 4.57895 0.390583 0 0 1 -0.0121605 0.0096995 0.0478367 0.0100511 -0.0212194 -0.0399228 0.0129135 -0.0120374 0.00129956 0.5 0.0131395 0.0409286 0.0154587 0.0305632 0.0280263 0.024285 
734 2 4.13592 3.23516 0.347099 0 1 1 -0.00203874 0.0213298 0.0450997 0.00739609 -0.0271225 -0.0352638 0.0168184 0.00105581 -0.00464744 0.5 0.00211388 -0.0099862 -0.000138001 -0.0121246 0.00172532 -0.00377077 
672 2 0.0792882 2.01563 1.70822 0 0 0 -0.0154901 -0.0546278 -0.0320977 0.00715514 0.0537455 0.0269061 0.019715 0.000506957 0.00832021 0.5 -0.0888424 -0.104834 -0.0515654 0.0432699 0.0520873 0.00462924 
759 2 4.95356 2.04286 0.940424 0 0 0 0.00799693 -0.00531577 0.0167976 -0.00610664 0.00320477 -0.0130174 0.0196385 0.00501742 -0.00207286 0.5 -0.0101422 -0.0626166 -0.0128627 -0.023765 0.00289508 -0.0350752 
609 2 2.00127 4.75972 0.115614 0 0 1 -0.00632961 0.0127286 0.0308887 0.00293219 -0.0317654 -0.0241958 0.0149288 -0.0178097 0.00376824 0.5 -0.068571 -0.326659 -0.0303156 0.0948672 0.0252896 -0.0622094 
868 2 2.87089 2.99905 0.0132617 0 0 1 -0.00349906 0.0209855 0.0233175 0.00913798 -0.043451 -0.0170975 0.0172922 -0.00524976 0.00330266 0.5 -0.0193165 -0.0535205 0.00666922 0.0403682 0.00645375 0.00116601 
21 1 1.84781 0.37974 2.45624 0 0 0 0.000905418 -0.0405922 -0.0464691 -0.0116295 0.0382075 0.0474653 0.00823385 -0.0130867 0.0106964 0.5 -0.0122142 -0.00161642 -0.00128434 0.00952605 0.0017988 -0.00688578 
682 2 2.7279 4.09852 2.75487 0 0 0 0.00240705 -0.0249016 0.0307423 0.00186897 0.0222363 -0.0275989 0.00425933 -0.00384741 -0.00326814 0.5 -0.0306503 -0.0364321 -0.0257736 -0.0013145 0.0459916 0.025318 
907 2 0.977407 4.65123 2.63179 1 0 0 0.00666169 -0.044522 -0.000582328 -0.0054028 0.038432 0.00955056 -0.000916217 -0.0039462 0.00413655 0.5 -0.054224 -0.0840565 -0.0643096 0.0147633 0.0437204 -0.0265992 
144 1 1.67823 3.62379 2.80967 0 0 0 0.00697333 -0.0397924 0.00917938 -0.00636359 0.0378698 -0.00336286 0.00761096 -0.00792789 0.000661255 0.5 0.000508997 -0.00994021 0.00545951 0.00434505 0.00917723 0.000735501 
675 2 2.81835 4.75445 3.52702 0 0 0 0.0233112 -0.0272586 0.0311285 -0.0195564 0.0226893 -0.0257404 -0.00213011 -0.00247909 -0.00737751 0.5 -0.000785053 -0.00200107 -0.00406607 6.9806e-05 0.00593991 0.00622594 
502 2 4.38402 1.33182 3.26907 0 0 0 0.0109125 -0.0390269 0.000893805 -0.0121375 0.0415953 -0.000886516 0.00842651 0.00251798 -0.0036004 0.5 -0.0422339 -0.0397844 -0.0306413 -0.0257692 0.016226 0.030585 
27 1 2.60187 0.318771 3.222 0 0 0 0.0126138 -0.0324137 -0.0195758 -0.0103862 0.0312446 0.0161375 0.00106952 -0.00318361 -9.94599e-05 0.5 -0.046612 -0.0354145 -0.0522553 0.0152746 0.0277936 0.0124737 
965 2 1.34317 3.68088 3.80482 1 0 0 0.025652 -0.0358348 -0.0140194 -0.0248221 0.0279913 0.0120252 -0.0099274 0.00315901 -0.0129838 0.5 -0.00922599 -0.0387757 -0.0235214 0.0186971 -0.0166404 0.0157615 
61 1 1.65819 0.469214 3.53948 0 0 0 0.00846905 -0.0344375 -0.0399451 -0.0105574 0.0305017 0.0276537 -0.00942747 -0.00621333 0.00301806 0.5 -0.0401473 -0.00133273 -0.00527192 0.00325394 0.022049 -0.00280861 
680 2 1.1936 2.8017 3.35206 0 0 0 -0.00452173 -0.0332142 -0.00870567 -0.00310506 0.0282085 0.00567039 -0.00105733 0.00551127 -0.00263521 0.5 -0.00513258 -0.020651 -0.0337091 0.00140457 0.0135529 0.00203214 
251 1 4.69986 3.05828 3.87507 0 0 0 0.0245725 -0.0479563 0.0393395 -0.0190926 0.056654 -0.0466854 0.0106441 0.00550933 -0.0129308 0.5 -0.0426971 -0.0253122 -0.00019247 -0.0411525 0.0176767 0.0276762 
517 2 4.00981 2.91344 2.20342 0 0 0 -0.00553403 -0.0343983 0.0246868 0.00906459 0.0312108 -0.0210292 0.00572319 0.0115891 -0.0123643 0.5 0.000776824 -0.0021197 0.00209069 -0.00274906 0.00245402 0.00175149 
6 1 3.41748 1.79266 2.72184 0 0 0 0.0100951 -0.0215937 0.0185314 -0.0146863 0.0196292 -0.0101106 0.0138286 -0.00345195 0.00198123 0.5 -0.050799 -0.00305438 0.00172065 -0.00222492 0.0228778 0.00252373 
519 2 4.42939 3.63389 3.00634 0 0 0 0.00619964 -0.0376874 0.0431076 -0.00302654 0.0398469 -0.0401456 0.0077512 0.00506527 -0.00464916 0.5 -0.0256281 0.00463028 -0.00197189 -0.00737439 0.0160089 -0.00349386 
509 2 1.92262 1.52688 3.64734 0 0 0 0.0288554 -0.0163898 -0.0413387 -0.0353115 0.0197005 0.0383757 -0.00907088 0.0131378 0.0041069 0.5 0.00961997 -0.00736802 -0.0546464 -0.00561929 0.0131118 0.0150884 
142 1 1.03905 1.96473 2.18405 0 0 0 -0.00318681 -0.0396879 -0.0230345 0.00180735 0.0377296 0.0238664 0.0129552 -0.00133414 0.0082879 0.5 0.00358931 -0.010613 -0.00530937 0.00830584 0.000948438 0.0112963 
941 2 0.201222 2.29333 2.78792 1 0 0 -0.0104045 -0.0622383 -0.0259625 0.000307661 0.0607956 0.0245911 0.00323955 -0.00205823 0.00344689 0.5 -0.00942673 -0.0184371 -0.0392253 -0.00271779 0.00552737 0.00946459 
919 2 0.6444 4.3421 3.53188 1 0 0 0.014161 -0.0429045 -0.00176923 -0.0150869 0.0373297 0.0105 -0.00606896 0.0102612 -0.0063069 0.5 -0.0285103 -0.0557629 -0.0250234 0.0316752 0.0032833 0.0179822 
95 1 3.53404 3.7953 2.24676 0 0 1 0.00714943 -0.0284836 0.0403755 -0.00427259 0.0247572 -0.0386666 0.00975703 -0.000139131 -0.00569196 0.5 -0.0408695 -0.0198623 -0.028965 -0.00108778 0.016315 -0.0137842 
458 1 1.55364 4.77871 3.84686 1 0 0 0.0021403 -0.0511671 0.0273555 -0.000732695 0.0447066 -0.0226715 -0.00447344 -0.00193099 0.0119919 0.5 -9.70109e-05 -0.00558556 -0.00344237 0.00722344 0.00250666 -0.00314035 
41 1 1.14046 0.980789 2.03644 0 0 0 0.00435618 -0.0357717 -0.0428253 -0.0123768 0.0343936 0.0359263 0.0157808 0.000753842 0.0093926 0.5 -0.0157569 -0.0125026 -0.00771803 0.0108097 0.0203231 -0.0228614 
814 2 0.266344 1.24878 3.42502 1 0 0 0.00979072 -0.0335037 -0.0364064 -0.0118267 0.0232193 0.03095 -0.000380315 -0.00521253 0.0129412 0.5 -0.0381484 -0.0457029 -0.0345191 0.0197171 0.00786109 0.0427379 
130 1 1.7118 2.66807 2.50731 0 0 0 -0.0100655 -0.0332524 -0.0121163 0.00414013 0.0342294 0.00918391 0.00878702 -0.00464639 0.000562751 0.5 -0.0308393 -0.0497672 -0.0447573 0.0190586 0.0275207 0.0216469 
12 1 2.69582 1.10858 2.61589 0 0 0 0.0138959 -0.0219014 -0.00573181 -0.0192935 0.0232885 0.00488419 0.0107082 -0.00955761 0.00232234 0.5 -0.0474791 -0.0617087 -0.0485369 0.0137711 0.0244575 -0.00749054 
512 2 3.17476 2.03563 3.78243 0 0 0 0.0220083 -0.0060252 0.0118721 -0.0263275 0.00165641 -0.0173013 0.00888594 -0.00461805 0.00387706 0.5 -0.00856676 -0.0166687 -0.00792403 -0.00200839 0.00463099 0.0159209 
151 1 2.47734 3.31999 3.33027 0 0 0 0.00265321 -0.0329029 0.0200562 0.000140491 0.0298332 -0.0184272 0.000896664 -0.00224375 0.00479507 0.5 -0.0042521 -0.0701662 -0.0549001 -0.0100724 0.0271183 0.0306336 
667 2 0.284837 1.35046 2.4293 0 0 0 0.00303683 -0.0537662 -0.0382242 -0.00891362 0.0543061 0.033902 0.00671337 0.000336447 0.0119681 0.5 -0.0141634 -0.0509137 -0.0385273 0.00929071 0.00557588 0.0140851 
38 1 3.7806 0.746707 3.87673 0 0 0 0.0191846 -0.015206 -0.00625682 -0.0223188 0.0135906 0.00577761 -0.00790281 -0.000551013 -0.00584322 0.5 -0.0258762 -0.0115495 -0.0626814 -0.0436024 0.0250616 0.0584069 
936 2 0.326429 3.39131 3.511 1 0 0 -0.0088744 -0.0346599 -0.00770404 0.00296507 0.0313274 0.0090732 0.000566803 -0.00701669 -0.0051468 0.5 -0.00298386 -0.0551965 -0.0244151 -0.000773176 0.0209716 0.0386504 
531 2 4.80014 0.832836 2.48124 0 0 0 0.00215862 -0.0418496 -0.00244373 -0.00545431 0.0365742 0.00415468 0.00898396 0.00280453 -0.00484739 0.5 -0.0161471 -0.0117254 -0.0405614 -0.0166209 -0.025565 -0.0229481 
527 2 4.01602 4.33244 3.59041 0 0 0 0.0271693 -0.0310323 0.0500008 -0.0261901 0.0297611 -0.0449492 -0.000949429 -4.65532e-05 -0.002455 0.5 -0.0926609 -0.0411504 -0.0186674 -0.0420786 0.0377675 0.0245912 
383 1 4.36081 4.35757 2.26408 0 0 1 0.00351422 -0.023264 0.0448473 -0.00329456 0.0234554 -0.0434792 0.00817928 0.00250525 -0.00103758 0.5 -0.0350906 -0.00178587 0.0176196 -0.00149714 -0.00178284 -0.0164745 
992 2 0.686608 0.459008 3.87788 1 1 0 0.0183272 -0.0291056 -0.0420303 -0.0189408 0.0200074 0.0354124 -0.00878236 0.0052151 0.0046017 0.5 -0.0313899 -0.0776543 -0.00962201 0.0222271 -0.00901863 0.0363 
521 2 4.92397 4.54176 3.22393 0 0 0 0.0243258 -0.0256199 0.0481458 -0.0273138 0.0284057 -0.051497 -0.000857203 0.00814677 0.00367818 0.5 -0.0307953 -0.0106651 -0.0284787 -0.0164171 0.00168812 0.0417112 
136 1 1.88454 1.69257 2.64348 0 0 0 0.0044309 -0.0336597 -0.0334143 -0.00803817 0.0358118 0.0383851 -0.00245945 0.0069216 0.00798797 0.5 -0.0538861 -0.0602873 -0.0684772 0.0348209 0.0197952 0.00048988 
540 2 4.50583 0.199541 3.41732 0 0 0 0.0113467 -0.0367628 -0.00373476 -0.013024 0.0340986 0.00359527 -0.00248525 0.00307328 -0.0085508 0.5 0.0125722 0.00889191 0.00567063 -0.0104644 -0.00530746 0.00752593 
510 2 3.8488 2.58512 3.15452 0 0 0 0.0132144 -0.0288033 0.0290299 -0.0145915 0.0281464 -0.0265121 0.00381869 0.00415925 -0.00125695 0.5 0.0212681 0.019309 -0.00376407 -0.0107098 0.00292758 0.0100973 
19 1 4.36132 1.85333 2.3971 0 0 0 0.0104742 -0.0126772 0.0211754 -0.0178687 0.0170891 -0.0186985 0.0161517 0.00165272 -0.00641239 0.5 -0.0687207 -0.00210563 -0.0321832 0.00273106 0.0329184 0.00473168 
543 2 1.06774 1.80668 3.20899 0 0 0 0.01294 -0.0327284 -0.0213345 -0.0213206 0.0336101 0.0222654 0.00553447 0.00830751 0.00683695 0.5 -0.0152523 -0.0128555 -0.00733898 -0.0106391 0.0222903 0.00608857 
773 2 4.78235 2.24874 3.29343 0 0 0 0.0106331 -0.0395293 0.025019 -0.0113001 0.0414461 -0.0233308 0.00639692 0.00582366 -0.00486231 0.5 -0.0329885 -0.0696443 -0.108096 -0.0373263 0.0489415 0.0896488 
555 2 2.22968 2.52572 3.88506 0 0 0 0.0200614 -0.0344358 0.0256601 -0.0244299 0.0315021 -0.0272277 -0.00192224 8.61614e-05 0.00326977 0.5 -0.00455056 -0.000549821 0.00805427 -0.00853476 0.00933547 0.0263684 
429 1 0.314954 2.42554 3.77259 1 0 0 -0.0128166 -0.0394686 -0.0287328 0.00270272 0.0356582 0.0273777 5.65781e-05 -0.000871274 0.0085141 0.5 3.39465e-05 -0.0870963 -0.054015 0.0162362 -0.0104907 0.0538402 
316 1 0.886092 0.538804 2.89709 1 0 0 0.0115073 -0.045479 -0.0455615 -0.0175082 0.042438 0.038263 -0.0024061 -0.00284517 0.00828593 0.5 0.00517582 -0.000501709 0.0180968 0.00499181 0.00154748 -0.00241647 
503 2 3.61247 0.786388 2.88886 0 0 0 0.0096941 -0.0308108 -0.00432323 -0.0145946 0.0299059 0.00343637 0.00478318 0.00346435 -0.00066914 0.5 -0.00777748 0.00906632 -0.0355323 -0.00448715 -0.00336232 0.00591357 
896 2 0.695529 3.69179 2.63004 1 0 0 0.00886948 -0.0451842 -0.0029651 -0.00807833 0.0393496 0.00592056 -0.00308151 -0.000865794 -0.000954494 0.5 -0.0128637 -0.0414652 -0.0474747 -0.000253945 0.00387405 0.00232401 
690 2 1.93617 4.68841 2.91356 0 0 0 -0.00136077 -0.0282899 0.0245936 0.00318274 0.0216611 -0.0194741 0.00712889 -0.0106885 0.00821661 0.5 -0.0277401 -0.00844267 -0.0015348 0.0172763 0.0104624 -0.00273166 
641 2 3.45627 3.51664 3.20452 0 0 0 0.00451786 -0.0290872 0.0399585 -0.00104082 0.0268579 -0.0378795 -0.001022 0.00155161 0.00050338 0.5 0.00813445 0.019671 0.00417193 -0.0162252 0.00849437 0.0125975 
528 2 3.33437 4.81864 2.41745 0 0 0 0.0129651 -0.0267153 0.0465926 -0.0078425 0.0213642 -0.0465411 0.0113499 0.00371614 -0.00551118 0.5 -0.00346118 -0.0131815 -0.0111522 -0.0107254 0.00377533 0.0055769 
225 1 2.66778 2.39842 2.9903 0 0 1 0.00170505 -0.0307355 0.0147795 -0.0111318 0.0269933 -0.0170075 0.000201471 0.00735398 0.00907034 0.5 -0.00594444 -0.0298281 0.0268491 0.0166078 -0.00183922 -0.00818304 
119 1 0.623816 2.86719 2.06888 0 0 0 -0.0134398 -0.0421367 -0.0046312 0.00918669 0.0387004 0.00555357 0.0116944 0.00307963 0.00425071 0.5 0.00370451 -0.0343135 -0.0685171 0.00492058 0.0222804 -0.014677 
200 1 2.44817 0.218348 4.205 0 1 0 0.0298275 -0.0154797 -0.0151347 -0.0288038 0.00886477 0.0106523 -0.014778 -0.00680984 0.00503094 0.5 -0.0270391 -0.021524 -0.0421798 -0.00527409 0.0193254 0.0121741 
114 1 4.69743 1.01739 4.17025 0 0 0 0.0197226 -0.0259829 0.00201622 -0.0239033 0.0264699 -0.00105885 -0.000950822 7.2364e-05 -0.00541704 0.5 -0.0169536 0.00610804 -0.00840215 0.000948485 -0.0144639 -0.000735335 
820 2 1.30719 2.30673 4.21351 1 0 0 0.00709534 -0.0212213 -0.0033357 -0.011001 0.0172967 0.000263251 -0.00910886 -0.00883563 0.00498603 0.5 -0.0125811 -0.00750881 -0.0241058 0.00423078 0.0162023 0.0232376 
47 1 4.63565 1.5946 5.42959 0 0 0 0.0375343 -0.0237128 0.00969691 -0.0397792 0.0235677 -0.00919537 0.00688115 0.00584016 0.00230232 0.5 -0.0277948 -0.0277142 -0.0144213 -0.0144126 -0.016868 0.0188259 
824 2 1.64136 3.82463 5.77448 1 0 0 0.0174731 0.0174473 0.030634 -0.0235007 -0.0266445 -0.0300795 -0.0238284 -0.00220524 -0.0110201 0.5 -0.0157868 -0.009535 -0.0390038 -0.0130696 0.0136264 0.0116906 
172 1 3.43011 0.334598 4.71847 0 1 0 0.0225206 0.00658809 0.00435173 -0.0196442 -0.00824144 -0.00279755 -0.0119605 -0.00377643 -0.00159924 0.5 -0.0322034 -0.0323052 -0.0953234 -0.02855 0.0253153 0.0424173 
718 2 0.199379 2.03053 5.51553 0 1 0 0.00568614 0.0152535 -0.00679779 -0.00380767 -0.0159822 0.00821303 -0.0108809 0.00058555 0.00280379 0.5 -0.0411555 0.00832212 -0.0177253 0.0249232 -0.0309148 0.0704701 
505 2 0.484433 3.47277 5.82192 0 0 -1 0.00588541 0.0573841 0.0157422 -0.013507 -0.052514 -0.00815093 -0.00285842 -0.00847104 0.0118611 0.5 -0.0131899 -0.0843112 -0.0454366 0.00351272 -0.00695308 0.0651268 
524 2 3.96608 2.72874 5.67414 0 0 0 0.0433579 0.00586397 0.0528096 -0.0288254 0.00172473 -0.0435376 -0.004518 0.0191984 0.0090007 0.5 0.00110408 0.0123128 0.00663484 -0.00534926 -0.00806295 0.00696979 
839 2 0.572181 1.63572 4.32936 1 0 0 0.0134833 -0.0331641 -0.0318853 -0.0179052 0.0299762 0.0280546 -0.00704998 -0.00281187 0.0157245 0.5 -0.00966156 -0.0759691 -0.0465439 0.0261355 -1.46205e-05 0.0677165 
937 2 2.43469 3.40423 4.32627 1 0 0 0.0157363 -0.0283593 0.0197562 -0.0145514 0.0231065 -0.0184054 -0.00613923 -0.00806282 0.000592151 0.5 -0.0636567 0.00198112 -0.0566953 -0.0210115 0.0392318 0.0423872 
811 2 2.59739 3.95027 5.50779 1 0 0 0.0205891 -0.00731394 0.030843 -0.0259538 0.00086123 -0.025614 -0.00712957 -0.00977811 -0.00695999 0.5 -0.0219576 -0.0301516 -0.0109588 -0.0225163 0.00569506 0.0227702 
827 2 1.51668 3.1951 4.66317 1 0 0 0.00589408 -0.0203823 -0.00203937 -0.00514712 0.0154814 0.00138336 -0.015451 -0.0147766 -0.0111905 0.5 -0.0630745 -0.0217884 -0.0615679 -0.0108229 0.0251402 0.036281 
149 1 4.0446 3.93985 4.59566 0 0 0 0.0212024 -0.0133598 0.0394137 -0.0199403 0.00974356 -0.0347953 0.00256316 0.00415002 0.003881 0.5 -0.00909091 -0.00915273 0.0157583 0.0214218 0.00151322 0.0200456 
925 2 0.612485 3.60078 4.52955 1 0 0 0.0174253 0.000889452 -0.015592 -0.0148668 -0.00357446 0.012481 -0.0143702 -0.000506152 -0.00742218 0.5 -0.0366785 -0.0166945 -0.00637104 0.0106334 -0.017146 0.0121199 
168 1 3.32396 4.60807 5.30559 0 0 0 0.0246679 -0.00819459 0.0456372 -0.0333776 0.00498725 -0.0418771 -0.00402051 -0.00259001 0.0069795 0.5 -0.0457763 -0.0308898 -0.0426559 -0.0099792 -0.0105888 0.0224113 
928 2 1.56972 4.40872 4.96539 1 0 0 0.00762516 0.00166243 0.0205924 -0.0056434 -0.00550809 -0.0166168 -0.0146046 -0.00312367 -0.0155337 0.5 -0.0537284 -0.0376545 -0.0356281 -0.0296824 0.0328219 0.0211741 
148 1 3.93021 3.73598 5.71269 0 0 0 0.0188341 0.00628507 0.0567167 -0.0175106 0.000276079 -0.0508521 -0.0120856 -0.00926855 0.0131851 0.5 0.00470716 0.0301594 0.0128441 0.0138994 0.0104054 0.0131112 
914 2 4.68751 4.39296 5.21397 0 0 0 0.0137323 -0.0196742 0.0523166 -0.0186808 0.0248664 -0.0481696 -0.00870821 -0.00712969 -0.00902532 0.5 0.0115101 0.0107415 0.0255694 -0.00377164 0.00574288 0.0184633 
23 1 2.86888 1.12618 4.06817 0 0 0 0.0182831 -0.01283 -0.0149568 -0.024054 0.00874472 0.00761477 0.00223134 -0.00655396 -0.0012151 0.5 -0.0277944 -0.0280242 -0.0147014 -0.0217136 0.00525023 0.0134658 
594 2 2.04578 1.96215 4.80229 0 0 0 0.0200583 0.0148874 -0.0010228 -0.0222304 -0.00843124 0.00175359 0.00293149 -0.00937893 0.00879972 0.5 -0.00597995 -0.0371036 -0.0101743 0.0124659 -0.00534093 0.0175248 
539 2 3.77051 1.0315 5.45763 0 0 0 0.0290882 0.0118044 0.0199755 -0.0364197 -0.00628095 -0.0151105 -0.0043289 0.00715403 -0.00586177 0.5 -0.0023503 -0.0985044 -0.055999 -0.0453086 -0.0350791 0.0951613 
730 2 0.455029 1.11251 5.17346 0 1 0 0.0104509 0.00872808 -0.00630947 -0.00436679 -0.0100884 0.00357045 -0.00603428 0.00474983 0.0100019 0.5 0.0333262 -0.00163305 -0.0271828 -0.0150298 -0.00856892 0.0506168 
689 2 3.51341 0.0945656 5.69546 0 1 0 0.0101314 0.0135317 -4.90219e-05 -0.00656247 -0.0108113 0.0038433 -0.00614833 -0.0113667 -0.0115775 0.5 -0.0372154 -0.132334 -0.0986082 -0.0188418 0.00640466 0.0901358 
450 1 0.59813 4.80679 4.4715 1 0 0 0.0498878 -0.00189011 -0.0146469 -0.0414367 0.000814358 0.0227506 -0.0405106 0.00689955 -0.0194534 0.5 -0.00918842 -0.0176529 -0.0492019 0.0123235 -0.0208545 0.0282087 
549 2 4.49795 0.505907 5.00956 0 0 0 0.00700839 -0.0130707 0.00759292 -0.0149464 0.0189885 -0.00424161 -0.0031063 0.00690244 -0.0134438 0.5 0.0399087 0.0447883 0.0237014 -0.0210823 -0.0199152 0.0204317 
591 2 1.43152 1.13272 4.42523 0 0 0 0.0287148 -0.00765629 -0.0376748 -0.033555 0.00456362 0.0320796 -0.00924999 0.00180704 0.00644095 0.5 -0.015531 -0.037258 -0.0406301 0.00835189 0.00766507 0.028988 
243 1 1.20107 1.82488 5.35532 0 1 0 0.00227548 0.0235231 -0.0267436 0.00138876 -0.0198994 0.0347001 -0.00206748 -0.00334459 0.00694261 0.5 -0.0175569 -0.0249737 -0.015377 -0.000678189 -0.000481053 0.0244404 
646 2 3.72554 3.13242 4.08766 0 0 0 0.0267834 -0.0163547 0.0384949 -0.0198304 0.0131951 -0.0383109 -0.00141628 0.0044535 -0.00441841 0.5 -0.0189805 -0.0531783 -0.0291241 0.00963731 0.00978128 0.0349069 
374 1 0.575807 2.63563 4.81349 1 0 0 0.00848722 0.00301735 -0.0152586 -0.00652155 -0.00389443 0.0168752 -0.0129904 -0.00957854 -0.00364553 0.5 -0.0111413 -0.0205556 -0.0122472 -0.00990696 0.0142721 0.0167109 
418 1 0.653878 4.34554 5.36288 1 0 0 0.00212245 0.0568076 0.015181 0.00269778 -0.0542526 -0.00753287 -0.0217635 -0.00954655 -0.0159578 0.5 -0.0323102 -0.054545 -0.05365 -0.0218037 0.0181094 0.0347238 
190 1 2.16942 2.42743 6.00736 0 1 0 -0.0125474 0.0281607 0.0340288 0.0099283 -0.0308506 -0.0311374 -0.00478108 -0.0158346 -0.00639491 0.5 -0.00415406 -0.0218359 -0.0427131 -0.000831931 0.00965238 0.0416523 
507 2 3.66677 1.48406 4.57065 0 0 0 0.00224689 -0.0199391 0.00856083 -0.0139273 0.017909 -0.00718837 0.004739 -0.00284878 -0.00213336 0.5 -0.0361145 -0.032029 -0.0697497 -0.0437892 0.0110253 0.100284 
155 1 4.85899 3.42168 4.86097 0 0 0 0.0235276 -0.0150541 0.0271795 -0.0228968 0.013092 -0.0175064 -0.00339143 0.00444929 -0.0018327 0.5 -0.0196609 -0.0688325 -0.0907486 0.00673116 -0.0194649 0.0780139 
573 2 2.48631 2.83127 5.1455 0 0 0 0.0235916 -0.00581995 0.0342701 -0.0246276 0.00798758 -0.0279941 -0.0111444 -0.0143873 -0.00773206 0.5 -0.00924343 -0.0434996 -0.0468062 -0.0212204 0.022236 0.0408573 
678 2 3.20256 3.9856 4.05727 0 0 0 0.0187134 -0.021889 0.0421452 -0.0166059 0.0158653 -0.0388482 -0.00157652 -0.00541483 0.000306751 0.5 -0.0939942 -0.0500152 -0.0122931 -0.0143283 0.0617968 0.0312845 
513 2 3.45322 2.44337 4.75925 0 0 0 0.0190804 -0.0201181 0.0315406 -0.0245754 0.019664 -0.0338522 0.00599261 0.00245602 -0.0115155 0.5 -0.00823669 0.00989674 -0.0545476 -0.0229223 0.0186574 0.0718612 
180 1 2.37748 4.45115 4.37742 0 0 0 0.0143081 -0.0200625 0.0281778 -0.0130588 0.012274 -0.0249642 -0.0124166 -0.00607817 0.000506386 0.5 -0.04017 0.0035645 -0.0256762 0.00964691 0.0317745 0.0022433 
154 1 3.29831 3.41529 5.00539 0 0 0 0.0329849 -0.0182326 0.0546544 -0.0310343 0.0174815 -0.0456063 -0.00720423 -0.00640734 0.00279294 0.5 -0.00752892 0.0186927 0.01091 -0.0137617 0.00948956 0.0204481 
740 2 1.2826 2.80215 5.55242 0 1 0 -0.0174721 0.0177671 0.00869721 0.0204264 -0.0138095 -0.00613495 -0.0146629 -0.0139281 0.00553612 0.5 -0.0029996 -0.0296283 -0.0480831 -0.0058785 0.0127864 0.0339862 
657 2 4.08632 4.71932 5.94535 0 0 0 0.0214642 0.0140688 0.0441539 -0.0287596 -0.00618317 -0.0438273 -0.0215054 -0.0045958 -0.00417105 0.5 -0.0324204 -0.028957 -0.0265077 -0.00518779 -0.0345346 0.0349411 
187 1 2.44226 1.05945 4.97638 0 1 0 0.0303577 0.0186002 -0.00816344 -0.0260281 -0.00989988 0.00609845 -0.00696134 -0.00151434 0.00238498 0.5 -0.00557012 -0.0394175 -0.0171054 -0.00528187 0.000883398 0.0323401 