ITEM: TIMESTEP
32500
ITEM: NUMBER OF ATOMS
1000
ITEM: BOX BOUNDS xy xz yz pp pp pp
0.0000000000000000e+00 1.0000000000000000e+01 0.0000000000000000e+00
0.0000000000000000e+00 1.0000000000000000e+01 0.0000000000000000e+00
-0.0000000000000000e+00 1.0000000000000000e+01 0.0000000000000000e+00
ITEM: ATOMS id type x y z ix iy iz vx vy vz fx fy fz omegax omegay omegaz radius c_2[1] c_2[2] c_2[3] c_2[4] c_2[5] c_2[6] 
49 1 3.6673 1.77359 0.543561 112 1 0 -345.523 -2.73469 -14.0467 1840.35 -1601.81 803.549 0 0 0 0.5 -63144.5 -1828.55 -1213.96 65.69 -2124.34 197.189 
939 2 1.24143 2.7844 0.36682 -12 0 1 -206.679 12.094 19.3923 -1851.55 2421.19 -646.711 0 0 0 0.5 -22911.6 -559.893 -611.343 1840.74 1778.42 21.7611 
322 1 2.37215 2.26482 0.0674078 -12 0 1 -273.07 12.1633 6.40479 -1208.94 1241.31 -29.3061 0 0 0 0.5 -39876.6 -1947.67 -386.044 2429.03 1179.34 -83.6259 
146 1 0.796054 1.95287 0.779288 -15 0 0 -272 -5.19681 4.82271 -997.704 4.89257 275.072 0 0 0 0.5 -40149.5 -1172.14 -1118.06 513.817 106.706 614.688 
390 1 2.51222 0.138399 1.08957 77 1 0 -468.309 -13.9743 10.1153 543.136 -1364.12 -182.328 0 0 0 0.5 -115073 -1392.78 -1189.2 -2910.67 2676.58 41.1418 
527 2 2.32095 0.812183 0.733086 -47 0 0 -396.609 -13.1998 -15.4192 -1769.45 557.4 -1742.75 0 0 0 0.5 -83248.2 -1501.94 -865.604 -2228.86 -2849.69 -72.7849 
269 1 1.27749 0.52168 1.8555 -66 0 1 -413.125 0.0321678 3.4298 -1075.01 -1514.08 -710.059 0 0 0 0.5 -90626.7 314.6 -126.286 279.903 1147.2 23.0798 
573 2 2.19871 0.559912 1.72927 -86 0 0 -435.81 6.98147 17.0793 626.385 274.598 278.954 0 0 0 0.5 -100913 -2461.53 -1164.42 2630.59 3746.44 429.487 
503 2 1.95754 1.2797 1.49567 -70 0 0 -343.721 -14.2532 -18.6971 -609.656 2178.08 -279.644 0 0 0 0.5 -63313.9 -1997.86 -1545.51 -1694.42 -3284.16 -70.0028 
643 2 1.84571 2.39421 0.823832 -67 0 1 -246.978 4.26783 21.8994 301.995 1400.14 1294.59 0 0 0 0.5 -33386.2 -732.366 -1279.9 1544.87 2863.83 -74.622 
759 2 3.91057 1.03711 0.00558235 -131 0 1 -406.839 -2.45779 3.28892 2858.96 -2282.65 -610.14 0 0 0 0.5 -88801.3 -891.627 -595.919 134.751 492.321 -89.5557 
684 2 0.0306532 0.835159 1.55004 142 1 1 -403.954 -5.72026 -2.09662 -337.61 -267.091 -822.441 0 0 0 0.5 -85482 36.4011 123.428 -1184.13 -463.047 102.679 
743 2 1.92547 4.24144 0.508593 -210 -1 1 -71.1696 -9.60241 -5.707 1972.97 -798.079 -137.643 0 0 0 0.5 -3220.95 -1067.8 -101.989 94.4129 -277.978 203.024 
79 1 0.653381 0.789002 0.446134 100 1 1 -436.145 10.3799 12.3392 1255.2 -2603.29 2562.07 0 0 0 0.5 -99871.4 546.035 -941.096 2837.42 2096 402.039 
428 1 4.45293 4.88164 0.812702 27 0 0 -18.4599 -8.56861 -11.8989 -843.971 2844.13 510.629 0 0 0 0.5 -292.803 -910.149 -1094.57 147.434 -277.17 336.61 
862 2 3.79458 2.77385 1.06865 -69 0 1 -225.075 -18.6714 -0.208606 1818.33 -2408.77 -462.634 0 0 0 0.5 -27346.1 -885.825 -963.352 -1662.35 -137.992 -115.311 
383 1 1.19195 1.6447 1.42782 -66 0 0 -324.518 -5.33065 16.5259 -1027.87 -232.975 566.829 0 0 0 0.5 -56284.9 -337.47 -750.124 -372.309 2038.81 446.525 
891 2 1.84538 3.36619 0.870684 -34 0 0 -202.718 25.6608 23.0944 -359.736 -2094.73 130.168 0 0 0 0.5 -21438.5 -268.233 -293.355 2764.03 2535.75 -49.4449 
953 2 3.552 4.14809 0.86054 55 0 1 -103.889 -1.56353 10.1652 -241.987 15.5482 223.725 0 0 0 0.5 -5734.78 -1.62531 -125.598 -79.6758 630.276 3.35328 
733 2 2.30055 1.65493 0.727288 231 1 0 -311.9 -3.65502 5.62923 744.278 -944.381 -544.948 0 0 0 0.5 -51812.7 -1477.2 -774.894 -260.17 1117.91 105.789 
40 1 1.49871 1.43092 0.503162 -17 0 1 -327.168 -28.0577 4.43352 1356.59 -1902.36 387.014 0 0 0 0.5 -56750.4 -953.937 92.6467 -4363.17 859.51 146.749 
70 1 0.636041 3.07359 1.3426 -1 0 0 -260.415 12.6214 0.323984 -658.335 329.115 -189.874 0 0 0 0.5 -35749.9 -143.766 -20.144 1841.7 -25.4769 32.68 
364 1 3.48321 2.47948 0.208111 -58 0 0 -236.711 -6.06838 0.213664 -211.696 1135.27 -1769.41 0 0 0 0.5 -29559.3 -1910.86 -732.506 -187.523 -124.969 509.528 
236 1 1.36972 2.70681 1.55421 -80 0 1 -250.26 1.33585 4.52325 -302.405 345.291 571.846 0 0 0 0.5 -33281.5 -158.131 -755.154 422.441 744.229 -59.3459 
536 2 2.24937 2.65215 1.70979 -60 0 -1 -234.481 10.3448 15.9912 -214.682 79.3154 501.87 0 0 0 0.5 -28965.8 -62.3858 -307.185 1299.99 2086.3 -118.097 
182 1 4.71417 0.0132211 0.737092 82 1 0 -527.533 4.96038 -8.01563 3732.82 -602.242 -647.162 0 0 0 0.5 -147456 -648.033 -224.04 2529.67 -2524.71 329.068 
465 1 1.07429 3.83757 0.296975 22 0 0 -76.1673 -13.8803 10.6429 -1025.04 392.623 706.786 0 0 0 0.5 -3740.17 -218.621 -103.261 -350.56 625.105 -24.6185 
85 1 0.293458 2.5146 0.380411 124 1 1 -205.732 1.99287 15.4357 -1100.16 1127.03 -2008.76 0 0 0 0.5 -23007.8 -1374.51 -711.359 1244.32 1482.91 40.6529 
233 1 4.36563 2.63893 1.79887 -24 0 1 -243.886 -12.428 12.849 -1524.14 37.7801 210.09 0 0 0 0.5 -31755.5 -372.331 -256.272 -1217.95 1339.4 104.15 
865 2 3.35802 3.30518 1.49716 -39 0 1 -158.466 1.71667 19.0109 -1593.34 1613.89 498.979 0 0 0 0.5 -13426.3 -446.341 -70.1713 518.414 1973.72 -344.237 
789 2 3.126 3.22649 0.542997 -141 0 0 -181.625 8.60111 3.70021 -510.443 2256.04 849.782 0 0 0 0.5 -17978.2 -496.072 159.966 1264.86 -4.31561 -204.816 
358 1 3.12805 0.629072 0.47184 -55 0 0 -396.383 -21.8925 29.9672 -2314.43 831.661 -2595.26 0 0 0 0.5 -84785.3 -144.551 -373.76 -3688.66 5926.47 415.441 
472 1 3.42504 2.3795 1.956 -25 0 0 -262.01 11.2827 6.69733 -635.464 2030.72 -357.829 0 0 0 0.5 -35957.3 -743.997 -668.248 1970.03 1078.95 -405.808 
281 1 3.07007 1.81379 1.12834 152 1 1 -304.89 -22.529 12.3803 -85.9063 -1012.43 1119.02 0 0 0 0.5 -49698.6 -962.773 -1084.95 -3470.75 2334.13 380.268 
436 1 1.4478 0.132727 0.12833 105 1 0 -510.925 28.7648 30.4158 -52.7932 -280.764 -27.2665 0 0 0 0.5 -136675 -306.575 -470.785 7709.34 8145.61 -460.268 
541 2 1.53443 4.74564 1.34182 126 1 1 -65.2637 9.98602 17.4593 675.929 -355.582 -567.741 0 0 0 0.5 -2524.88 -136.586 -64.1133 499.015 733.144 -168.314 
163 1 3.219 0.814713 1.74499 104 1 0 -408.31 1.27966 -8.90224 1221.8 -1687.74 -2089.31 0 0 0 0.5 -87770 -793.177 -780.935 854.37 -1889.67 54.2681 
66 1 0.756515 4.30297 1.91623 -48 0 1 -120.406 1.46023 -7.11956 -222.529 -970.257 439.214 0 0 0 0.5 -7559.08 190.676 38.7809 195.52 -499.846 -111.687 
951 2 4.60957 4.22579 0.981957 -26 0 0 -95.7877 -27.263 8.34683 -634.15 1326.32 1969.4 0 0 0 0.5 -5611.21 -1868.76 -808.164 -834.168 30.0106 913.545 
354 1 2.82152 2.51592 0.987189 -41 0 0 -253.149 4.94958 0.301431 367.553 1918.42 -866.621 0 0 0 0.5 -33976.4 -556.971 -173.691 897.535 69.9639 37.4998 
18 1 4.19714 3.31449 0.462815 -224 -1 1 -190.372 -9.02336 19.0336 -41.2822 -51.6276 516.583 0 0 0 0.5 -19069 -335.731 -447.231 -933.159 2139.95 200.977 
524 2 3.77425 1.72835 1.6882 -87 0 0 -301.033 -9.76988 27.6819 970.25 -407.495 824.861 0 0 0 0.5 -47782.4 -1255.57 -955.674 -1027.53 4545.51 -570.984 
262 1 1.35395 4.86675 0.4365 -58 0 0 -15.5379 14.3604 -11.4027 -123.742 407.853 266.73 0 0 0 0.5 -1251.83 -1329.28 -488.771 1165.17 219.017 -281.106 
851 2 0.490269 4.7873 0.261935 -44 0 1 -24.6575 -16.0266 -20.7485 -203.937 1110.89 691.759 0 0 0 0.5 -322.734 532.491 42.9233 34.4689 -137.705 251.093 
697 2 2.71951 1.47032 1.91345 -56 0 1 -354.739 11.8349 -3.74171 -1722.75 2090.91 1041.67 0 0 0 0.5 -66764.8 -886.103 -881.044 2616.66 -723.736 14.5882 
990 2 3.93164 1.11813 1.17245 -71 0 0 -388.091 -2.99159 5.93754 585.687 -1482.93 -837.23 0 0 0 0.5 -78945.4 -824.58 -577.856 -418.63 1326.79 -458.73 
184 1 3.9447 4.06332 1.88801 65 0 0 -113.139 15.0669 -4.2935 -1867.39 2756.45 -634.322 0 0 0 0.5 -7097.12 -915.925 -54.6206 1469.31 -387.998 225.585 
600 2 4.0349 0.388813 0.683262 104 1 1 -471.042 -13.8478 -12.9653 883.404 830.562 1042.73 0 0 0 0.5 -119470 -1157.65 -578.787 -1771.93 -3846 244.904 
910 2 4.19545 4.98395 1.87328 -45 0 0 2.12706 -5.99257 26.572 -3084.27 496.457 1294.31 0 0 0 0.5 -1072.14 -29.4856 -559.852 203.98 421.698 2.56085 
285 1 4.24329 4.10367 0.221417 191 1 0 -98.9022 6.13436 8.07647 671.761 -1730.26 811.984 0 0 0 0.5 -5338.52 -632.366 -1580.19 408.309 -125.898 356.504 
191 1 4.79589 0.904191 0.61219 167 1 2 -459.64 30.4953 7.57461 -846.668 -1504.41 1330.31 0 0 0 0.5 -110323 -159.275 -483.541 7559.47 1799.65 -11.4215 
519 2 4.78369 3.4166 1.19849 -20 0 0 -170.804 -15.4783 22.3345 294.9 -1662.45 550.321 0 0 0 0.5 -15517.9 -1539.14 -993.774 -1089.97 2425.2 357.3 
277 1 4.89339 4.85958 1.57925 -231 -1 1 -24.8256 21.8194 2.29217 -35.5084 1476.68 -1816.35 0 0 0 0.5 -2136.73 -938.438 208.028 1014.75 338.712 451.73 
45 1 4.87973 2.49224 1.01522 172 1 0 -250.591 -10.3301 -7.55897 -2164.94 2083.37 1999.45 0 0 0 0.5 -33410.6 -1456.81 -397.429 -577.261 -513.226 -783.127 
379 1 2.30226 1.65917 2.87352 -60 0 1 -348.689 1.08974 6.23746 265.535 1662.54 1120.1 0 0 0 0.5 -64539.5 35.9311 -1031.34 664.677 652.887 497.328 
781 2 0.856476 1.79603 2.97213 220 1 0 -358.64 18.0113 -7.00964 1644.56 -1670.66 -996.461 0 0 0 0.5 -67702.7 -656.258 -170.52 3809.7 -758.486 -463.471 
795 2 2.34024 2.62468 2.84009 -52 0 -1 -242.339 5.59235 -31.88 1204.52 -1355.47 -527.823 0 0 0 0.5 -31076.8 -251.85 -671.78 1059.26 -3902.71 50.4466 
314 1 3.78907 4.00457 3.52613 -37 0 1 -86.677 -11.5469 15.762 -2979.65 3704.07 1335.74 0 0 0 0.5 -4682.62 -1466.33 -361.118 478.562 1077.24 -383.146 
542 2 3.44171 1.08238 3.44482 -150 0 1 -356.583 -2.01346 5.83306 256.156 -1051.03 -1168.8 0 0 0 0.5 -66876.9 186.627 -1245.33 -238.117 806.998 -39.4212 
131 1 2.29067 3.60824 3.63762 -12 0 0 -155.458 4.96973 -13.3706 -287.446 -677.125 91.148 0 0 0 0.5 -12537.4 -74.9581 -6.19204 561.999 -1092.12 309.834 
822 2 1.56127 0.0655398 2.85332 68 1 1 -439.506 -4.47884 26.5795 -1776.43 -268.735 -872.352 0 0 0 0.5 -102313 -1023.54 -1041.98 -406.86 5977.82 -210.668 
800 2 0.566234 0.845895 2.27919 170 1 -2 -401.57 -0.545225 10.5352 -951.049 525.52 955.149 0 0 0 0.5 -84901.2 -85.0033 -307.336 69.6863 2380.27 -109.669 
310 1 1.269 0.947853 2.86303 -59 0 1 -366.268 4.09063 -8.8394 -732.641 559.856 1224.49 0 0 0 0.5 -70291.3 -395.77 420.084 1068.35 -1799.55 -324.745 
317 1 1.57768 1.29185 3.79027 -70 0 0 -327.024 -10.4 -11.8432 -324.327 1353.7 -1933.61 0 0 0 0.5 -56391.6 -944.927 -575.5 -1221.23 -2259.76 451.501 
253 1 0.968 1.88524 3.95777 -94 0 1 -324.249 -6.74193 13.6361 3505.82 -998.316 1777.24 0 0 0 0.5 -56078.6 -481.207 234.361 174.085 2027.68 729.783 
868 2 0.940476 3.15242 2.86495 -61 0 1 -209.76 -14.1634 4.54367 -1053.39 1681.49 2043.23 0 0 0 0.5 -25055.6 -1154.09 -710.516 -1120.31 672.421 -280.081 
927 2 1.75137 1.74605 2.23258 -40 0 0 -308.084 -18.7764 -7.79548 -1030.67 -30.6614 -573.626 0 0 0 0.5 -50337 -676.182 -1241.24 -2785.7 -1806.28 -341.162 
328 1 1.46089 2.47243 2.4433 -72 0 0 -269.083 9.80387 9.20373 2056.01 -925.933 65.9621 0 0 0 0.5 -38483.5 -969.093 -611.765 2193.13 1689.7 -410.606 
507 2 3.35333 2.51493 2.88562 -87 0 0 -251.483 -16.2058 0.0777455 -181.359 675.265 -691.397 0 0 0 0.5 -33231 6.3391 -1132.35 -2126.7 -70.2849 -152.723 
286 1 2.55733 0.47638 2.54615 145 1 0 -439.52 14.7091 18.715 -546.605 1130.27 1341.23 0 0 0 0.5 -101693 -496.841 -1092.91 3338.04 4129.08 -222.28 
589 2 1.84506 4.15728 3.01985 -24 0 1 -115.283 22.7198 -21.1151 -319.903 960.497 -466.992 0 0 0 0.5 -7047.48 -624.558 -400.757 1447.73 -1396.23 367.78 
11 1 3.90308 0.205896 3.24483 -90 0 0 -450.763 8.56971 -22.0422 632.094 1513.12 -322.608 0 0 0 0.5 -107438 -979.897 -1165.97 2722.63 -5328.9 588.67 
995 2 0.379583 2.35062 3.62555 -68 0 1 -246.93 -10.4025 15.194 -1656.56 2467.4 1050.42 0 0 0 0.5 -34666 -1626.22 -1435.86 555.224 1777.51 194.121 
808 2 1.0961 0.387644 3.63503 105 1 0 -453.466 -6.46116 7.25203 -141.871 1155.7 -510.356 0 0 0 0.5 -107741 176.377 166.111 -1392.62 1778.63 -422.948 
617 2 1.72836 3.2382 2.90214 159 1 0 -209.093 29.5216 -5.96884 838.731 722.873 189.876 0 0 0 0.5 -23797.8 -812.394 192.374 3638.8 -467.714 321.06 
878 2 1.93549 2.64271 3.62165 25 0 0 -246.808 -2.84563 -17.7632 -1022.14 640.316 -46.2996 0 0 0 0.5 -32604.9 -208.52 -668.995 -81.1926 -2020.88 43.0338 
829 2 0.0230254 0.52046 3.41887 44 1 1 -467.336 9.78412 -12.4481 0 0 0 0 0 0 0.5 -114355 -50.1236 -81.135 2394.14 -3046.02 63.7713 
291 1 0.603179 2.44903 2.16171 -87 0 -1 -276.464 -8.67014 -5.94276 -324.294 -8.84701 -106.466 0 0 0 0.5 -40158.9 -39.4631 -33.4814 -1258.85 -905.91 -28.2238 
271 1 3.61375 2.55148 3.70674 -123 0 0 -272.245 26.816 3.9249 -493.351 983.577 334.348 0 0 0 0.5 -39137 -645.613 -1054.86 4058.5 334.979 -91.3878 
259 1 1.00178 3.85662 3.47428 -104 0 0 -111.152 -4.21059 -6.49012 -366.278 -1972.1 -575.083 0 0 0 0.5 -7121.04 -772.824 -477.078 162.444 -926.602 -19.0846 
437 1 2.58007 1.30948 3.63525 -127 0 0 -369.628 -8.36746 -6.26948 466.99 -60.8335 512.81 0 0 0 0.5 -71853.9 -706.834 -994.375 -1368.78 -1288.19 228.625 
207 1 2.6134 0.45401 3.95896 148 1 0 -417.366 -7.41525 -12.5803 -973.848 204.838 712.15 0 0 0 0.5 -93124.2 -826.26 -719.792 -1113.71 -2172.07 -300.136 
44 1 3.27713 0.245016 3.82532 -64 0 -1 -435.786 -21.0626 -9.46922 234.697 -165.076 -954.107 0 0 0 0.5 -101627 -473.545 -686.264 -4569.4 -2051.98 -521.84 
97 1 3.53932 3.27061 2.49933 -29 0 1 -166.552 6.39811 6.59312 -373.121 -515.979 381.634 0 0 0 0.5 -14621.7 145.878 -12.3145 576.213 614.373 -96.6348 
756 2 0.0900631 2.8314 3.04119 -93 0 0 -199.482 -8.37819 -18.4497 -71.4909 -385.63 -150.149 0 0 0 0.5 -22062.6 -455 -890.229 -786.601 -2107.44 409.141 
664 2 0.552785 4.66966 3.29394 -13 0 1 -39.9688 0.641955 2.34663 -524.517 1086.69 -489.48 0 0 0 0.5 -1059.52 -839.983 -602.317 539.528 63.579 227.712 
580 2 0.122395 4.10792 2.67808 208 1 1 -108.761 6.25932 21.2637 -117.008 2189.39 887.317 0 0 0 0.5 -6375.46 -11.0252 -362.366 716.312 1254.15 -320.874 
760 2 2.74865 2.21724 3.56593 -66 0 0 -266.527 -12.1286 -9.64456 583.693 -1257.36 -334.233 0 0 0 0.5 -37737.2 -25.1782 156.386 -1342.38 -1102.57 179.727 
267 1 4.3942 1.19708 3.35062 -134 0 0 -350.581 -16.6888 -7.67273 -1451.57 -926.207 -599.204 0 0 0 0.5 -65250.8 -651.187 -107.942 -2784.31 -1392.78 -248.682 
860 2 0.481462 3.4576 2.34028 -7 0 1 -184.777 -12.9138 -34.2454 -124.124 147.053 -2237.54 0 0 0 0.5 -18215.4 -307.031 -968.363 -759.385 -3522.36 -413.992 
907 2 4.45699 4.41835 2.6734 24 0 0 -59.9167 -9.89963 7.50016 1124.86 -347.727 199.587 0 0 0 0.5 -4519.54 -71.9551 -133.099 647.507 1550.53 -3.7138 
360 1 4.36632 3.4569 2.02999 -106 0 1 -160.756 7.13541 16.9482 -43.942 -1549.37 1023.4 0 0 0 0.5 -14811.2 -1120.13 -744.866 1403.91 1328.97 159.368 
861 2 3.73371 4.71742 3.01733 -7 0 1 3.57472 -5.92775 -21.0377 -2886.93 344.417 973.488 0 0 0 0.5 -1744.44 -755.678 -935.994 895.636 859.703 -666.088 
678 2 4.27034 3.3712 3.3035 -47 0 0 -186.755 6.57794 -4.92654 1817.7 -1670.42 -497.843 0 0 0 0.5 -19249.2 -2194.73 -306.02 2086.64 43.4059 -780.195 
946 2 4.18267 0.767011 2.06061 -33 0 1 -412.113 16.0858 23.496 -268.805 -170.662 -1705.48 0 0 0 0.5 -89293.2 74.5126 -557.306 3602.22 5041.12 187.856 
636 2 3.08891 1.3577 2.69238 -145 0 1 -344.32 11.0818 -2.78366 432.741 1750.02 138.089 0 0 0 0.5 -62798.2 -1014.66 -689.724 2569.96 -662.689 28.6426 
339 1 3.05723 4.70577 2.38103 11 0 1 -20.7436 -23.6388 -3.76201 299.364 -1602.58 -403.39 0 0 0 0.5 -410.918 -978.294 -96.7302 -9.25362 -108.644 -107.731 
413 1 3.40678 0.536872 2.5888 -114 0 0 -429.303 2.00175 -20.1557 586.235 -1923.5 324.575 0 0 0 0.5 -97608.4 -1054.65 -1474.65 907.898 -4875.18 418.277 
674 2 4.19492 1.94086 3.64605 -13 0 0 -290.995 -1.25886 11.7469 346.441 398.967 418.943 0 0 0 0.5 -44673 -741.615 -149.999 178.732 1863.73 -207.756 
926 2 4.72147 0.37445 2.7669 74 1 0 -429.07 4.72311 8.22336 821.967 -418.521 711.815 0 0 0 0.5 -96643.7 -104.979 -353.514 1168.29 1671.46 150.998 
63 1 4.66913 2.61613 3.00963 164 1 0 -252.244 7.12641 14.1518 805.12 -1499.42 -1055.14 0 0 0 0.5 -33647.7 -1216.52 -383.342 1555.8 1999.07 -383.906 
656 2 4.92782 1.86818 2.73628 -96 0 1 -277.417 -17.8732 2.08783 -12.8197 150.059 681.696 0 0 0 0.5 -40351.1 -632.835 -2.55567 -2431.25 436.886 -151.513 
185 1 4.87185 4.9987 3.35944 48 0 0 4.79585 -6.39581 8.5844 -1894.35 362.25 -4986.52 0 0 0 0.5 -274.524 144.489 -1005.69 -35.0604 -182.583 508.549 
713 2 0.691332 0.140419 5.6864 -119 0 1 -480.642 8.13286 -30.1713 448.953 -1336.24 1134.21 0 0 0 0.5 -120977 -189.398 56.1153 2015.24 -7445.55 -217.397 
295 1 3.60103 1.11207 4.3692 139 1 0 -383.25 19.5338 -19.7594 440.475 1440.55 828.25 0 0 0 0.5 -77276.2 -1094.74 -1716.67 4396.95 -3771.25 -214.905 
345 1 2.18135 0.384064 5.05215 122 1 0 -457.646 -2.80061 1.80654 -489.94 635.397 751.498 0 0 0 0.5 -110098 87.1709 -698.709 -330.96 -16.8087 294.016 
675 2 2.34423 3.62142 5.81717 18 0 0 -115.979 1.549 26.8847 -928.153 -469.911 1695.25 0 0 0 0.5 -7414.92 -640.029 -921.529 303.85 1857.55 293.598 
462 1 1.09959 0.725082 4.60613 185 1 0 -391.944 -11.0021 11.5955 -555.341 -105.184 311.358 0 0 0 0.5 -81475.8 -107.358 -144.963 -2063.28 2648.91 22.5481 
343 1 1.87004 1.71727 5.04341 -72 0 1 -320.213 -0.662822 26.2701 172.844 1399.77 -336.95 0 0 0 0.5 -55655.8 -245.599 -679.883 775.083 4805.12 -13.2876 
500 1 2.09069 2.65153 5.09488 -29 0 0 -235.584 -3.59747 18.4884 -18.9574 -2211.14 125.709 0 0 0 0.5 -30290.6 -485.722 -13.4664 160.606 1960.55 127.87 
426 1 0.314287 1.796 4.75882 157 1 0 -313.582 7.20853 -0.865602 -555.527 -159.94 -323.33 0 0 0 0.5 -51635.8 -119.22 -46.6211 1150.73 -223.758 -1.31959 
737 2 1.57936 3.3599 4.94027 -41 0 0 -174.621 6.10672 7.9967 -1615.27 505.294 -732.515 0 0 0 0.5 -16322 -347.886 -47.2936 1127.76 676.466 599.376 
321 1 0.458334 2.59275 4.67585 134 1 0 -221.836 23.1207 -7.93622 1078.18 -88.4926 289.623 0 0 0 0.5 -26584.8 -518.76 -603.562 2496.86 -1233.06 248.394 
111 1 3.52353 4.71011 4.11055 -20 0 0 -43.8349 1.40603 24.5468 -269.48 -987.199 1400.31 0 0 0 0.5 -814.823 -388.205 -702.444 203.162 441.677 246.053 
587 2 1.91433 0.629656 4.34967 -84 0 0 -407.575 -5.54362 -26.6118 -445.844 329.976 795.62 0 0 0 0.5 -88641.6 -1526.49 -1696.97 -377.516 -5563.46 633.4 
690 2 1.60704 3.88662 4.10254 122 1 0 -163.933 12.6636 24.6844 3755.8 -4071.06 980.927 0 0 0 0.5 -14896.1 -1612.33 -958.314 2140.9 1580.79 24.6039 
572 2 1.46181 2.55495 4.35887 -31 0 0 -215.376 -21.2814 7.27797 131.647 -1910.91 1020.54 0 0 0 0.5 -24705.3 46.8144 -75.2322 -1582.63 988.72 810.409 
28 1 4.04096 1.72253 5.3062 -66 0 0 -342.607 16.0192 -8.18229 1754.35 -213.317 -30.1715 0 0 0 0.5 -62249.8 -1443.75 -306.049 3608.39 -1262.18 -428.204 
637 2 2.97133 2.62382 5.02753 -61 0 1 -253.919 7.3133 -5.14255 -112.183 759.435 -2680.08 0 0 0 0.5 -36022.5 -341.638 -2218.15 1560.96 -697.571 207.751 
591 2 0.809704 2.49031 5.53044 -112 0 0 -274.808 21.9717 9.29614 -579.682 1595.76 1643.45 0 0 0 0.5 -39753.1 -745.283 -509.579 3452.65 1317.73 -289.618 
502 2 2.29394 1.75492 4.3286 -102 0 0 -336.88 17.9012 -3.56125 153.086 318.432 547.104 0 0 0 0.5 -59536.3 -226.189 -377.817 3197.15 -334.434 -226.084 
68 1 3.82914 3.6282 5.34487 101 1 0 -164.56 39.0391 -13.3203 1857.88 -1047.97 -1689.7 0 0 0 0.5 -14701.3 -1254.82 -613.181 3859.46 -990.651 -387.295 
332 1 2.68419 2.77257 5.91105 -78 0 0 -137.943 -15.7293 -6.58241 -2197.32 2809.08 132.713 0 0 0 0.5 -10527.1 -1338.91 -2341.78 -692.321 -648.745 -0.956366 
943 2 3.73725 2.52234 4.57919 -30 0 0 -261.321 2.68633 2.72397 -389.374 -139.049 1094.18 0 0 0 0.5 -36969.1 -8.18435 -271.493 587.371 477.618 -125.329 
754 2 2.4546 0.811691 5.9259 -71 0 1 -384.291 -4.84054 8.16764 -657.458 1238.09 1155.23 0 0 0 0.5 -77531.8 -566.691 -562.37 -771.745 1884.1 -190.574 
254 1 2.53121 1.26139 5.08235 -36 0 -1 -356.635 -19.7029 4.86573 77.7208 -2132.81 -251.205 0 0 0 0.5 -68118.8 -346.877 -64.376 -3185.24 1059.14 149.012 
190 1 4.48114 0.164131 4.90156 -101 0 1 -479.975 2.0042 12.9014 10.839 1082.82 -604.378 0 0 0 0.5 -121642 -2196.72 -589.296 1387.48 2789.76 424.67 
742 2 0.594388 1.11914 5.83947 118 1 0 -378.763 0.94046 7.40502 468.484 2037.76 1405.09 0 0 0 0.5 -75050.5 162.271 378.17 398.499 1642.35 391.492 
183 1 1.13344 1.90511 5.25681 -23 0 0 -310.783 -6.09807 -8.93789 -1553.9 -876.418 330.575 0 0 0 0.5 -51982.2 -584.85 -306.867 -469.362 -1125.05 -352.934 
735 2 0.8985 3.1896 4.19339 -32 0 1 -164.071 -5.18984 -2.62742 231.821 2117.48 -2060.98 0 0 0 0.5 -14784.6 -720.724 -270.387 306.814 -36.2513 -34.5408 
529 2 0.245594 0.974028 4.75547 -93 0 0 -394.502 -18.297 3.5194 -981.752 217.647 170.437 0 0 0 0.5 -81905.8 -238.21 -19.2333 -3660.24 799.854 12.3559 
323 1 2.17327 4.39595 5.22246 -54 0 0 -44.2599 -16.5189 23.4295 1035.52 947 -1605.04 0 0 0 0.5 -1986.8 -567.627 -452.242 -299.969 -61.436 463.677 
246 1 4.34916 3.01846 5.45379 246 1 0 -214.54 -14.279 -7.39802 432.741 -337.45 -3517.42 0 0 0 0.5 -25486.8 -639.404 -1235.96 -1215.94 -771.221 392.52 
301 1 1.11863 4.6722 4.06935 15 0 1 -27.3126 8.04401 8.50593 -517.627 3288.48 -512.456 0 0 0 0.5 -1813.9 -1718.64 8.5649 1396.07 163.988 27.7891 
604 2 4.55465 4.40027 4.08983 -13 0 0 -71.1778 19.638 -39.508 -1579.5 1030.49 1455.13 0 0 0 0.5 -3150.43 -693.928 -1047.78 980.206 -1274.32 882.477 
151 1 4.35463 4.65629 4.93719 -23 0 0 -10.1793 -36.0535 21.5419 -34.0504 -642.606 -1085.16 0 0 0 0.5 -63.1262 -782.719 -280.48 -239.531 -9.39384 351.811 
645 2 3.23731 1.39377 4.96248 23 0 0 -353.596 20.3521 6.83641 643.049 1010.13 1121.85 0 0 0 0.5 -66592.3 -386.872 -578.962 3696.08 1620.24 -318.157 
673 2 0.307948 3.66526 4.70244 -13 0 -1 -134.458 -5.08278 9.02814 -363.59 -133.985 622.992 0 0 0 0.5 -10097.6 -438.01 -1451.14 103.632 549.175 203.831 
351 1 0.781601 4.35233 5.97451 -23 0 0 -28.4073 3.09174 5.88603 722.201 -1016.31 -464.402 0 0 0 0.5 -747.975 225.741 57.924 224.973 151.92 126.038 
923 2 2.79636 0.115679 5.43822 100 1 0 -452.657 -14.6712 10.0081 262.057 -1549.6 713.045 0 0 0 0.5 -108458 -716.596 -623.489 -2903.02 2629.25 -239.406 
653 2 2.74875 1.93052 5.75094 152 1 0 -286.981 -15.6001 -11.2946 293.038 -2077.02 -3295.98 0 0 0 0.5 -44482 -1069.89 -1089.25 -2545.57 -1029.47 21.8122 
109 1 0.320264 4.95075 4.09841 6 0 1 -18.0771 -8.60076 15.4873 -1684.77 -1497.75 -493.049 0 0 0 0.5 -1198.35 -723.253 -1289.86 399.042 361.934 -376.435 
84 1 4.51824 3.65899 4.41227 153 1 1 -135.969 -0.155469 -38.2594 -2037.42 1219.32 -296.305 0 0 0 0.5 -10214.5 -761.433 -1166.95 491.605 -2701.53 93.1648 
41 1 2.91811 4.53768 5.81291 -50 0 0 -48.6654 -1.471 9.56627 -1556.8 676.127 -621.103 0 0 0 0.5 -2250.53 -1133.69 -448.391 687.6 -383.46 421.036 
588 2 2.58491 4.47883 4.3354 -33 0 1 -59.1536 -9.59551 -1.97168 240.636 -547.76 352.84 0 0 0 0.5 -1546.98 -283.939 278.247 -200.908 -242.03 -131.014 
440 1 3.00402 3.55873 5.18065 17 0 0 -173.397 16.3125 -19.9637 33.2923 -136.874 -1104.68 0 0 0 0.5 -16441.7 -160.007 -518.771 1478.35 -1583.42 132.622 
727 2 1.27245 4.4286 4.98866 -55 0 0 -19.7416 -22.6166 5.22612 -1856.34 539.447 -191.033 0 0 0 0.5 -914.072 -60.9083 -66.0332 -294.01 -176.191 151.573 
307 1 2.5756 2.79737 4.24522 181 1 -1 -242.027 21.532 -2.78836 -958.867 -33.0001 -565.584 0 0 0 0.5 -30675.1 -210.282 -65.4762 2796.51 -774.12 127.66 
329 1 0.0206562 4.06117 4.10373 -51 0 1 -82.9432 -6.96835 -22.2257 -642.352 1432.44 -1603.22 0 0 0 0.5 -3693.63 -68.7517 -737.908 -94.5633 -1195.55 234.836 
312 1 0.645133 3.525 5.53283 -6 0 1 -105.955 -1.44082 -14.7326 -91.5851 1443.65 437.775 0 0 0 0.5 -6091.45 60.5948 -987.362 166.632 -1244.43 513.923 
10 1 3.532 2.2785 5.50509 -52 0 0 -304.777 18.5961 19.7524 1677.36 1092.63 907.756 0 0 0 0.5 -50333.1 -1305.07 -497.56 3601.37 2862.96 -256.924 
659 2 3.91059 0.390704 4.23009 -80 0 0 -449.383 -4.63584 -3.49309 2173.24 -1428.38 137.904 0 0 0 0.5 -106795 -844.381 -579.97 -800.685 -1507.73 -185.985 
724 2 4.3377 0.944574 5.00264 -75 0 0 -393.591 14.0471 -6.12371 270.295 525.753 -360.363 0 0 0 0.5 -81250 -1660.48 -144.025 3316.26 -1148.89 -330.306 
646 2 4.56944 2.37423 4.62552 -61 0 0 -263.884 13.1295 16.6207 1844.17 2041.69 -538.55 0 0 0 0.5 -37082.4 22.6854 -13.137 2538.73 2076.28 -369.213 
438 1 4.74663 3.44217 5.00451 -19 0 0 -144.495 5.1712 12.6142 -861.117 -24.9852 1354.69 0 0 0 0.5 -11050 -217.528 -570.321 171.045 916.18 174.854 
492 1 4.81924 2.79458 5.96036 -150 0 0 -221.966 10.4374 -2.67198 6.93768 1324.4 2069.22 0 0 0 0.5 -27343.2 -647.937 -597.815 1927.73 -686.671 181.408 
108 1 4.97557 1.26666 5.70301 -98 0 0 -375.311 6.55174 -13.7055 1389.56 -457.127 -926.516 0 0 0 0.5 -74269.5 -78.3581 -327.919 1457.37 -2349 -66.2473 
874 2 2.50394 4.57275 7.84747 45 0 -1 1.08543 -20.0979 -23.4286 -2383.86 -20.2227 -113.351 0 0 0 0.5 -1061.87 -326.566 -738.374 191.582 -391.53 -19.5354 
592 2 1.83564 1.39341 7.05875 103 1 0 -364.025 9.65488 12.2504 1234.66 1493.41 -2566.46 0 0 0 0.5 -69159.8 138.701 257.238 2056.83 2003.62 -315.995 
763 2 2.40443 0.241727 7.19499 -74 0 1 -448.539 -1.32475 -8.9721 1850.79 -485.911 152.939 0 0 0 0.5 -105741 -266.813 -1126.59 -78.6429 -2453.02 515.245 
505 2 1.66661 0.976725 7.9125 -81 0 0 -408.478 -8.88661 -16.0714 -105.406 -293.458 759.228 0 0 0 0.5 -87379 -101.54 -465.98 -1927.78 -3358.03 105.433 
517 2 4.6745 2.17443 6.72701 -61 0 0 -234.545 -3.73948 -3.21381 870.484 -1903.62 -2061.11 0 0 0 0.5 -29854.2 283.084 -572.346 419.492 -1146.03 636.66 
245 1 1.93642 0.551347 6.69845 -68 0 0 -430.573 -0.636613 -21.0304 -1716.49 1521.02 -1153.71 0 0 0 0.5 -97519.8 -360.494 -871.958 45.1431 -5127.89 166.006 
770 2 0.659328 1.36696 7.29828 -116 0 -1 -357.793 -14.6385 -27.7487 906.082 -3329.98 3034.35 0 0 0 0.5 -67256.5 -934.576 -547.761 -2184.09 -5082.11 345.847 
432 1 2.64632 2.64967 6.83091 37 0 0 -205.191 -22.8552 -12.7963 -1578.64 3814.4 772.138 0 0 0 0.5 -23697.5 -344.346 -776.585 -2053.17 -764.435 389.57 
451 1 4.7803 4.16166 6.34092 -50 0 0 -41.8103 -24.6937 12.0179 -758.883 -1523.41 911.281 0 0 0 0.5 -1354.42 -948.471 -944.081 -252.084 763.905 -275.674 
430 1 4.23237 1.51116 6.19856 -96 0 0 -344.234 2.81364 -0.841887 3532.91 -1249.46 1059.4 0 0 0 0.5 -63763.4 -697.725 -91.4861 1536.31 693.815 -17.4504 
889 2 1.82578 2.44057 7.19555 -17 0 0 -185.393 -25.4244 -20.1755 -1629.17 -415.153 723.987 0 0 0 0.5 -18664.7 -381.857 -345.129 -2638.31 -1661.44 -192.89 
158 1 2.27343 1.85181 6.32948 -22 0 0 -246.271 -25.0615 -6.81092 -3372.89 -1513.64 4591.46 0 0 0 0.5 -32062.9 -83.7509 -172.208 -3073.37 -611.093 -393.394 
719 2 0.853284 1.79972 6.47475 182 1 0 -281.611 7.83169 27.1836 -223.012 -621.187 -2760.24 0 0 0 0.5 -41475.6 282.522 -567.269 1255.53 4320.78 643.98 
533 2 0.747181 1.97397 7.97451 177 1 -1 -270.269 6.50961 1.91585 1015.2 -944.786 -405.971 0 0 0 0.5 -38614.1 -278.396 -340.999 996.924 30.4659 620.977 
90 1 3.47682 1.71421 6.32998 -50 0 0 -308.057 5.0802 9.42061 -993.603 984.802 -1884.53 0 0 0 0.5 -51171.4 -1633.25 -1140.39 2304.08 1587.46 -195.286 
69 1 0.312029 2.16013 7.25999 -60 0 1 -243.548 -2.80918 -8.65408 -2338.83 2276.35 -948.697 0 0 0 0.5 -31323 -1619.57 -582.847 397.582 -1625.61 340.195 
739 2 0.0703553 2.20745 6.26951 -21 0 0 -289.917 12.9611 -12.9263 -93.9311 172.396 77.3157 0 0 0 0.5 -43957.1 -3.03688 24.4637 1967.63 -1918.58 167.913 
288 1 2.4874 4.01855 6.83434 11 0 0 -100.134 31.4513 -7.33334 -827.748 1148.78 -344.413 0 0 0 0.5 -5419.71 -844.825 -57.5404 1884.52 -455.102 218.768 
431 1 0.40112 0.592787 7.78387 -88 0 0 -450.614 7.92988 3.07091 -24.4349 1158.26 -999.819 0 0 0 0.5 -106316 23.0494 -118.284 2007.63 609.604 30.6508 
973 2 4.90588 0.617756 7.97617 -103 0 0 -418.378 12.39 -1.77555 -206.308 -609.101 -400.999 0 0 0 0.5 -91624.2 104.463 -77.1211 2770.32 -377.721 29.5016 
629 2 3.36478 0.951853 6.13316 -104 0 -1 -371.889 -4.93448 -6.34685 -534.789 121.823 -619.978 0 0 0 0.5 -72541.5 -711.91 -199.28 -888.692 -1332.87 -95.2174 
417 1 2.89401 2.82628 7.67736 20 0 0 -198.475 -8.35463 13.2658 -891.422 396.756 1250.34 0 0 0 0.5 -20529.1 9.44126 219.129 -602.252 1228.39 101.673 
523 2 2.89747 3.44945 7.00496 -35 0 0 -112.564 -3.30017 14.6243 -1337.56 -1897.88 1506.41 0 0 0 0.5 -7205.69 -24.5862 -1182.38 174.527 1319.42 327.111 
499 1 3.23841 2.45193 6.67733 -14 0 0 -206.758 -9.45512 -18.9372 353.096 2527.34 1122.18 0 0 0 0.5 -25098.5 -1682.03 -1854.01 224.343 -2555.66 -378.703 
599 2 3.38481 3.42675 6.32705 -44 0 0 -149.455 4.64309 13.5871 -822.925 1478.72 189.032 0 0 0 0.5 -12538 -1124.01 -1216.5 907.177 1985.92 -348.492 
651 2 0.0476709 2.9423 6.93695 -4 0 0 -188.469 16.8619 -3.50629 -120.207 741.187 -893.51 0 0 0 0.5 -18698.5 -489.877 -154.196 1807.61 -326.14 277.004 
56 1 3.41038 4.13033 6.08427 -55 0 0 -49.0715 19.3811 -1.06919 1678.11 392.934 3161.63 0 0 0 0.5 -2196.32 -1481.35 -1029.5 1346.01 31.1474 -35.1102 
677 2 0.965435 3.11407 6.08428 -5 0 0 -168.551 5.74578 42.335 773.383 -1012.26 1324.55 0 0 0 0.5 -14999.4 -217.423 -1303.61 667.95 3522.96 151.76 
969 2 3.2529 4.95467 6.70451 30 0 -1 51.266 -27.3956 13.518 99.9239 -352.384 111.811 0 0 0 0.5 -2608.79 -454.915 -613.834 781.465 146.186 219.843 
596 2 0.110464 4.59008 7.1803 -45 0 0 -47.7531 1.87102 -5.90393 352.847 -288.354 -751.198 0 0 0 0.5 -1354.64 -60.5882 -290.508 139.726 -67.3599 -74.6557 
855 2 -0.0162187 4.66907 6.06893 -210 -1 0 -38.4133 -2.12932 18.6715 2223.36 397.893 1341.86 0 0 0 0.5 -2137.24 210.596 -398.613 318.808 -103.927 -4.77701 
399 1 3.7348 3.90269 7.15134 -58 0 -1 -115.932 17.0818 2.40002 -19.5056 17.4708 -132.189 0 0 0 0.5 -7114.5 -181.41 -68.14 1003.76 102.101 -53.0698 
625 2 2.77538 1.92788 7.50613 -5 0 0 -282.297 7.12977 -6.40732 -872.998 1695.95 -154.771 0 0 0 0.5 -41902.5 -1960.52 -426.653 1523.34 -1026.24 644.618 
87 1 4.21615 4.19371 7.90618 -14 0 0 -111.495 27.575 4.92011 6753.83 -4015.31 132.396 0 0 0 0.5 -8608.84 -2692.66 -673.13 3440.98 -91.7837 808.356 
748 2 3.6379 0.20475 6.19719 175 1 0 -409.333 -38.4416 -10.2608 366.798 -1003.33 85.9893 0 0 0 0.5 -87781 -1148.55 -57.8792 -8102.04 -2210.9 -174.407 
843 2 4.50026 4.85415 6.70115 29 0 0 18.8388 2.29815 -9.89554 234.322 451.378 593.236 0 0 0 0.5 -846.843 -1251.35 -892.672 443.804 -314.3 -265.675 
192 1 3.84925 4.96151 7.47438 21 0 -1 72.1788 -21.4815 -7.15321 -2218.43 2339.49 -1256.04 0 0 0 0.5 -3147.46 -2435.45 -314.653 2201.67 -600.554 562.161 
72 1 4.04127 2.46821 6.40278 145 1 1 -203.246 -9.38769 -7.15477 -2891.02 -371.179 -167.964 0 0 0 0.5 -23353.8 -1169.63 -942.661 216.802 -944.16 544.723 