ITEM: TIMESTEP
200500
ITEM: NUMBER OF ATOMS
1000
ITEM: BOX BOUNDS xy xz yz pp pp pp
0.0000000000000000e+00 1.0000000000000000e+01 0.0000000000000000e+00
0.0000000000000000e+00 1.0000000000000000e+01 0.0000000000000000e+00
0.0000000000000000e+00 1.0000000000000000e+01 0.0000000000000000e+00
ITEM: ATOMS id type x y z ix iy iz vx vy vz fx fy fz omegax omegay omegaz radius c_2[1] c_2[2] c_2[3] c_2[4] c_2[5] c_2[6] 
120 1 3.15852 1.54146 0.0722925 0 1 0 -1.0983e-09 3.36446e-09 2.13143e-09 9.95628e-10 -2.86091e-09 -1.86984e-09 1.99945e-09 3.71922e-10 -1.17364e-09 0.5 -1.6667e-09 -8.83883e-09 -8.27628e-10 -9.63989e-10 -4.59704e-10 -2.13612e-09 
525 2 2.11627 1.23431 1.69988 0 0 0 -3.06019e-09 -7.83919e-09 -5.23088e-09 2.5478e-09 6.68796e-09 4.59835e-09 -7.60364e-10 5.83416e-10 2.47735e-09 0.5 1.48594e-10 -5.34792e-10 3.15443e-10 6.7454e-10 2.97027e-10 -1.78496e-10 
371 1 4.95931 3.68326 1.58374 0 0 1 1.73469e-09 -2.96661e-09 4.66156e-09 -1.48297e-09 2.63978e-09 -4.09102e-09 3.73379e-10 -2.76668e-10 2.22263e-10 0.5 -1.09163e-09 -4.53071e-09 2.90631e-09 -5.39327e-10 -5.70045e-10 5.90821e-10 
18 1 1.98117 2.69195 0.532518 0 0 0 -1.542e-09 -1.26769e-10 5.27242e-09 1.2773e-09 1.05767e-10 -4.53304e-09 3.32114e-09 -1.10746e-09 1.0652e-09 0.5 -2.84641e-09 -6.51259e-09 -3.87843e-09 5.27198e-09 2.25608e-09 -2.91244e-09 
868 2 2.87004 3.00634 0.0289121 0 0 1 1.0077e-09 -6.63526e-10 4.50558e-09 -8.00299e-10 5.73469e-10 -3.92468e-09 2.81758e-09 -5.16889e-10 1.18919e-09 0.5 -4.41719e-09 -6.86183e-09 -1.65163e-09 5.10602e-09 -2.27269e-10 3.64256e-10 
25 1 1.41548 0.708705 1.0832 0 0 0 -1.20323e-09 -2.77232e-09 -5.29872e-09 1.01964e-09 2.32675e-09 4.70433e-09 2.32144e-09 -6.06626e-10 1.47126e-09 0.5 -1.92257e-09 -1.38984e-08 -7.71023e-09 5.02193e-09 3.79963e-09 -6.20193e-09 
378 1 4.61919 2.40719 0.0725816 0 0 1 3.39595e-10 2.25424e-09 3.46426e-09 -2.64136e-10 -1.86621e-09 -3.05309e-09 3.13256e-09 7.83419e-10 -6.30932e-10 0.5 -1.83405e-09 -4.82612e-09 -2.73796e-09 -3.64115e-10 -5.45278e-10 -3.64463e-09 
8 1 3.44143 2.06796 1.74253 0 0 0 -1.83694e-10 -3.53292e-09 1.38741e-09 1.30046e-10 3.07129e-09 -1.2468e-09 2.6818e-09 -6.77721e-10 5.71884e-10 0.5 1.27757e-09 5.64211e-10 1.29848e-09 1.02939e-09 -2.85369e-10 9.41809e-10 
629 2 4.07713 2.6156 1.19812 0 0 1 8.71142e-10 -1.69576e-09 4.43179e-09 -7.65364e-10 1.50704e-09 -3.84876e-09 3.02813e-09 -8.26558e-10 8.94955e-11 0.5 -4.90914e-09 -1.15937e-09 -4.29644e-09 7.66696e-10 -3.31433e-09 -1.83792e-09 
5 1 2.34651 3.9005 1.05345 0 0 0 -5.14467e-10 -5.96692e-09 6.04886e-09 4.78879e-10 5.1608e-09 -5.21545e-09 2.21757e-10 4.12239e-10 1.24039e-09 0.5 -3.89561e-10 -6.69102e-10 -9.5503e-10 8.32738e-10 2.13022e-10 -2.03747e-10 
650 2 0.459129 3.43666 1.12967 0 0 0 -3.61892e-09 -6.29225e-09 1.16009e-09 3.09561e-09 5.32527e-09 -8.89121e-10 3.59375e-09 3.25346e-10 4.28488e-11 0.5 -4.89131e-09 -5.53047e-09 -5.95887e-09 4.01499e-09 4.10888e-09 -2.6547e-09 
14 1 3.29515 3.13364 1.54473 0 0 0 2.48594e-10 -2.96164e-09 4.9214e-09 -2.28319e-10 2.63592e-09 -4.27105e-09 8.41995e-10 6.29368e-10 4.13881e-10 0.5 -4.35046e-10 -1.33042e-09 -2.57805e-09 2.02666e-09 -3.39023e-10 -1.18463e-09 
264 1 3.99643 3.86789 1.37953 0 0 0 1.65779e-09 -3.41242e-09 4.72564e-09 -1.4193e-09 3.02438e-09 -4.13339e-09 1.33986e-09 2.9582e-10 2.329e-10 0.5 -1.26025e-09 3.22191e-11 -2.42342e-09 1.7308e-09 1.39044e-11 -5.02011e-10 
223 1 0.747634 2.47805 1.14565 0 0 1 -3.73747e-09 -6.23826e-09 1.0958e-09 3.16469e-09 5.2658e-09 -8.62913e-10 3.55146e-09 -1.4001e-09 5.24392e-10 0.5 -2.31671e-09 -6.01083e-09 -1.36285e-08 2.07462e-09 5.47009e-09 -3.47011e-09 
364 1 4.4227 4.23693 0.53984 0 0 1 7.23869e-10 1.58609e-09 6.39329e-09 -5.25186e-10 -1.3112e-09 -5.5548e-09 1.80363e-09 -2.38121e-10 8.0788e-10 0.5 1.17156e-10 6.42527e-10 1.98302e-10 2.71651e-10 9.1938e-10 -9.22025e-10 
107 1 1.66076 1.61825 0.747451 0 0 1 -2.83947e-09 -1.27618e-09 -2.35738e-09 2.41193e-09 1.01802e-09 2.14246e-09 3.60491e-09 -2.73456e-10 4.55666e-10 0.5 2.45863e-09 -3.20408e-09 -3.21507e-09 -1.1186e-10 1.21361e-11 -2.10096e-09 
529 2 2.67265 2.1996 1.06195 0 0 0 -1.11165e-10 -2.12725e-09 1.49544e-09 2.88744e-11 1.80843e-09 -1.27967e-09 3.27928e-09 1.21431e-10 9.05762e-10 0.5 -1.05686e-09 -2.46385e-09 -2.87851e-09 1.82429e-09 -1.157e-09 6.34051e-10 
515 2 4.38643 0.435908 1.64385 0 0 0 4.41923e-10 -3.70456e-09 -2.52248e-09 -3.86867e-10 3.20978e-09 2.11136e-09 2.00198e-09 -2.00243e-10 5.22498e-10 0.5 -5.25665e-11 -1.89415e-09 -4.19488e-09 -3.72154e-09 4.10148e-11 7.67234e-10 
244 1 4.11373 0.570462 0.682724 0 1 1 5.21802e-10 1.11554e-09 -1.73002e-09 -4.37247e-10 -8.82983e-10 1.41336e-09 2.89257e-09 9.07646e-10 1.18713e-10 0.5 -1.38773e-09 -1.24403e-09 -4.06247e-09 -2.56116e-10 8.37534e-10 5.50833e-10 
20 1 2.90179 0.570818 1.78382 0 0 0 1.96211e-10 -3.44441e-09 -3.04854e-09 -1.7148e-10 2.96899e-09 2.57737e-09 1.3253e-09 -8.18862e-10 7.65151e-10 0.5 -2.15159e-09 -5.12367e-09 -7.8104e-09 2.14173e-09 3.4047e-09 -4.81123e-09 
280 1 4.09077 1.582 1.14626 0 0 0 3.80634e-10 -1.03339e-09 1.56771e-11 -3.78011e-10 9.4214e-10 -5.62556e-11 3.08251e-09 -2.93654e-10 1.11559e-10 0.5 -9.45116e-10 -1.74332e-09 -5.14013e-09 5.67656e-10 2.95668e-09 1.14494e-09 
620 2 1.3946 4.37082 0.857654 0 0 1 2.64787e-10 -3.99672e-09 4.7916e-09 -1.06422e-10 3.4404e-09 -4.04847e-09 2.46056e-09 1.59787e-09 -1.2899e-09 0.5 -1.26551e-09 -6.01718e-09 -8.74983e-09 1.70899e-10 -8.19021e-10 8.79453e-10 
1000 2 3.60332 2.39824 0.339819 0 1 1 2.68602e-09 9.16458e-10 3.15573e-09 -2.22643e-09 -7.67784e-10 -2.78969e-09 2.22104e-09 -1.7558e-10 -4.68918e-11 0.5 -3.843e-09 -6.68414e-09 -4.11846e-09 -3.15269e-10 -3.30292e-09 -1.03013e-09 
103 1 3.28431 3.68319 0.698947 0 0 1 1.67784e-10 -1.73545e-09 5.87371e-09 -1.18928e-10 1.51869e-09 -5.12188e-09 1.75424e-09 1.04047e-10 9.31566e-10 0.5 -1.46839e-09 -1.40371e-09 -2.01521e-09 1.41273e-09 1.31565e-10 -2.29172e-10 
622 2 0.930663 4.80385 0.0848388 0 0 1 1.66582e-10 -2.49942e-10 6.94881e-09 -2.41882e-11 1.93506e-10 -5.90214e-09 3.25375e-09 -2.54422e-10 -4.34966e-10 0.5 -7.28058e-11 6.49102e-10 -4.13092e-09 -3.61274e-10 -1.79179e-09 9.30466e-10 
506 2 0.74356 1.4513 1.18235 0 0 0 -4.02738e-09 -6.34012e-09 -4.54817e-09 3.4289e-09 5.36257e-09 4.0457e-09 2.77997e-09 -5.01504e-10 1.87723e-09 0.5 1.07612e-09 -8.25665e-09 -1.35082e-09 9.50806e-09 1.97907e-09 -5.05602e-09 
626 2 1.28815 3.41645 0.566227 0 0 1 -3.57372e-09 -2.31501e-09 1.35475e-09 3.04712e-09 2.00452e-09 -1.07599e-09 1.82624e-09 -1.03925e-09 3.99653e-10 0.5 -4.73162e-09 -6.86552e-09 -1.28591e-09 3.81576e-09 3.09678e-09 -2.00837e-09 
553 2 0.744043 0.0774004 1.56305 0 0 0 -7.73314e-10 -4.74058e-09 -6.84793e-09 6.32463e-10 4.02549e-09 6.07572e-09 2.75152e-10 -1.44509e-09 2.28061e-09 0.5 8.66566e-10 3.89804e-10 6.93564e-10 1.4276e-10 3.08682e-10 -1.09094e-09 
135 1 1.54769 3.20472 1.67709 0 0 0 1.28309e-09 -5.99757e-09 6.81669e-10 -1.14703e-09 5.13266e-09 -5.08999e-10 1.95996e-09 -2.71383e-09 -6.87978e-10 0.5 3.06622e-10 -1.23218e-08 -2.47533e-09 3.09016e-09 1.25601e-09 -7.49262e-11 
624 2 4.32461 4.92098 1.47156 0 0 1 2.66547e-09 -8.70765e-10 4.82616e-09 -2.17872e-09 8.77222e-10 -4.23991e-09 1.27e-09 -4.81827e-11 7.98448e-10 0.5 1.20556e-09 9.49764e-10 -3.07196e-09 1.22424e-09 -2.23387e-09 -2.5792e-09 
256 1 4.58719 1.36786 0.305 0 0 0 6.24539e-10 1.6231e-09 -5.17755e-10 -5.1811e-10 -1.29875e-09 3.71098e-10 3.04114e-09 5.83251e-10 -8.84061e-10 0.5 -7.35533e-10 -2.7833e-09 -3.56058e-09 -1.74527e-09 2.39263e-10 -4.03862e-09 
260 1 3.31854 0.0700552 1.02517 0 0 0 1.24136e-09 -1.44436e-09 -3.79755e-09 -9.76554e-10 1.29232e-09 3.28205e-09 1.27749e-09 1.50319e-09 1.03508e-10 0.5 -1.63007e-09 -5.03741e-09 -5.70547e-09 -8.85732e-11 8.42523e-10 -3.45856e-09 
616 2 3.19106 4.4806 1.50664 0 0 1 1.24182e-09 -4.8554e-09 4.59595e-09 -1.10102e-09 4.22335e-09 -4.03859e-09 -2.71987e-10 5.39778e-10 8.63016e-10 0.5 -2.27631e-09 -9.17115e-10 -1.02343e-09 1.38143e-09 2.24774e-10 -5.93228e-10 
106 1 1.74522 2.23558 1.52961 0 0 1 -7.22737e-11 -6.38103e-09 1.3744e-09 -6.70804e-12 5.43805e-09 -1.08031e-09 2.55247e-09 -9.28868e-10 -5.83789e-10 0.5 1.72299e-09 -6.52292e-09 -2.04994e-09 2.00175e-09 1.86048e-09 -2.53898e-09 
157 1 1.3897 4.17879 1.83903 0 0 0 1.79889e-09 -6.51449e-09 4.3083e-09 -1.53048e-09 5.59082e-09 -3.65041e-09 2.47204e-09 3.96834e-10 3.25094e-10 0.5 -2.6841e-09 -9.27273e-09 -9.75654e-09 2.16139e-09 3.16706e-09 -1.85477e-09 
516 2 2.34691 0.89043 0.68796 0 0 0 -6.7639e-10 7.09003e-10 -1.53871e-09 5.46242e-10 -7.49309e-10 1.36522e-09 3.13013e-10 -8.39411e-10 1.40509e-10 0.5 5.5563e-10 -2.69714e-09 -7.76642e-10 6.39822e-10 1.64836e-09 -2.45519e-09 
183 1 0.415258 4.58221 1.00381 0 0 0 6.75823e-10 -5.66784e-09 1.00755e-08 -4.44912e-10 4.8703e-09 -8.53063e-09 4.84093e-09 2.53818e-09 2.79477e-10 0.5 7.36249e-11 -3.08865e-10 5.6076e-10 4.42453e-10 -7.17768e-10 5.38639e-10 
625 2 0.399951 3.91216 0.210014 0 0 1 -1.17084e-09 2.08776e-10 4.98041e-09 1.10799e-09 -1.96693e-10 -4.14893e-09 4.63547e-09 -4.20869e-10 -2.02972e-09 0.5 -1.87517e-10 7.33813e-11 -8.64454e-10 -1.96789e-10 -3.63154e-10 8.40401e-10 
91 1 2.22066 4.71676 1.69645 0 0 1 1.54053e-09 -5.83631e-09 5.57258e-09 -1.34523e-09 5.04565e-09 -4.79348e-09 1.11651e-10 1.99711e-10 2.31081e-10 0.5 -2.51614e-09 -1.544e-09 -6.93966e-10 -5.158e-10 4.4051e-10 -5.85549e-10 
257 1 4.94043 2.69123 1.70827 0 0 0 9.71691e-10 -3.07471e-09 3.69075e-09 -8.50853e-10 2.74012e-09 -3.24638e-09 1.24007e-09 1.26579e-11 -4.67219e-10 0.5 -5.58982e-09 -3.87643e-09 -9.66102e-09 4.24194e-10 -3.24876e-09 -1.88166e-09 
4 1 3.72174 1.12777 1.95711 0 0 0 3.17232e-10 -4.08079e-09 -1.71859e-09 -2.71948e-10 3.54403e-09 1.3962e-09 2.00333e-09 -1.56115e-10 1.99296e-10 0.5 -7.12055e-10 -1.23103e-09 -6.99369e-09 -1.23523e-09 1.07109e-09 3.4117e-09 
609 2 1.99624 4.76004 0.136921 0 0 1 4.27379e-10 -2.18866e-09 6.72692e-09 -2.92925e-10 1.89509e-09 -5.79401e-09 1.00375e-09 -6.46571e-10 1.09258e-09 0.5 -1.10345e-08 -3.39578e-08 -4.64962e-09 9.63047e-09 2.19968e-09 -7.27805e-09 
117 1 3.12746 1.31374 1.15363 0 1 0 6.39224e-10 -2.02389e-09 -1.21563e-09 -5.69686e-10 1.74572e-09 1.00666e-09 2.59806e-09 -5.38872e-11 2.08046e-10 0.5 4.47982e-10 -1.82247e-09 -3.95598e-10 1.15126e-09 -2.69455e-11 1.3897e-09 
511 2 1.08079 2.25054 0.230642 0 0 0 -1.39824e-09 1.95776e-09 -9.41096e-11 1.18075e-09 -1.7549e-09 1.67047e-10 4.50076e-09 -1.01447e-09 -8.80723e-10 0.5 -1.78142e-09 -5.39275e-09 -1.21876e-08 1.1462e-09 5.15009e-09 -3.66572e-09 
911 2 0.492018 0.563612 0.697612 1 0 0 -9.55303e-10 -3.59294e-09 -6.49232e-09 8.08089e-10 2.99475e-09 5.74268e-09 5.01806e-10 -9.20298e-10 2.87608e-10 0.5 1.42675e-09 -6.20242e-09 -3.43414e-11 -6.14507e-10 4.90077e-10 -2.4546e-09 
668 2 0.00216515 3.81975 1.93315 0 0 0 -8.79977e-10 -1.11992e-08 4.90124e-09 6.86595e-10 9.53399e-09 -4.12603e-09 1.15506e-09 8.82367e-10 -1.00593e-09 0.5 -8.85873e-09 -2.1367e-08 -9.00778e-09 6.4786e-09 -2.54989e-09 -1.83934e-10 
90 1 2.93989 4.58015 0.420403 0 0 1 3.89023e-10 -1.27774e-09 7.10532e-09 -2.35921e-10 1.14566e-09 -6.20493e-09 1.03839e-09 -2.59803e-10 1.24226e-09 0.5 -2.62449e-09 2.14178e-09 -7.14129e-10 4.78468e-09 2.47895e-09 8.04807e-10 
734 2 4.13742 3.24508 0.37494 0 1 1 1.55348e-09 1.48023e-09 6.22179e-09 -1.30789e-09 -1.21806e-09 -5.42671e-09 2.8645e-09 3.54127e-10 4.25444e-10 0.5 -2.39783e-09 -1.5973e-09 -6.20119e-11 1.63221e-09 8.32505e-10 -1.32309e-09 
672 2 0.0675425 1.98557 1.68985 0 0 0 -4.7567e-09 -8.97723e-09 -2.7371e-09 4.06239e-09 7.64953e-09 2.48772e-09 2.94362e-09 -5.56128e-10 1.0614e-09 0.5 -1.00129e-08 -2.08776e-08 -7.73501e-09 8.20057e-09 5.46728e-09 -7.39166e-11 
759 2 4.95866 2.03867 0.950748 0 0 0 8.20778e-10 -1.047e-09 1.93938e-09 -7.39128e-10 9.92938e-10 -1.72429e-09 2.63464e-09 -4.55226e-10 -7.28196e-10 0.5 -5.03545e-10 -7.02845e-09 -3.40065e-09 -1.04867e-09 -6.20698e-10 -8.22587e-10 
21 1 1.84566 0.35675 2.43115 0 0 0 -1.33655e-09 -6.32313e-09 -5.09937e-09 1.16617e-09 5.43653e-09 4.44496e-09 1.24529e-09 -1.10538e-09 1.93149e-09 0.5 -3.68748e-13 -3.36188e-10 -9.01e-11 3.95822e-10 1.50011e-10 -5.29715e-10 
682 2 2.73058 4.0836 2.7725 0 0 0 1.14923e-09 -4.04083e-09 4.28718e-09 -9.98035e-10 3.49873e-09 -3.72328e-09 -8.13964e-11 2.36334e-10 6.02491e-10 0.5 -6.16591e-09 -3.67835e-09 -6.47083e-10 4.15149e-09 2.49072e-09 4.60604e-09 
907 2 0.982097 4.62503 2.63573 1 0 0 7.19692e-10 -9.2685e-09 5.30219e-09 -6.11714e-10 7.87425e-09 -4.4861e-09 4.23052e-10 -8.89564e-10 5.27436e-10 0.5 -6.76686e-09 -7.92023e-09 -9.19909e-09 3.28911e-09 3.83513e-09 -2.81077e-09 
144 1 1.68507 3.60062 2.81087 0 0 0 1.34261e-09 -7.92658e-09 9.66982e-10 -1.20862e-09 6.77233e-09 -8.13869e-10 -2.31157e-10 6.37813e-10 2.04247e-10 0.5 -4.62388e-09 -1.14538e-09 -1.81096e-09 2.69448e-09 -1.1611e-09 6.4293e-11 
675 2 2.83107 4.7385 3.54541 0 0 0 -1.91765e-10 -2.59244e-09 4.30533e-09 3.20369e-11 2.31119e-09 -3.75272e-09 -1.02195e-09 7.75438e-10 -9.52767e-11 0.5 3.28326e-10 1.44075e-09 2.9065e-09 1.40585e-09 -6.30062e-10 2.51364e-09 
502 2 4.38953 1.31124 3.26921 0 0 0 -6.5207e-10 -2.75938e-09 -1.39742e-09 4.56797e-10 2.47103e-09 1.12619e-09 4.62005e-10 3.9482e-11 -2.37442e-10 0.5 -4.7193e-09 -2.3091e-09 -3.05943e-09 -2.37726e-09 2.1462e-09 4.93909e-09 
27 1 2.60908 0.300739 3.21066 0 0 0 -3.83242e-10 -5.0831e-09 -3.59462e-09 2.15017e-10 4.3732e-09 3.09712e-09 3.27968e-11 -7.44392e-10 9.80162e-10 0.5 -4.29465e-09 -5.48612e-09 -1.01685e-08 2.22583e-09 3.32877e-09 9.024e-10 
965 2 1.35576 3.65812 3.79896 1 0 0 2.00307e-09 -9.5792e-09 3.06382e-10 -1.75739e-09 8.13351e-09 -2.12959e-10 -5.56356e-10 1.59899e-09 -1.25629e-09 0.5 -1.79575e-09 -5.50957e-09 -5.95936e-09 3.2083e-09 -2.09662e-09 3.73562e-09 
61 1 1.66165 0.448609 3.51352 0 0 0 -1.67094e-09 -8.21488e-09 -6.66921e-09 1.37401e-09 6.96166e-09 5.83246e-09 2.96655e-10 -2.35652e-10 1.5537e-09 0.5 -2.99917e-09 -1.37348e-10 -6.07662e-10 7.6567e-10 1.91252e-09 -2.16561e-10 
680 2 1.1901 2.78151 3.34693 0 0 0 -1.96359e-09 -8.6958e-09 7.32603e-11 1.62748e-09 7.37964e-09 -2.80131e-11 3.45476e-10 8.3939e-10 -2.08018e-10 0.5 1.83109e-10 -1.85076e-09 -2.73966e-09 4.49317e-10 1.10725e-09 7.98229e-10 
251 1 4.71421 3.03382 3.89556 0 0 0 2.16358e-09 -3.59289e-09 3.6133e-09 -1.97635e-09 3.1712e-09 -3.17956e-09 1.59155e-09 1.16383e-09 -1.72466e-09 0.5 -5.48998e-09 -1.04498e-09 2.01326e-10 -3.73752e-09 1.71385e-09 3.21601e-09 
517 2 4.0089 2.89361 2.21821 0 0 0 1.3661e-09 -3.25667e-09 3.4801e-09 -1.17097e-09 2.92422e-09 -3.04005e-09 6.69819e-10 4.79922e-11 -2.25513e-10 0.5 -7.76938e-11 -4.09406e-11 -1.9083e-09 -3.46127e-11 -4.18015e-10 9.42181e-10 
6 1 3.42179 1.77987 2.73262 0 0 0 -8.41733e-10 -3.25517e-09 1.71451e-09 6.65658e-10 2.83614e-09 -1.53864e-09 1.88082e-09 -2.14244e-10 1.27684e-09 0.5 -5.597e-09 1.40431e-09 8.91597e-10 2.46084e-09 2.59925e-09 1.7913e-09 
519 2 4.43345 3.61408 3.03093 0 0 0 7.79303e-10 -2.07298e-09 5.2348e-09 -7.09901e-10 1.9088e-09 -4.58213e-09 6.33669e-10 4.0959e-10 -2.1282e-10 0.5 3.60037e-10 3.01368e-09 2.12331e-09 -2.08157e-09 -8.78973e-10 1.59602e-09 
509 2 1.93621 1.51608 3.62332 0 0 0 1.50409e-09 -7.59458e-09 -5.59866e-09 -1.37982e-09 6.41953e-09 4.9188e-09 -4.49714e-10 2.4888e-09 -3.35816e-11 0.5 7.14471e-10 -8.20259e-10 -6.44279e-09 -8.17725e-10 1.401e-09 1.82767e-09 
142 1 1.03537 1.94217 2.17003 0 0 0 -2.90634e-09 -7.20741e-09 -2.13916e-09 2.42938e-09 6.12338e-09 1.93263e-09 2.57378e-09 4.19049e-11 5.09835e-10 0.5 -1.90423e-10 -1.40586e-09 -1.56478e-09 2.26236e-09 -9.714e-10 1.90893e-09 
941 2 0.192203 2.2584 2.77344 1 0 0 -3.97454e-09 -1.04119e-08 -1.73255e-09 3.36692e-09 8.88791e-09 1.58919e-09 1.56671e-09 2.13039e-10 4.46044e-10 0.5 -1.2752e-09 -4.20255e-09 -5.80197e-09 2.23871e-10 7.31119e-10 4.18741e-10 
919 2 0.650389 4.31552 3.53385 1 0 0 -7.06086e-11 -1.02185e-08 4.23193e-09 1.49466e-11 8.6963e-09 -3.56168e-09 1.36034e-09 5.74191e-10 -1.6236e-09 0.5 -4.17906e-09 -7.33974e-09 -4.21153e-09 4.11729e-09 -9.20375e-11 2.61344e-09 
95 1 3.53903 3.77814 2.2694 0 0 1 1.68466e-09 -3.1441e-09 4.60112e-09 -1.46222e-09 2.82012e-09 -4.02718e-09 9.03615e-11 7.03816e-11 2.66971e-10 0.5 -2.70648e-09 -8.97094e-10 -5.16945e-09 6.48917e-10 1.60189e-09 -6.92941e-10 
458 1 1.5569 4.7536 3.86468 1 0 0 4.33338e-10 -7.04818e-09 6.00522e-09 -4.53484e-10 5.97263e-09 -5.15928e-09 -1.25993e-09 3.00139e-10 4.63174e-10 0.5 -2.89638e-09 -1.80952e-09 -1.70864e-09 2.40309e-09 -4.98004e-10 -6.39568e-11 
41 1 1.14045 0.960462 2.01108 0 0 0 -2.05009e-09 -6.71834e-09 -4.47709e-09 1.70375e-09 5.70195e-09 3.97767e-09 2.27435e-09 -3.38489e-10 1.19999e-09 0.5 -2.22909e-09 -1.98184e-09 -5.36458e-09 1.34533e-09 3.28592e-09 -1.77864e-09 
814 2 0.27112 1.22753 3.40348 1 0 0 -6.48613e-10 -8.5988e-09 -3.75172e-09 4.69186e-10 7.298e-09 3.36604e-09 1.24502e-09 -7.60197e-10 2.30173e-09 0.5 -4.39117e-09 -4.59376e-09 -5.38691e-09 1.79515e-09 3.91656e-09 5.73033e-09 
130 1 1.70518 2.6475 2.50033 0 0 0 -2.18343e-09 -7.58613e-09 -2.38748e-10 1.82844e-09 6.46527e-09 2.77714e-10 2.06815e-09 -8.27863e-10 -9.12981e-10 0.5 -1.25009e-09 -5.70089e-09 -5.03863e-09 2.92393e-09 1.87386e-09 3.70229e-09 
12 1 2.70258 1.09575 2.61132 0 0 0 8.29205e-10 -4.29053e-09 -2.35699e-09 -7.64009e-10 3.66436e-09 2.0058e-09 1.27339e-09 -1.51455e-09 1.35729e-09 0.5 -7.03963e-09 -8.34072e-09 -5.78211e-09 4.7171e-09 2.64341e-09 2.68314e-10 
512 2 3.18635 2.03167 3.78747 0 0 0 6.099e-10 -1.06698e-09 2.28436e-09 -6.5027e-10 8.99496e-10 -1.93828e-09 1.51254e-09 -3.52156e-10 1.03404e-09 0.5 -1.6081e-09 -3.09523e-09 -2.78906e-09 6.45605e-10 -6.65235e-10 3.31027e-09 
151 1 2.47925 3.30049 3.34132 0 0 0 9.83365e-10 -4.77417e-09 3.20699e-09 -8.5353e-10 4.14819e-09 -2.76511e-09 -5.37901e-10 -4.99199e-10 3.35964e-10 0.5 -2.09115e-09 -7.42531e-09 -7.03335e-09 1.89309e-09 1.53598e-09 1.91402e-09 
667 2 0.284319 1.3208 2.4071 0 0 0 -2.05269e-09 -8.87462e-09 -3.70906e-09 1.71352e-09 7.55039e-09 3.32867e-09 1.48585e-09 4.55561e-10 1.34606e-09 0.5 -2.57881e-09 -1.19035e-08 -9.18512e-09 6.90525e-10 -8.50446e-11 1.17936e-09 
38 1 3.79042 0.738149 3.87284 0 0 0 1.84187e-10 -5.91486e-10 -1.87998e-09 -2.81535e-10 5.66268e-10 1.54352e-09 -1.57446e-09 -4.56433e-10 1.45491e-10 0.5 -4.37308e-09 -1.37535e-09 -1.11623e-08 -4.97548e-09 2.50989e-09 8.11267e-09 
936 2 0.319906 3.36948 3.50683 1 0 0 -3.6894e-09 -8.83325e-09 1.67033e-09 3.11073e-09 7.50554e-09 -1.33415e-09 1.48888e-09 -1.24399e-09 -8.99368e-10 0.5 3.73053e-10 -8.92392e-09 -3.65244e-09 1.36382e-10 4.21208e-09 5.7125e-09 
531 2 4.80013 0.808197 2.48028 0 0 0 -1.74422e-09 -4.78385e-09 -1.25582e-09 1.44091e-09 4.22247e-09 1.01947e-09 1.45322e-10 -2.17424e-10 -7.70614e-10 0.5 -1.61229e-09 1.4116e-10 -3.32524e-09 -1.97768e-09 -3.14441e-09 -1.62345e-09 
527 2 4.03024 4.31517 3.61908 0 0 0 1.41467e-09 -2.28636e-09 5.99401e-09 -1.28191e-09 2.06774e-09 -5.2322e-09 -7.88962e-10 -1.57899e-11 2.71249e-10 0.5 -2.42404e-10 5.88393e-10 2.37229e-09 -1.5619e-09 -9.49961e-10 3.10691e-09 
383 1 4.36293 4.34454 2.28892 0 0 1 6.03872e-10 -1.56632e-09 4.45959e-09 -4.96595e-10 1.44833e-09 -3.93208e-09 2.48981e-10 -4.66612e-10 2.61616e-11 0.5 -2.77755e-09 -5.42489e-10 1.53327e-09 2.49075e-09 -6.9067e-10 -1.2658e-09 
992 2 0.695682 0.439322 3.85269 1 1 0 -3.37519e-10 -9.12836e-09 -5.35448e-09 2.13161e-10 7.74464e-09 4.70603e-09 3.47609e-10 1.38166e-09 8.66856e-10 0.5 -3.60682e-09 -9.00746e-09 -2.04676e-09 2.63606e-09 -1.28009e-09 4.70342e-09 
521 2 4.93615 4.52796 3.25037 0 0 0 8.28289e-10 -1.70382e-09 4.89242e-09 -7.90678e-10 1.53509e-09 -4.30289e-09 -5.71693e-10 3.36275e-10 2.66961e-10 0.5 7.69358e-10 -2.33953e-09 -2.49237e-09 -1.13767e-11 -4.17361e-10 2.94678e-09 
136 1 1.88498 1.67143 2.62265 0 0 0 -1.871e-09 -8.07698e-09 -4.60039e-09 1.53691e-09 6.88877e-09 4.06953e-09 8.95774e-10 1.28521e-09 9.66919e-10 0.5 -8.14123e-09 -8.33136e-09 -5.41912e-09 5.82642e-09 -7.96848e-10 2.44774e-09 
540 2 4.51129 0.178592 3.415 0 0 0 -5.77601e-10 -2.86557e-09 -2.25458e-09 3.98048e-10 2.57846e-09 1.84081e-09 -1.26864e-09 7.11136e-10 -9.39623e-10 0.5 2.50383e-09 1.59129e-09 4.1752e-10 -1.5059e-09 -1.03436e-09 1.47873e-09 
510 2 3.85504 2.56842 3.17077 0 0 0 -1.09655e-09 -3.50322e-09 2.54422e-09 8.33583e-10 3.07588e-09 -2.27748e-09 3.12242e-10 -1.88056e-10 5.42066e-11 0.5 2.21973e-09 3.28535e-09 -2.05877e-09 6.35132e-10 3.51046e-10 2.79154e-09 
19 1 4.3655 1.84749 2.40882 0 0 0 -1.37704e-09 -3.96662e-10 7.46324e-10 1.05476e-09 4.01597e-10 -7.26884e-10 7.52772e-10 2.08511e-10 1.92622e-10 0.5 -8.138e-09 -3.35132e-10 -4.27842e-09 4.31648e-10 3.6251e-09 7.9071e-10 
543 2 1.07326 1.78713 3.19513 0 0 0 -3.85417e-10 -8.47623e-09 -2.41215e-09 2.56851e-10 7.18503e-09 2.17161e-09 1.79721e-09 1.63305e-09 6.14703e-10 0.5 -7.20175e-10 -1.08095e-09 -4.1174e-10 -1.5687e-09 1.31023e-09 7.67742e-10 
773 2 4.78774 2.22773 3.30763 0 0 0 -7.48169e-10 -2.86687e-09 2.16758e-09 5.36427e-10 2.54498e-09 -1.93686e-09 7.3575e-10 7.63259e-10 -5.99565e-10 0.5 4.25389e-10 -6.49206e-09 -1.25053e-08 -1.11372e-09 2.45824e-09 1.27457e-08 
555 2 2.23907 2.5056 3.89852 0 0 0 5.41704e-10 -4.15253e-09 3.90454e-09 -5.74896e-10 3.64694e-09 -3.36738e-09 -5.30564e-10 -1.38889e-10 4.72811e-10 0.5 1.85967e-09 2.24747e-09 2.29303e-09 1.03351e-09 6.18178e-11 2.50892e-09 
429 1 0.306925 2.40106 3.75655 1 0 0 -2.94234e-09 -9.64366e-09 -1.96328e-09 2.46308e-09 8.20186e-09 1.79578e-09 9.7196e-10 4.03781e-10 1.75969e-09 0.5 -1.69742e-09 -1.44327e-08 -8.24012e-09 3.34979e-09 -2.18489e-09 7.98007e-09 
316 1 0.889712 0.512877 2.86992 1 0 0 -2.53532e-09 -8.90955e-09 -5.79189e-09 2.11376e-09 7.5637e-09 5.08833e-09 1.02951e-09 1.65085e-10 1.40069e-09 0.5 7.02687e-10 -1.73645e-09 -1.3566e-09 5.90631e-10 4.24019e-10 1.71985e-09 
503 2 3.61689 0.768796 2.88623 0 0 0 4.41166e-10 -4.12894e-09 -1.85168e-09 -4.06868e-10 3.58154e-09 1.51474e-09 -2.10015e-10 -3.49909e-10 7.72657e-10 0.5 -1.7444e-09 1.45672e-10 -8.72678e-09 4.36305e-10 -8.2182e-10 2.47553e-09 
896 2 0.702247 3.66501 2.63024 1 0 0 8.42235e-10 -9.29483e-09 3.59813e-09 -7.9068e-10 7.91209e-09 -2.99459e-09 1.08816e-09 5.04665e-10 -4.77907e-10 0.5 -6.17184e-09 -2.97015e-09 -9.35854e-09 1.68801e-09 -3.34072e-09 2.77491e-09 
690 2 1.93672 4.67095 2.92999 0 0 0 3.11913e-10 -5.64548e-09 6.06263e-09 -2.98976e-10 4.84909e-09 -5.18597e-09 -1.15898e-10 3.64488e-10 1.54083e-09 0.5 -6.58075e-09 -3.28349e-09 -1.38006e-09 4.37679e-09 -9.51119e-11 -7.25468e-10 
641 2 3.45948 3.5005 3.22725 0 0 0 7.12629e-10 -2.38351e-09 4.70807e-09 -6.42005e-10 2.13918e-09 -4.12936e-09 -4.91126e-10 -1.14434e-10 6.04136e-10 0.5 -7.81786e-10 8.17281e-10 -4.19853e-09 1.19664e-09 -2.2034e-09 5.20353e-09 
528 2 3.34275 4.80215 2.44243 0 0 0 1.43195e-09 -4.25702e-09 4.33996e-09 -1.28945e-09 3.69992e-09 -3.81138e-09 -8.32957e-11 1.47492e-10 2.67197e-10 0.5 -4.84061e-10 -9.02648e-10 -1.96011e-09 -8.88342e-10 -3.87662e-10 -5.57799e-10 
225 1 2.66658 2.37982 2.99794 0 0 1 -1.90474e-09 -5.08816e-09 2.67537e-09 1.57127e-09 4.39718e-09 -2.28603e-09 -4.21248e-10 1.03648e-09 4.92828e-10 0.5 -2.12219e-09 -5.41604e-09 -5.69158e-10 3.26932e-09 -1.76611e-09 4.11443e-12 
119 1 0.614476 2.84343 2.06694 0 0 0 -4.00758e-09 -7.33399e-09 1.49313e-09 3.38651e-09 6.23365e-09 -1.20819e-09 2.46851e-09 2.86608e-10 -6.71238e-11 0.5 1.1371e-09 -3.63546e-09 -6.31294e-09 1.27821e-09 2.42554e-09 2.50705e-10 
94 1 2.46189 3.50067 2.00487 0 0 1 -2.92434e-10 -5.44307e-09 5.80325e-09 2.29091e-10 4.6802e-09 -5.00139e-09 9.51588e-10 -2.358e-10 3.16873e-10 0.5 1.32781e-09 1.87409e-09 6.75373e-10 1.69025e-09 1.36792e-09 2.17077e-09 
522 2 2.58373 2.50801 2.00903 0 0 0 -8.66926e-10 -5.53853e-09 2.53598e-09 7.16279e-10 4.76289e-09 -2.16581e-09 1.90297e-09 -6.94309e-10 7.57026e-10 0.5 5.02582e-10 5.08295e-10 -2.17811e-09 1.72949e-09 1.68993e-09 6.27241e-10 
200 1 2.46549 0.208501 4.19599 0 1 0 1.72303e-09 -3.04363e-09 -3.09466e-09 -1.63021e-09 2.56651e-09 2.65531e-09 -1.84907e-09 -1.2949e-09 3.06663e-09 0.5 -4.38442e-09 -2.36501e-09 -7.92557e-09 1.3738e-09 2.83595e-09 2.11219e-09 
114 1 4.70709 1.00384 4.17137 0 0 0 -1.06002e-10 -6.89069e-10 -8.92562e-10 -2.09795e-11 6.92196e-10 7.20608e-10 -6.59361e-10 -4.45029e-10 -7.0896e-10 0.5 -2.80655e-09 3.52044e-11 -7.56804e-10 -3.43306e-10 -1.81642e-09 -1.22821e-10 
820 2 1.30996 2.29325 4.21136 1 0 0 3.04588e-11 -6.56758e-09 9.97924e-10 -8.85103e-11 5.56709e-09 -7.84481e-10 -1.15017e-09 -7.68615e-10 1.85754e-09 0.5 8.32998e-10 1.88814e-09 -1.87401e-09 5.8892e-09 1.36432e-09 3.16075e-09 
47 1 4.65574 1.582 5.43553 0 0 0 1.73702e-09 5.6415e-10 5.60205e-10 -1.66409e-09 -3.68609e-10 -5.46797e-10 2.22164e-10 1.12154e-09 5.03232e-10 0.5 -2.95911e-09 -4.97882e-09 -2.02912e-09 -1.21908e-09 -2.45403e-09 4.16599e-09 
824 2 1.64908 3.83184 5.79238 1 0 0 6.23377e-10 1.9089e-09 6.13646e-09 -5.48764e-10 -1.62729e-09 -5.23161e-09 -1.52392e-09 1.81969e-10 -5.01311e-10 0.5 -9.74838e-10 -7.9047e-10 -3.4591e-09 -1.83663e-10 -3.44771e-11 1.23116e-09 
172 1 3.44268 0.338821 4.72114 0 1 0 -3.86748e-10 2.40554e-09 -6.99088e-10 1.42033e-10 -2.06434e-09 5.03778e-10 -2.13125e-09 -5.73266e-10 1.02535e-09 0.5 -3.99783e-09 -4.20044e-09 -1.45785e-08 -3.516e-09 3.54644e-09 6.07494e-09 
718 2 0.202285 2.03673 5.5128 0 1 0 -7.52355e-10 -2.7153e-09 1.69838e-09 5.4057e-10 2.24235e-09 -1.36102e-09 -1.59614e-09 -6.93814e-10 -2.44662e-10 0.5 -6.96602e-09 -1.62987e-09 -4.56975e-09 3.35508e-09 -3.54115e-09 9.52722e-09 
505 2 0.484433 3.5018 5.83385 0 0 -1 -7.39861e-10 2.43038e-09 4.74164e-09 6.10012e-10 -2.22874e-09 -4.01277e-09 3.356e-10 -8.07637e-10 2.13914e-09 0.5 -1.2089e-12 -1.20678e-08 -6.24028e-09 7.48307e-10 -1.69305e-10 1.00377e-08 
524 2 3.99535 2.7352 5.70679 0 0 0 4.93773e-09 6.34241e-09 6.88033e-09 -4.45771e-09 -5.32433e-09 -6.0701e-09 -1.63208e-09 4.64058e-09 2.28493e-09 0.5 1.28057e-10 1.11331e-09 1.32139e-09 -9.54964e-10 -1.07538e-09 1.15109e-09 
839 2 0.579387 1.61472 4.31101 1 0 0 1.35489e-09 -8.74611e-09 -2.79477e-09 -1.22941e-09 7.43867e-09 2.55606e-09 -5.82841e-10 4.61799e-11 1.83436e-09 0.5 -6.1981e-10 -9.29397e-09 -5.54538e-09 6.50592e-09 -5.51874e-10 9.89314e-09 
937 2 2.44361 3.38654 4.3372 1 0 0 1.17516e-09 -3.4609e-09 3.02618e-09 -1.06447e-09 3.03998e-09 -2.61369e-09 -1.2367e-09 -7.5137e-10 1.52605e-09 0.5 2.80353e-09 2.98937e-09 -6.30652e-09 4.25182e-09 3.05358e-10 2.9601e-09 
811 2 2.60623 3.94632 5.52498 1 0 0 -1.13499e-11 1.84401e-09 3.86461e-09 -2.06231e-11 -1.51855e-09 -3.31651e-09 -1.49278e-09 -8.13846e-10 9.57143e-12 0.5 -6.62401e-10 -2.7068e-09 -9.15954e-10 -1.12063e-09 -1.13275e-09 2.86795e-09 
827 2 1.52088 3.18133 4.66349 1 0 0 1.47034e-09 -6.62204e-09 1.93216e-09 -1.26102e-09 5.62492e-09 -1.61755e-09 -2.13702e-09 -1.05975e-09 7.23567e-11 0.5 1.68765e-09 -4.23841e-10 -5.16013e-09 5.40963e-10 4.32505e-10 4.16791e-09 
149 1 4.05563 3.93275 4.61881 0 0 0 2.37263e-10 1.06338e-09 5.10798e-09 -3.08747e-10 -8.20183e-10 -4.46716e-09 -7.88563e-10 3.22031e-10 1.29032e-09 0.5 -2.66184e-09 -2.41326e-09 1.76551e-09 7.69289e-09 -4.81609e-09 2.19639e-09 
925 2 0.623246 3.59905 4.52293 1 0 0 2.25346e-09 -5.25475e-09 8.25e-10 -1.97141e-09 4.37865e-09 -6.46091e-10 -1.96135e-09 8.3113e-10 -3.392e-10 0.5 1.90695e-09 -3.2503e-09 -8.92519e-10 -7.9698e-10 -5.92081e-10 1.66567e-09 
168 1 3.33522 4.60361 5.33159 0 0 0 4.96129e-10 1.63763e-09 5.25962e-09 -4.89862e-10 -1.32655e-09 -4.60831e-09 -1.29455e-09 -7.66849e-10 1.19107e-09 0.5 -4.03995e-09 -3.18724e-09 -3.3474e-09 1.2596e-09 -2.1872e-09 2.69804e-09 
928 2 1.57471 4.4088 4.9787 1 0 0 1.07171e-09 1.28768e-09 5.71237e-09 -9.20701e-10 -1.06362e-09 -4.85202e-09 -9.42221e-10 3.1249e-10 -8.87657e-10 0.5 -1.67039e-09 -2.095e-09 -2.16882e-09 -1.03398e-09 1.13708e-10 1.90777e-09 
148 1 3.93983 3.74234 5.7457 0 0 0 -5.01598e-10 6.13879e-09 7.32151e-09 3.40942e-10 -5.14793e-09 -6.37752e-09 -1.78272e-09 -6.16753e-10 3.20107e-09 0.5 1.83194e-09 3.63227e-09 4.4864e-09 2.68465e-09 3.09612e-09 2.68288e-09 
914 2 4.69244 4.38506 5.24423 0 0 0 -1.94748e-09 3.64514e-09 5.5142e-09 1.59027e-09 -2.97263e-09 -4.88505e-09 -2.6957e-09 -6.40496e-10 -1.93974e-10 0.5 -1.2387e-10 9.52154e-10 1.64493e-09 3.04066e-10 5.59233e-10 1.03995e-09 
23 1 2.87773 1.11847 4.05716 0 0 0 -5.24964e-10 -2.09389e-09 -2.67666e-09 3.05273e-10 1.78122e-09 2.30559e-09 7.54331e-10 -3.53578e-11 7.781e-10 0.5 -3.42341e-09 -3.25532e-09 -2.74716e-09 -1.17702e-09 1.71235e-09 2.59037e-09 
594 2 2.05586 1.97089 4.80241 0 0 0 1.33119e-09 8.0389e-10 2.97228e-09 -1.23392e-09 -7.40981e-10 -2.45347e-09 7.50732e-10 -8.86688e-10 2.51837e-09 0.5 4.00665e-11 -4.29706e-09 -9.18839e-10 3.37852e-09 -1.64319e-09 2.62661e-09 
539 2 3.78455 1.04074 5.46912 0 0 0 5.78103e-10 4.89402e-09 1.56053e-09 -6.52069e-10 -4.1517e-09 -1.44346e-09 -8.59626e-10 1.57134e-09 -3.40442e-10 0.5 -1.47623e-09 -1.41762e-08 -6.16199e-09 -4.49282e-09 -3.86245e-09 1.19647e-08 
730 2 0.461765 1.11568 5.16957 0 1 0 -1.72596e-10 -2.96002e-09 3.62162e-10 2.41697e-11 2.46368e-09 -2.33256e-10 -7.16792e-10 -4.13008e-10 2.41391e-09 0.5 3.88084e-09 -6.81756e-10 -3.27882e-09 7.38278e-10 -9.23249e-10 6.82861e-09 
689 2 3.51933 0.103669 5.69619 0 1 0 -5.16483e-10 4.60808e-09 -8.80606e-10 2.96318e-10 -3.90693e-09 6.56366e-10 -5.21657e-10 -5.44461e-10 -7.72864e-11 0.5 -5.82069e-09 -1.73491e-08 -1.50165e-08 -1.91541e-09 4.48852e-10 1.30162e-08 
450 1 0.619288 4.79871 4.46892 1 0 0 5.33075e-09 -3.86563e-09 4.00522e-09 -4.59362e-09 3.24889e-09 -3.34383e-09 -3.80183e-09 -9.40567e-10 6.84989e-10 0.5 -1.848e-09 -5.18012e-09 -1.11669e-08 4.58251e-10 -1.96843e-09 6.18338e-09 
549 2 4.49944 0.500888 5.01435 0 0 0 -2.30149e-09 1.58128e-09 6.01328e-12 1.83816e-09 -1.2917e-09 -9.55671e-11 -6.04259e-10 6.15039e-10 -1.56365e-09 0.5 4.49172e-09 5.90257e-09 2.76268e-09 -2.68836e-09 -1.60962e-09 2.84978e-09 
591 2 1.44655 1.12499 4.40334 0 0 0 2.67948e-09 -6.57499e-09 -4.43606e-09 -2.3866e-09 5.54018e-09 3.91859e-09 -1.12114e-09 1.22783e-09 2.20265e-10 0.5 -3.63308e-09 -5.5974e-09 -4.34105e-09 1.44472e-09 4.87894e-10 4.2897e-09 
243 1 1.20287 1.83742 5.34381 0 1 0 -1.0684e-09 -1.37223e-10 -2.33024e-10 7.97571e-10 3.84083e-11 2.43124e-10 -6.1272e-10 -4.59287e-10 1.33393e-09 0.5 -2.01216e-09 -2.18814e-09 -8.76113e-10 2.86604e-09 -1.02305e-09 3.19335e-09 