ITEM: TIMESTEP
161500
ITEM: NUMBER OF ATOMS
1000
ITEM: BOX BOUNDS xy xz yz pp pp pp
0.0000000000000000e+00 1.0000000000000000e+01 0.0000000000000000e+00
0.0000000000000000e+00 1.0000000000000000e+01 0.0000000000000000e+00
0.0000000000000000e+00 1.0000000000000000e+01 0.0000000000000000e+00
ITEM: ATOMS id type x y z ix iy iz vx vy vz fx fy fz omegax omegay omegaz radius c_2[1] c_2[2] c_2[3] c_2[4] c_2[5] c_2[6] 
120 1 3.15852 1.54146 0.0722916 0 1 0 -9.47127e-07 2.05681e-06 1.45676e-06 8.59084e-07 -1.7994e-06 -1.27321e-06 1.21825e-06 -2.81132e-08 -8.0409e-07 0.5 -1.05161e-06 -5.26999e-06 -4.57192e-07 -5.95844e-07 -1.74987e-07 -1.20516e-06 
525 2 2.11627 1.23431 1.69988 0 0 0 -1.41658e-06 -4.45407e-06 -3.7333e-06 1.14969e-06 3.78328e-06 3.30529e-06 -5.41225e-07 6.74731e-08 1.23932e-06 0.5 3.28783e-08 -3.32618e-07 1.89426e-07 4.08377e-07 2.65655e-07 -1.83306e-07 
371 1 4.95931 3.68326 1.58374 0 0 1 1.04645e-06 -2.25957e-06 3.2396e-06 -9.04808e-07 2.01163e-06 -2.85049e-06 2.69581e-07 -1.17319e-07 1.70005e-07 0.5 -5.18998e-07 -2.69233e-06 1.96985e-06 -3.14395e-07 -2.77911e-07 3.36931e-07 
18 1 1.98117 2.69195 0.532516 0 0 0 -6.9362e-07 1.18744e-08 3.21649e-06 5.62973e-07 -3.50691e-08 -2.77501e-06 1.99315e-06 -7.16724e-07 6.09828e-07 0.5 -1.19796e-06 -3.86102e-06 -2.24011e-06 3.03725e-06 1.77729e-06 -1.96331e-06 
868 2 2.87004 3.00634 0.0289103 0 0 1 3.04399e-07 -3.34076e-07 2.98074e-06 -2.21377e-07 2.59866e-07 -2.60296e-06 1.70653e-06 -3.32602e-07 6.81638e-07 0.5 -2.24331e-06 -3.85296e-06 -6.27992e-07 2.84185e-06 1.47514e-07 5.57277e-08 
25 1 1.41548 0.708705 1.0832 0 0 0 -6.41542e-07 -1.25772e-06 -3.95667e-06 5.3264e-07 1.01006e-06 3.52879e-06 1.4828e-06 -3.6654e-07 7.28205e-07 0.5 -1.4737e-06 -9.04331e-06 -4.85957e-06 3.14041e-06 2.61558e-06 -3.80097e-06 
378 1 4.61919 2.40719 0.0725801 0 0 1 9.65928e-08 1.07626e-06 2.48475e-06 -7.2661e-08 -8.98277e-07 -2.19953e-06 1.97851e-06 5.39098e-07 -3.46699e-07 0.5 -9.78154e-07 -2.62057e-06 -1.44767e-06 -7.00157e-07 -4.8333e-07 -2.32977e-06 
8 1 3.44143 2.06796 1.74253 0 0 0 5.92176e-08 -2.28888e-06 1.11169e-06 -7.97943e-08 1.98636e-06 -9.97846e-07 1.59685e-06 -5.06897e-07 2.45638e-07 0.5 -2.34992e-08 -3.80249e-07 5.78014e-07 7.28473e-07 4.84111e-07 4.33963e-07 
629 2 4.07713 2.6156 1.19812 0 0 1 6.84552e-07 -1.26489e-06 2.86716e-06 -6.18669e-07 1.11629e-06 -2.50043e-06 1.89668e-06 -3.97918e-07 5.65302e-09 0.5 -2.8861e-06 -1.08493e-06 -2.70558e-06 2.65298e-07 -1.55745e-06 -7.8884e-07 
5 1 2.34651 3.9005 1.05344 0 0 0 -4.95877e-07 -3.77836e-06 3.71304e-06 4.57474e-07 3.28122e-06 -3.19844e-06 8.41158e-08 2.72075e-07 7.89884e-07 0.5 -3.38059e-07 -4.92927e-07 -7.30086e-07 5.56537e-07 2.53722e-07 -1.89657e-07 
650 2 0.45913 3.43666 1.12967 0 0 0 -2.18681e-06 -3.41372e-06 2.85158e-08 1.89752e-06 2.88479e-06 9.94716e-08 2.00871e-06 3.45657e-07 4.23412e-08 0.5 -3.09439e-06 -3.59326e-06 -3.64937e-06 2.37561e-06 2.60298e-06 -1.71143e-06 
14 1 3.29515 3.13364 1.54473 0 0 0 1.88999e-07 -2.20887e-06 3.16145e-06 -1.68594e-07 1.95882e-06 -2.7455e-06 7.07309e-07 3.42866e-07 2.03044e-07 0.5 -1.57341e-07 -8.24416e-07 -1.31494e-06 9.84359e-07 -2.77438e-08 -9.14548e-07 
264 1 3.99643 3.86789 1.37953 0 0 0 1.01059e-06 -2.5067e-06 3.23299e-06 -8.75054e-07 2.21744e-06 -2.84297e-06 1.02872e-06 2.49844e-07 9.06734e-08 0.5 -8.48323e-07 -1.00066e-07 -1.77903e-06 8.89834e-07 4.33134e-07 -1.54301e-07 
223 1 0.747635 2.47805 1.14565 0 0 1 -2.08668e-06 -3.32153e-06 2.0224e-07 1.77975e-06 2.79436e-06 -9.74978e-08 2.20607e-06 -8.62951e-07 3.56236e-07 0.5 -1.86847e-06 -4.14981e-06 -1.06413e-05 1.30177e-06 4.22748e-06 -2.58962e-06 
364 1 4.4227 4.23693 0.539838 0 0 1 -7.78669e-08 8.46847e-07 4.19788e-06 1.42794e-07 -7.30085e-07 -3.66975e-06 1.18841e-06 -2.80701e-08 6.25055e-07 0.5 2.3512e-08 2.54417e-07 -2.01304e-07 3.62608e-08 8.16028e-07 -4.48205e-07 
107 1 1.66077 1.61825 0.747452 0 0 1 -1.50575e-06 -3.72865e-07 -2.13159e-06 1.26992e-06 2.50109e-07 1.95671e-06 2.23574e-06 -1.31246e-07 1.82078e-07 0.5 1.80019e-06 -2.02673e-06 -1.93533e-06 -2.10716e-07 5.90473e-08 -1.276e-06 
529 2 2.67265 2.1996 1.06195 0 0 0 2.90788e-07 -1.17284e-06 8.18774e-07 -3.05633e-07 9.84682e-07 -6.86626e-07 2.02757e-06 -9.54529e-08 4.7044e-07 0.5 -4.44249e-07 -1.17055e-06 -1.44512e-06 7.88238e-07 -1.57853e-07 1.85643e-07 
515 2 4.38643 0.43591 1.64386 0 0 0 1.94215e-07 -2.46926e-06 -1.18638e-06 -1.57908e-07 2.15785e-06 9.76692e-07 1.2017e-06 -1.48427e-08 1.03332e-07 0.5 -1.52177e-06 -1.67129e-06 -2.83708e-06 -2.54987e-06 7.75131e-07 7.24403e-07 
244 1 4.11373 0.570461 0.682725 0 1 1 2.39852e-07 3.71702e-07 -7.252e-07 -1.96476e-07 -2.86811e-07 5.81155e-07 1.75698e-06 4.92962e-07 -1.44132e-07 0.5 -1.08078e-06 -9.30923e-07 -2.49802e-06 -3.27756e-07 7.65767e-07 4.25772e-07 
20 1 2.90179 0.570819 1.78382 0 0 0 1.97163e-07 -2.10351e-06 -1.73823e-06 -1.85171e-07 1.80643e-06 1.48464e-06 7.85641e-07 -5.79198e-07 3.02989e-07 0.5 -1.8813e-06 -3.9462e-06 -5.40564e-06 6.77532e-07 2.62261e-06 -2.86197e-06 
280 1 4.09077 1.58201 1.14626 0 0 0 3.88738e-07 -8.44498e-07 3.75828e-07 -3.62294e-07 7.49621e-07 -3.7734e-07 1.81904e-06 -2.25958e-07 -6.4866e-08 0.5 -1.60024e-06 -1.4692e-06 -4.03315e-06 3.53446e-08 2.43136e-06 6.699e-07 
620 2 1.3946 4.37082 0.857652 0 0 1 -5.4948e-07 -2.41315e-06 2.46788e-06 6.00932e-07 2.07579e-06 -2.0438e-06 1.54793e-06 9.11365e-07 -5.94099e-07 0.5 -8.47844e-07 -3.8821e-06 -5.97048e-06 -1.30914e-07 -1.34686e-07 8.0776e-07 
1000 2 3.60331 2.39824 0.339817 0 1 1 1.23328e-06 5.62886e-07 2.30554e-06 -1.00813e-06 -5.05285e-07 -2.04616e-06 1.42955e-06 -2.80482e-08 -1.51858e-07 0.5 -1.96057e-06 -4.0202e-06 -2.1908e-06 -4.84445e-07 -1.67873e-06 -6.35236e-07 
103 1 3.28431 3.68319 0.698944 0 0 1 -5.44406e-11 -1.10427e-06 3.92509e-06 1.14251e-08 9.44289e-07 -3.43649e-06 1.27227e-06 8.6159e-08 6.12237e-07 0.5 -4.90678e-07 -1.5068e-07 -8.69292e-07 5.5588e-07 3.7236e-07 -3.37016e-07 
622 2 0.930663 4.80385 0.0848364 0 0 1 -5.78207e-07 4.31991e-09 3.83884e-06 6.24612e-07 -3.24912e-08 -3.23859e-06 2.14026e-06 -3.07127e-07 -8.51726e-08 0.5 -2.7703e-08 3.78983e-07 -2.61602e-06 -3.07046e-07 -1.05278e-06 5.88848e-07 
506 2 0.743561 1.45131 1.18235 0 0 0 -2.29649e-06 -3.4084e-06 -3.50143e-06 1.95586e-06 2.8711e-06 3.13633e-06 1.81522e-06 -3.4503e-07 1.10931e-06 0.5 7.84477e-07 -5.2296e-06 -7.53775e-07 6.09365e-06 1.40476e-06 -3.28394e-06 
626 2 1.28816 3.41645 0.566227 0 0 1 -2.09522e-06 -1.43888e-06 2.65182e-07 1.80701e-06 1.24314e-06 -1.25252e-07 9.03616e-07 -8.69882e-07 4.08792e-07 0.5 -2.84858e-06 -4.17876e-06 -8.25525e-07 2.11099e-06 2.06566e-06 -1.29019e-06 
553 2 0.744043 0.077402 1.56306 0 0 0 -2.58748e-07 -2.59513e-06 -5.15402e-06 1.80121e-07 2.18908e-06 4.59674e-06 1.3942e-07 -9.70836e-07 1.40379e-06 0.5 5.23509e-07 3.75041e-07 4.21605e-07 -9.6828e-08 3.58065e-07 -7.19135e-07 
135 1 1.54769 3.20472 1.67709 0 0 0 1.00594e-06 -3.50351e-06 -4.07189e-08 -9.00071e-07 3.00083e-06 1.12721e-07 1.25604e-06 -1.86674e-06 -3.23066e-07 0.5 2.32962e-07 -8.22646e-06 -1.48273e-06 1.99926e-06 8.75077e-07 -9.4985e-08 
624 2 4.32461 4.92098 1.47156 0 0 1 1.07162e-06 -1.17554e-06 3.41567e-06 -8.43004e-07 1.10694e-06 -3.02251e-06 8.35656e-07 2.09896e-07 3.52488e-07 0.5 5.94788e-07 4.56375e-07 -2.34688e-06 4.41257e-07 -1.12268e-06 -1.54567e-06 
256 1 4.58719 1.36786 0.305 0 0 0 4.40285e-07 6.04154e-07 3.63186e-08 -3.91482e-07 -4.75719e-07 -8.15968e-08 1.88426e-06 3.96617e-07 -7.19904e-07 0.5 -6.33355e-07 -1.82393e-06 -3.10571e-06 -1.24436e-06 8.8403e-07 -2.35701e-06 
260 1 3.31854 0.0700558 1.02517 0 0 0 4.52213e-07 -1.04408e-06 -2.29942e-06 -3.43091e-07 9.11489e-07 1.99039e-06 8.84231e-07 8.72661e-07 -2.99772e-07 0.5 -1.23895e-06 -3.53702e-06 -3.77289e-06 -1.86524e-07 8.26625e-07 -2.2238e-06 
616 2 3.19106 4.4806 1.50663 0 0 1 9.461e-07 -3.18618e-06 3.23265e-06 -8.43575e-07 2.77844e-06 -2.85615e-06 -1.73592e-07 2.66695e-07 3.65588e-07 0.5 -1.42235e-06 -5.48746e-07 -6.31015e-07 8.65941e-07 2.23368e-07 -3.80571e-07 
106 1 1.74522 2.23558 1.52961 0 0 1 3.22173e-07 -3.69506e-06 2.94055e-07 -3.33783e-07 3.16001e-06 -1.67624e-07 1.66049e-06 -7.04654e-07 -4.34523e-07 0.5 5.45128e-07 -4.38012e-06 -1.37799e-06 1.12789e-06 1.60817e-06 -1.45057e-06 
157 1 1.3897 4.17879 1.83903 0 0 0 1.00716e-06 -3.87274e-06 2.19119e-06 -8.48195e-07 3.327e-06 -1.80721e-06 1.48909e-06 3.45604e-07 1.47551e-07 0.5 -1.912e-06 -6.19322e-06 -6.63258e-06 1.23221e-06 2.2653e-06 -1.23404e-06 
516 2 2.34691 0.89043 0.687961 0 0 0 -2.16504e-07 7.68978e-07 -1.26849e-06 1.54411e-07 -7.31775e-07 1.15284e-06 1.47203e-07 -8.58525e-07 -1.95996e-07 0.5 4.18227e-07 -1.33476e-06 -4.46061e-07 2.78291e-07 1.34408e-06 -1.53982e-06 
183 1 0.415258 4.58221 1.00381 0 0 0 -3.84522e-07 -3.46661e-06 5.31827e-06 4.78388e-07 3.00583e-06 -4.43253e-06 3.00324e-06 1.31644e-06 2.25153e-07 0.5 1.55945e-07 -2.20774e-07 2.63754e-07 2.20956e-07 -3.86044e-07 2.57715e-07 
625 2 0.399951 3.91216 0.210012 0 0 1 -1.25002e-06 2.06359e-07 2.21073e-06 1.16638e-06 -1.7987e-07 -1.75315e-06 2.99652e-06 -2.04641e-07 -1.09967e-06 0.5 -1.62313e-07 -6.17986e-08 -6.75831e-07 -1.82994e-07 -2.48286e-07 5.55327e-07 
91 1 2.22066 4.71676 1.69645 0 0 1 1.05928e-06 -3.68764e-06 3.35377e-06 -9.26246e-07 3.20215e-06 -2.87662e-06 2.15889e-07 -1.84278e-07 -4.27904e-08 0.5 -1.69611e-06 -1.33739e-06 -5.0079e-07 -5.57317e-07 5.0976e-07 -3.25809e-07 
257 1 4.94043 2.69123 1.70827 0 0 0 6.89985e-07 -2.33667e-06 2.57497e-06 -6.1594e-07 2.07919e-06 -2.27157e-06 8.53966e-07 6.9548e-08 -2.33046e-07 0.5 -3.27788e-06 -2.37797e-06 -6.00893e-06 2.14872e-07 -1.84027e-06 -1.11244e-06 
4 1 3.72174 1.12777 1.95711 0 0 0 2.3643e-07 -2.61863e-06 -6.86183e-07 -2.1465e-07 2.27119e-06 5.41186e-07 1.2273e-06 -1.38718e-07 6.01678e-09 0.5 -7.52226e-07 -1.31201e-06 -4.22763e-06 -1.02099e-06 1.10525e-06 2.16484e-06 
609 2 1.99624 4.76004 0.136918 0 0 1 -1.3004e-07 -1.2857e-06 4.1435e-06 1.74232e-07 1.09067e-06 -3.58253e-06 7.05995e-07 -7.1388e-07 5.91312e-07 0.5 -6.98741e-06 -2.14672e-05 -3.32336e-06 5.77498e-06 2.09388e-06 -4.44524e-06 
117 1 3.12746 1.31375 1.15363 0 1 0 4.85648e-07 -1.21939e-06 -5.93042e-07 -4.3639e-07 1.03986e-06 4.91328e-07 1.61928e-06 -2.3085e-07 -4.37662e-08 0.5 1.94726e-07 -1.21221e-06 1.02453e-07 3.0348e-07 5.69369e-07 8.49454e-07 
511 2 1.08079 2.25054 0.230643 0 0 0 -7.6012e-07 1.64292e-06 -5.52063e-07 6.46191e-07 -1.49964e-06 5.60098e-07 2.89507e-06 -5.20213e-07 -6.28828e-07 0.5 -1.314e-06 -4.01275e-06 -9.86352e-06 8.59318e-07 4.18622e-06 -2.22978e-06 
911 2 0.492018 0.563613 0.697615 1 0 0 -4.96482e-07 -1.58275e-06 -4.78797e-06 4.09672e-07 1.27136e-06 4.25844e-06 3.918e-07 -5.39526e-07 -4.83798e-08 0.5 9.68836e-07 -3.89443e-06 5.36559e-08 -4.08389e-07 3.74419e-07 -1.58635e-06 
668 2 0.00216531 3.81975 1.93314 0 0 0 -1.99175e-07 -6.33915e-06 2.45696e-06 1.21315e-07 5.40256e-06 -2.02738e-06 7.08628e-07 6.64012e-07 -5.04374e-07 0.5 -4.95953e-06 -1.26318e-05 -5.23627e-06 3.78869e-06 -1.1208e-06 -3.19377e-07 
90 1 2.93989 4.58015 0.4204 0 0 1 -3.30953e-07 -9.31347e-07 4.86875e-06 3.74043e-07 8.12151e-07 -4.28452e-06 7.9516e-07 -2.67163e-07 8.09583e-07 0.5 -1.12363e-06 2.59085e-06 2.32725e-07 2.5547e-06 1.64892e-06 9.5682e-07 
734 2 4.13742 3.24508 0.374937 0 1 1 8.53002e-07 7.01614e-07 4.21169e-06 -7.30436e-07 -5.91255e-07 -3.70251e-06 1.77947e-06 2.46497e-07 1.8622e-07 0.5 -1.14573e-06 -9.67369e-07 -3.68677e-07 3.90548e-07 6.91492e-07 -5.42204e-07 
672 2 0.0675442 1.98558 1.68985 0 0 0 -2.77705e-06 -5.10979e-06 -2.34631e-06 2.37561e-06 4.35984e-06 2.12459e-06 1.90131e-06 -3.57396e-07 6.23258e-07 0.5 -6.85777e-06 -1.30249e-05 -5.12678e-06 4.99489e-06 3.92137e-06 1.68182e-07 
759 2 4.95866 2.03867 0.950747 0 0 0 7.26212e-07 -1.02694e-06 1.44686e-06 -6.65727e-07 9.36243e-07 -1.28754e-06 1.66702e-06 -1.54294e-07 -4.19977e-07 0.5 -5.37755e-07 -4.20637e-06 -1.69323e-06 -9.11493e-07 -1.95981e-07 -6.43378e-07 
21 1 1.84566 0.356753 2.43115 0 0 0 -8.82338e-07 -3.85097e-06 -3.45352e-06 7.66539e-07 3.32233e-06 3.03932e-06 7.67477e-07 -1.00416e-06 1.10888e-06 0.5 2.09186e-07 2.26714e-07 -5.65405e-08 2.23204e-08 2.78489e-07 -5.92264e-07 
682 2 2.73058 4.0836 2.7725 0 0 0 8.1291e-07 -2.61173e-06 2.75515e-06 -7.17915e-07 2.27599e-06 -2.39393e-06 2.20487e-08 1.26955e-08 1.30078e-07 0.5 -3.91643e-06 -2.96686e-06 -9.30514e-07 1.74094e-06 2.33251e-06 3.12189e-06 
907 2 0.982097 4.62504 2.63572 1 0 0 7.23522e-07 -5.17049e-06 2.77536e-06 -6.67487e-07 4.38928e-06 -2.31187e-06 2.36225e-07 -5.92325e-07 2.60772e-07 0.5 -4.31347e-06 -5.70292e-06 -5.95313e-06 1.75958e-06 2.89265e-06 -2.03493e-06 
144 1 1.68507 3.60062 2.81087 0 0 0 1.10469e-06 -4.60837e-06 4.28965e-07 -9.95152e-07 3.94079e-06 -3.37503e-07 -3.95934e-08 1.4972e-07 -1.02654e-07 0.5 -1.8302e-06 -7.79399e-07 -9.98386e-07 1.26546e-06 -1.0613e-07 -1.08895e-07 
675 2 2.83107 4.7385 3.54541 0 0 0 6.21288e-07 -2.01607e-06 2.85657e-06 -6.56871e-07 1.81002e-06 -2.49702e-06 -5.81834e-07 2.60006e-07 -1.96482e-07 0.5 1.30448e-07 7.87655e-07 1.47915e-06 7.01598e-07 -1.79445e-07 1.39181e-06 
502 2 4.38953 1.31124 3.26921 0 0 0 1.44886e-07 -2.23568e-06 -4.90416e-07 -2.09817e-07 2.02172e-06 3.70733e-07 3.59179e-07 1.55005e-07 -2.62684e-07 0.5 -3.04681e-06 -1.68911e-06 -1.86659e-06 -1.67349e-06 1.79806e-06 3.22431e-06 
27 1 2.60908 0.300741 3.21066 0 0 0 2.38339e-07 -3.0247e-06 -2.10075e-06 -2.84867e-07 2.59947e-06 1.8004e-06 -1.13698e-07 -4.74618e-07 4.34669e-07 0.5 -2.82138e-06 -3.43322e-06 -6.76552e-06 1.25063e-06 2.52623e-06 4.78976e-07 
965 2 1.35576 3.65812 3.79896 1 0 0 1.4353e-06 -5.31238e-06 -1.23547e-07 -1.27194e-06 4.49961e-06 1.6337e-07 -3.74192e-07 8.08435e-07 -8.09176e-07 0.5 -1.12715e-06 -3.26205e-06 -3.78629e-06 1.86878e-06 -1.13815e-06 2.24002e-06 
61 1 1.66165 0.448611 3.51353 0 0 0 -6.5069e-07 -4.47216e-06 -4.58162e-06 4.9587e-07 3.77537e-06 4.02935e-06 -4.00604e-08 -3.05313e-07 7.93854e-07 0.5 -2.04985e-06 -7.40955e-08 -4.0089e-07 4.16224e-07 1.50297e-06 -1.70999e-07 
680 2 1.1901 2.78151 3.34693 0 0 0 -8.86782e-07 -4.78381e-06 -2.82706e-07 7.22328e-07 4.04483e-06 3.01696e-07 2.29634e-07 4.66651e-07 -1.42519e-07 0.5 -5.65664e-08 -1.08262e-06 -1.74902e-06 2.00809e-07 8.30459e-07 5.47964e-07 
251 1 4.71421 3.03382 3.89556 0 0 0 1.82512e-06 -2.71684e-06 2.58586e-06 -1.65418e-06 2.4332e-06 -2.28907e-06 9.17741e-07 7.14213e-07 -1.06346e-06 0.5 -3.28837e-06 -7.76546e-07 1.25035e-07 -2.49733e-06 1.10885e-06 2.0388e-06 
517 2 4.0089 2.89361 2.21821 0 0 0 7.95714e-07 -2.64422e-06 2.32892e-06 -6.76649e-07 2.38351e-06 -2.03608e-06 3.4967e-07 2.50437e-07 -2.7363e-07 0.5 1.72374e-08 -5.62983e-08 -9.16312e-07 -7.89685e-08 -1.55225e-07 5.20229e-07 
6 1 3.42179 1.77987 2.73262 0 0 0 -7.56156e-08 -2.13881e-06 1.31947e-06 -2.19612e-09 1.86773e-06 -1.17783e-06 1.15692e-06 -2.94883e-07 6.15508e-07 0.5 -4.04733e-06 3.28146e-07 4.33937e-07 1.26557e-06 1.96132e-06 9.52083e-07 
519 2 4.43345 3.61408 3.03093 0 0 0 6.46893e-07 -1.94791e-06 3.61251e-06 -5.84311e-07 1.7903e-06 -3.17861e-06 4.22135e-07 3.28459e-07 -1.38372e-07 0.5 8.96764e-08 1.84735e-06 1.14931e-06 -1.34884e-06 -3.26795e-07 9.27684e-07 
509 2 1.93621 1.51609 3.62332 0 0 0 1.3453e-06 -4.00541e-06 -3.95895e-06 -1.22452e-06 3.35042e-06 3.49587e-06 -3.99868e-07 1.52167e-06 1.16089e-08 0.5 4.59051e-07 -5.13042e-07 -3.99624e-06 -4.74551e-07 8.36521e-07 1.12529e-06 
142 1 1.03537 1.94217 2.17003 0 0 0 -1.43317e-06 -4.03241e-06 -1.81308e-06 1.18412e-06 3.42679e-06 1.64458e-06 1.6247e-06 5.27401e-09 2.71371e-07 0.5 1.89552e-08 -5.912e-07 -1.1343e-06 7.2912e-07 -2.22422e-07 1.2831e-06 
941 2 0.192204 2.25841 2.77345 1 0 0 -2.18675e-06 -6.03076e-06 -1.59819e-06 1.85277e-06 5.15705e-06 1.46284e-06 9.37815e-07 9.4788e-08 1.93676e-07 0.5 -8.53575e-07 -2.58772e-06 -3.76041e-06 3.67157e-08 5.75537e-07 3.95576e-07 
919 2 0.650389 4.31552 3.53385 1 0 0 1.97409e-07 -5.74399e-06 2.0958e-06 -2.07013e-07 4.88063e-06 -1.7217e-06 8.20226e-07 2.16477e-07 -9.37979e-07 0.5 -2.48411e-06 -4.38233e-06 -2.64596e-06 2.45715e-06 4.10113e-08 1.58872e-06 
95 1 3.53903 3.77814 2.2694 0 0 1 1.08807e-06 -2.53365e-06 3.14831e-06 -9.50236e-07 2.27864e-06 -2.7674e-06 1.07294e-07 1.63327e-08 5.95668e-08 0.5 -2.3847e-06 -8.14922e-07 -3.59108e-06 1.85064e-07 1.3864e-06 -4.45552e-07 
458 1 1.5569 4.75361 3.86467 1 0 0 7.01232e-07 -3.8587e-06 3.59308e-06 -6.70965e-07 3.26712e-06 -3.08497e-06 -8.82489e-07 1.42653e-07 1.72256e-07 0.5 -1.34428e-06 -7.80697e-07 -8.15126e-07 1.08124e-06 -2.01362e-07 -1.00436e-07 
41 1 1.14045 0.960464 2.01109 0 0 0 -9.53213e-07 -3.7177e-06 -3.38035e-06 7.74777e-07 3.15251e-06 3.01818e-06 1.40362e-06 -1.8083e-07 6.26889e-07 0.5 -1.22518e-06 -9.02096e-07 -2.91734e-06 6.01378e-07 2.19275e-06 -1.27411e-06 
814 2 0.27112 1.22753 3.40348 1 0 0 1.48881e-08 -4.76159e-06 -2.98742e-06 -7.55739e-08 4.03239e-06 2.67893e-06 7.21824e-07 -4.85392e-07 1.51976e-06 0.5 -3.01527e-06 -3.02358e-06 -3.46131e-06 1.21273e-06 2.36641e-06 3.61976e-06 
130 1 1.70518 2.6475 2.50033 0 0 0 -1.13237e-06 -4.32884e-06 -5.04815e-07 9.491e-07 3.68906e-06 4.96585e-07 1.27866e-06 -5.32403e-07 -6.12444e-07 0.5 -1.32613e-06 -3.82347e-06 -3.34996e-06 1.66992e-06 1.41595e-06 2.29702e-06 
12 1 2.70258 1.09576 2.61132 0 0 0 7.30373e-07 -2.51376e-06 -1.3481e-06 -6.64228e-07 2.15174e-06 1.14893e-06 6.96757e-07 -1.06829e-06 6.68804e-07 0.5 -3.65598e-06 -5.14879e-06 -3.67536e-06 2.11278e-06 2.07983e-06 -2.05e-08 
512 2 3.18635 2.03167 3.78747 0 0 0 1.01818e-06 -5.6061e-07 1.20978e-06 -9.7809e-07 4.74026e-07 -1.00727e-06 8.86051e-07 -3.06772e-07 5.7379e-07 0.5 -9.32862e-07 -2.01941e-06 -1.52498e-06 1.94618e-07 -1.26734e-07 2.01079e-06 
151 1 2.47925 3.30049 3.34132 0 0 0 6.2851e-07 -3.14066e-06 1.94783e-06 -5.44028e-07 2.74637e-06 -1.67173e-06 -2.02429e-07 -3.79596e-07 2.01861e-07 0.5 -8.7874e-07 -5.49537e-06 -4.62158e-06 5.37592e-07 1.60093e-06 1.76297e-06 
667 2 0.28432 1.32081 2.4071 0 0 0 -9.80437e-07 -5.02886e-06 -2.97135e-06 8.00332e-07 4.28491e-06 2.66729e-06 9.72298e-07 2.80106e-07 8.26094e-07 0.5 -1.64448e-06 -7.51332e-06 -5.7124e-06 3.30041e-07 5.44475e-08 9.54325e-07 
38 1 3.79042 0.73815 3.87284 0 0 0 7.48612e-07 -6.58905e-07 -8.78785e-07 -7.4099e-07 6.20913e-07 7.25538e-07 -1.04188e-06 -2.01522e-07 -9.44872e-08 0.5 -3.24546e-06 -1.17419e-06 -7.55817e-06 -3.56563e-06 2.0996e-06 5.45503e-06 
936 2 0.319907 3.36948 3.50683 1 0 0 -1.95632e-06 -4.91658e-06 4.31566e-07 1.64458e-06 4.16864e-06 -2.74921e-07 9.03303e-07 -8.72672e-07 -5.25529e-07 0.5 2.45821e-07 -5.18795e-06 -2.0778e-06 5.60006e-08 2.55901e-06 3.52176e-06 
531 2 4.80013 0.808199 2.48028 0 0 0 -7.21749e-07 -3.51306e-06 -4.42862e-07 5.66999e-07 3.12588e-06 3.37281e-07 1.26794e-07 4.91956e-08 -5.63129e-07 0.5 -9.45639e-07 3.44822e-08 -2.01982e-06 -1.20841e-06 -1.80053e-06 -1.04801e-06 
527 2 4.03024 4.31517 3.61908 0 0 0 1.30384e-06 -1.89238e-06 4.03389e-06 -1.19865e-06 1.71429e-06 -3.5402e-06 -4.5665e-07 1.15741e-08 1.68812e-07 0.5 -1.99138e-06 -1.14558e-07 9.89045e-07 -1.73677e-06 2.51531e-07 2.05865e-06 
383 1 4.36293 4.34454 2.28892 0 0 1 3.79407e-07 -1.50518e-06 3.23046e-06 -3.31999e-07 1.38224e-06 -2.86491e-06 1.79308e-07 -1.44911e-07 1.39718e-07 0.5 -2.14998e-06 -4.32652e-07 9.20664e-07 1.30746e-06 -3.63816e-07 -7.74973e-07 
992 2 0.695682 0.439325 3.85269 1 1 0 2.36544e-07 -4.96528e-06 -3.80094e-06 -2.80985e-07 4.18709e-06 3.36012e-06 1.67246e-08 8.5193e-07 5.84232e-07 0.5 -2.45088e-06 -5.72547e-06 -1.14279e-06 1.7216e-06 -7.73827e-07 2.84009e-06 
521 2 4.93615 4.52796 3.25037 0 0 0 9.50545e-07 -1.44778e-06 3.46281e-06 -8.93375e-07 1.31638e-06 -3.0608e-06 -3.45281e-07 3.45592e-07 2.71968e-07 0.5 -2.75238e-07 -1.21568e-06 -1.58759e-06 -4.38212e-07 -1.28937e-07 2.30502e-06 
136 1 1.88498 1.67143 2.62265 0 0 0 -7.87146e-07 -4.62671e-06 -3.38019e-06 6.25073e-07 3.94443e-06 3.00279e-06 4.40575e-07 7.24942e-07 5.16764e-07 0.5 -4.22785e-06 -4.84851e-06 -3.31949e-06 3.04513e-06 -1.06355e-07 1.42166e-06 
540 2 4.51129 0.178594 3.415 0 0 0 1.65525e-07 -2.38623e-06 -8.74775e-07 -2.21824e-07 2.16477e-06 6.83357e-07 -1.18323e-06 4.21791e-07 -6.40524e-07 0.5 1.34001e-06 9.33342e-07 9.35996e-08 -9.80062e-07 -6.23383e-07 8.94992e-07 
510 2 3.85504 2.56842 3.17076 0 0 0 -7.96913e-08 -2.47028e-06 1.99428e-06 -2.5624e-08 2.18355e-06 -1.786e-06 2.06817e-07 -1.18942e-08 6.68579e-09 0.5 1.60274e-06 2.00768e-06 -1.12065e-06 9.15546e-08 2.64181e-07 1.62942e-06 
19 1 4.3655 1.84749 2.40882 0 0 0 -3.08652e-07 -5.74991e-07 9.63413e-07 1.82807e-07 5.45861e-07 -9.117e-07 6.35429e-07 1.49979e-07 -1.038e-07 0.5 -5.62687e-06 -2.05024e-07 -2.80872e-06 2.4638e-07 2.54094e-06 4.91392e-07 
543 2 1.07326 1.78714 3.19513 0 0 0 1.70593e-07 -4.62455e-06 -2.0219e-06 -2.07385e-07 3.90453e-06 1.82987e-06 1.08052e-06 9.74692e-07 3.78599e-07 0.5 -5.9162e-07 -7.13662e-07 -3.98694e-07 -1.04944e-06 8.85808e-07 6.01639e-07 
773 2 4.78774 2.22773 3.30763 0 0 0 7.0168e-08 -2.2962e-06 1.7346e-06 -1.42711e-07 2.07318e-06 -1.55862e-06 4.40765e-07 5.70657e-07 -3.72556e-07 0.5 -1.95484e-07 -4.23897e-06 -8.26204e-06 -1.04887e-06 2.2221e-06 7.98359e-06 
555 2 2.23907 2.5056 3.89852 0 0 0 8.35762e-07 -2.90378e-06 2.37612e-06 -7.89102e-07 2.56158e-06 -2.0419e-06 -2.69363e-07 -8.52933e-08 2.5078e-07 0.5 4.10871e-07 8.89919e-07 1.02074e-06 1.44218e-07 4.68165e-07 1.79258e-06 
429 1 0.306926 2.40107 3.75655 1 0 0 -1.48632e-06 -5.41035e-06 -1.76921e-06 1.23834e-06 4.59301e-06 1.61575e-06 5.82622e-07 2.10203e-07 1.08483e-06 0.5 -1.21316e-06 -8.51838e-06 -5.08434e-06 2.00487e-06 -1.24607e-06 4.82129e-06 
316 1 0.889712 0.51288 2.86992 1 0 0 -1.16387e-06 -4.94235e-06 -4.0974e-06 9.35094e-07 4.1917e-06 3.62106e-06 5.16568e-07 5.99482e-08 7.61298e-07 0.5 5.85541e-07 -1.00826e-06 -5.40244e-07 4.06469e-07 3.3632e-07 9.87096e-07 
503 2 3.61689 0.768798 2.88623 0 0 0 4.16867e-07 -2.68211e-06 -7.69543e-07 -3.83414e-07 2.34092e-06 6.17504e-07 -1.55345e-07 -6.74078e-08 2.76219e-07 0.5 -3.48511e-07 3.60309e-07 -5.2845e-06 1.57235e-07 -2.00771e-07 1.40298e-06 
896 2 0.702246 3.66501 2.63024 1 0 0 8.73494e-07 -5.208e-06 1.63271e-06 -8.0683e-07 4.4245e-06 -1.31397e-06 6.39623e-07 2.04243e-07 -3.64524e-07 0.5 -2.85575e-06 -2.36122e-06 -5.48613e-06 7.30688e-07 -1.48755e-06 1.39959e-06 
690 2 1.93672 4.67095 2.92998 0 0 0 4.01108e-07 -3.37785e-06 3.5435e-06 -3.75877e-07 2.90685e-06 -3.02826e-06 -1.50453e-07 7.28227e-08 7.0648e-07 0.5 -3.74229e-06 -2.01975e-06 -6.7606e-07 2.42756e-06 9.01807e-08 -4.77102e-07 
641 2 3.45948 3.5005 3.22725 0 0 0 5.74854e-07 -1.93172e-06 3.25887e-06 -5.1693e-07 1.74292e-06 -2.86819e-06 -3.27675e-07 -2.77137e-08 3.18087e-07 0.5 1.29502e-07 7.86313e-07 -2.30961e-06 2.84397e-07 -9.84269e-07 3.03895e-06 
528 2 3.34275 4.80215 2.44243 0 0 0 1.20183e-06 -2.80719e-06 3.04971e-06 -1.09035e-06 2.45441e-06 -2.6952e-06 5.61524e-08 1.11481e-07 1.15981e-07 0.5 -5.06129e-07 -9.55862e-07 -1.38223e-06 -8.33627e-07 -4.64894e-08 -3.27454e-08 
225 1 2.66658 2.37982 2.99794 0 0 1 -8.31873e-07 -3.2315e-06 1.52263e-06 6.70679e-07 2.81049e-06 -1.29236e-06 -2.36967e-07 6.43149e-07 4.62861e-07 0.5 -1.33295e-06 -3.49864e-06 -1.18843e-07 2.15464e-06 -7.48268e-07 -2.54198e-07 
119 1 0.614477 2.84343 2.06694 0 0 0 -2.15703e-06 -4.11332e-06 5.07596e-07 1.81965e-06 3.49885e-06 -3.72469e-07 1.54125e-06 1.12684e-07 -9.23671e-08 0.5 9.34044e-07 -2.3107e-06 -4.92385e-06 5.15241e-07 1.90637e-06 -2.70128e-07 
94 1 2.46189 3.50068 2.00487 0 0 1 -6.35148e-08 -3.30186e-06 3.5525e-06 4.03353e-08 2.84306e-06 -3.06082e-06 6.48654e-07 -2.39039e-07 1.2428e-07 0.5 8.82485e-07 9.79745e-07 4.34867e-07 9.2914e-07 9.40452e-07 1.4304e-06 
522 2 2.58373 2.50802 2.00903 0 0 0 -3.68084e-07 -3.35192e-06 1.46693e-06 2.94137e-07 2.88477e-06 -1.24942e-06 1.23319e-06 -6.04315e-07 3.73133e-07 0.5 -6.02991e-07 2.19465e-08 -1.08194e-06 1.30966e-06 1.68247e-06 2.76954e-07 
200 1 2.46549 0.208502 4.19599 0 1 0 1.89198e-06 -1.72794e-06 -1.7371e-06 -1.76022e-06 1.47412e-06 1.47892e-06 -1.26721e-06 -8.40446e-07 1.66494e-06 0.5 -3.0038e-06 -1.69596e-06 -5.2365e-06 5.12554e-07 2.05298e-06 1.32282e-06 
114 1 4.70709 1.00384 4.17137 0 0 0 6.23656e-07 -9.80993e-07 -2.06598e-07 -6.41327e-07 9.45001e-07 1.29454e-07 -4.26326e-07 -2.08303e-07 -5.44825e-07 0.5 -1.74137e-06 1.17179e-07 7.93041e-08 -2.88843e-07 -1.05351e-06 -3.11034e-07 
820 2 1.30996 2.29325 4.21136 1 0 0 2.60051e-07 -3.57241e-06 2.42897e-07 -2.50916e-07 3.00718e-06 -1.49771e-07 -6.87224e-07 -5.70771e-07 9.68496e-07 0.5 -2.66629e-07 7.87471e-07 -1.25997e-06 2.72428e-06 1.33342e-06 2.00175e-06 
47 1 4.65574 1.582 5.43553 0 0 0 1.92319e-06 -3.23444e-07 6.6153e-07 -1.78745e-06 3.94775e-07 -6.16607e-07 1.78389e-07 7.43275e-07 2.75541e-07 0.5 -2.23382e-06 -3.40295e-06 -1.41758e-06 -9.20683e-07 -1.62577e-06 2.58208e-06 
824 2 1.64908 3.83184 5.79238 1 0 0 4.27048e-07 1.15822e-06 3.48399e-06 -3.74879e-07 -1.00469e-06 -2.9632e-06 -1.24346e-06 3.36901e-08 -4.97015e-07 0.5 -6.52881e-07 -5.66365e-07 -2.38607e-06 -2.81902e-07 5.69181e-08 8.54025e-07 
172 1 3.44268 0.33882 4.72114 0 1 0 7.34909e-07 1.43643e-06 1.04911e-07 -7.82497e-07 -1.23041e-06 -1.65571e-07 -1.29831e-06 -3.22415e-07 3.99343e-07 0.5 -2.89209e-06 -2.98389e-06 -9.87805e-06 -2.56355e-06 2.5115e-06 4.20013e-06 
718 2 0.202285 2.03673 5.5128 0 1 0 -7.62038e-09 -1.07272e-06 5.02731e-07 -4.80544e-08 8.19976e-07 -3.4912e-07 -1.00944e-06 -5.13407e-07 5.4671e-08 0.5 -4.16782e-06 -8.99819e-07 -2.73172e-06 2.06326e-06 -2.11161e-06 5.87529e-06 
505 2 0.484434 3.5018 5.83385 0 0 -1 -4.49056e-07 2.26927e-06 2.52179e-06 3.92356e-07 -2.09783e-06 -2.1201e-06 2.26649e-07 -6.00719e-07 1.32262e-06 0.5 -1.45815e-07 -8.1065e-06 -4.062e-06 2.98718e-07 -6.94777e-08 6.5733e-06 
524 2 3.99535 2.7352 5.70678 0 0 0 4.2024e-06 3.20242e-06 5.02481e-06 -3.82682e-06 -2.65706e-06 -4.46997e-06 -1.24475e-06 3.29004e-06 1.82443e-06 0.5 4.33016e-08 7.92418e-07 8.40917e-07 -5.94629e-07 -6.81738e-07 6.24766e-07 
839 2 0.579386 1.61473 4.31101 1 0 0 1.08724e-06 -4.93239e-06 -2.3517e-06 -9.71238e-07 4.18793e-06 2.12336e-06 -3.55921e-07 -2.77352e-08 1.24636e-06 0.5 -5.47447e-07 -5.91891e-06 -3.51496e-06 3.56848e-06 -1.79941e-07 6.14617e-06 
937 2 2.44361 3.38654 4.3372 1 0 0 9.69781e-07 -2.43744e-06 1.85349e-06 -8.75018e-07 2.15392e-06 -1.59269e-06 -7.92159e-07 -6.12409e-07 7.07429e-07 0.5 3.40657e-07 1.16829e-06 -4.25384e-06 1.68459e-06 9.10313e-07 2.21208e-06 
811 2 2.60623 3.94632 5.52498 1 0 0 1.18445e-07 8.09555e-07 2.24844e-06 -1.19275e-07 -6.51808e-07 -1.91332e-06 -1.02497e-06 -7.64111e-07 -1.94518e-08 0.5 -4.61191e-07 -2.19571e-06 -7.07584e-07 -9.67067e-07 -5.62991e-07 2.13163e-06 
827 2 1.52088 3.18133 4.66349 1 0 0 8.78443e-07 -3.61454e-06 8.55276e-07 -7.51447e-07 3.04652e-06 -6.82365e-07 -1.33959e-06 -7.56493e-07 -2.6449e-07 0.5 -9.95219e-08 -5.34142e-07 -3.67365e-06 -8.41048e-08 6.72826e-07 2.75033e-06 
149 1 4.05563 3.93275 4.61881 0 0 0 6.8854e-07 1.16638e-07 3.49734e-06 -6.8203e-07 -9.84515e-09 -3.07454e-06 -3.49469e-07 1.40035e-07 7.28723e-07 0.5 -7.50967e-07 -1.24019e-06 1.31654e-06 3.90729e-06 -2.20847e-06 1.25961e-06 
925 2 0.623245 3.59905 4.52293 1 0 0 1.53738e-06 -2.43537e-06 9.64767e-08 -1.34981e-06 1.97337e-06 -1.12488e-08 -1.20091e-06 4.00441e-07 -3.03751e-07 0.5 3.83194e-07 -1.98465e-06 -6.34754e-07 -3.36365e-07 -4.6679e-07 1.08491e-06 
168 1 3.33522 4.60361 5.33158 0 0 0 6.40663e-07 5.867e-07 3.61507e-06 -6.11634e-07 -4.37459e-07 -3.18264e-06 -7.25919e-07 -6.02408e-07 6.88298e-07 0.5 -2.74108e-06 -2.26173e-06 -2.468e-06 3.90407e-07 -1.08178e-06 1.89003e-06 
928 2 1.57471 4.4088 4.9787 1 0 0 6.94432e-07 5.83506e-07 3.09148e-06 -6.06339e-07 -4.72029e-07 -2.59915e-06 -7.28961e-07 2.08537e-08 -8.05065e-07 0.5 -1.42421e-06 -1.77402e-06 -1.66311e-06 -1.03386e-06 3.78583e-07 1.35478e-06 
148 1 3.93983 3.74233 5.74569 0 0 0 1.66466e-07 3.07198e-06 4.87151e-06 -2.21054e-07 -2.54359e-06 -4.26753e-06 -1.09145e-06 -5.01728e-07 2.13674e-06 0.5 9.97758e-07 2.35771e-06 2.36439e-06 1.48075e-06 1.67383e-06 1.4705e-06 
914 2 4.69244 4.38506 5.24423 0 0 0 -7.30018e-07 1.30055e-06 4.11695e-06 5.53307e-07 -9.5949e-07 -3.67302e-06 -1.61256e-06 -7.52181e-07 -4.9621e-07 0.5 -3.0827e-08 5.78223e-07 1.0961e-06 8.93258e-08 4.2162e-07 6.99545e-07 
23 1 2.87773 1.11847 4.05716 0 0 0 4.16845e-07 -1.18821e-06 -1.72671e-06 -4.69789e-07 1.016e-06 1.51768e-06 3.26923e-07 -2.53424e-07 3.44876e-07 0.5 -2.45863e-06 -2.39937e-06 -1.83505e-06 -1.08247e-06 1.30162e-06 1.58101e-06 
594 2 2.05586 1.97089 4.80241 0 0 0 1.1803e-06 8.13499e-07 1.25478e-06 -1.06269e-06 -7.58387e-07 -9.9393e-07 4.40392e-07 -5.67486e-07 1.52304e-06 0.5 -5.11459e-08 -2.84772e-06 -5.31494e-07 1.80806e-06 -8.32681e-07 1.58874e-06 
539 2 3.78455 1.04074 5.46912 0 0 0 1.11558e-06 2.73122e-06 1.44619e-06 -1.07074e-06 -2.31474e-06 -1.31735e-06 -5.93805e-07 9.92799e-07 -2.85482e-07 0.5 -9.82607e-07 -9.19025e-06 -3.83042e-06 -3.20133e-06 -2.36818e-06 7.44683e-06 
730 2 0.461764 1.11569 5.16957 0 1 0 4.78532e-07 -1.22359e-06 -2.77648e-07 -4.90798e-07 9.5511e-07 3.08597e-07 -4.83081e-07 -2.13215e-07 1.52441e-06 0.5 2.55385e-06 -5.66833e-07 -2.07886e-06 2.85168e-07 -4.97795e-07 4.29012e-06 
689 2 3.51933 0.103668 5.69619 0 1 0 3.65347e-07 2.57206e-06 -7.51198e-08 -4.1019e-07 -2.18009e-06 -3.86898e-10 -3.39573e-07 -5.79742e-07 -2.3501e-07 0.5 -3.89834e-06 -1.14135e-05 -9.96789e-06 -1.43077e-06 3.27671e-07 8.49216e-06 
450 1 0.619286 4.79871 4.46892 1 0 0 3.34083e-06 -1.96331e-06 1.84532e-06 -2.8941e-06 1.63597e-06 -1.48661e-06 -2.4333e-06 -6.20173e-07 3.72675e-07 0.5 -1.27874e-06 -3.51201e-06 -7.39416e-06 2.14714e-07 -1.24929e-06 4.15627e-06 
549 2 4.49944 0.500888 5.01435 0 0 0 -7.41217e-07 5.8895e-07 4.68178e-07 5.48025e-07 -4.41689e-07 -4.72599e-07 -4.31684e-07 4.68871e-07 -1.1216e-06 0.5 2.70638e-06 3.76104e-06 2.23278e-06 -1.66317e-06 -1.21976e-06 1.59855e-06 
591 2 1.44655 1.12499 4.40334 0 0 0 2.04157e-06 -3.33483e-06 -3.2378e-06 -1.82012e-06 2.76269e-06 2.87218e-06 -8.05443e-07 7.00355e-07 3.10561e-07 0.5 -1.99523e-06 -3.27814e-06 -2.55695e-06 8.45601e-07 3.29029e-07 2.50989e-06 
243 1 1.20287 1.83742 5.34381 0 1 0 -1.39038e-07 4.95846e-07 -5.50319e-07 5.67832e-08 -5.3194e-07 5.39812e-07 -3.89999e-07 -3.7954e-07 8.71159e-07 0.5 -1.2524e-06 -1.39092e-06 -6.82312e-07 1.37532e-06 -3.11365e-07 2.05062e-06 