ITEM: TIMESTEP
237000
ITEM: NUMBER OF ATOMS
1000
ITEM: BOX BOUNDS xy xz yz pp pp pp
0.0000000000000000e+00 1.0000000000000000e+01 0.0000000000000000e+00
0.0000000000000000e+00 1.0000000000000000e+01 0.0000000000000000e+00
0.0000000000000000e+00 1.0000000000000000e+01 0.0000000000000000e+00
ITEM: ATOMS id type x y z ix iy iz vx vy vz fx fy fz omegax omegay omegaz radius c_2[1] c_2[2] c_2[3] c_2[4] c_2[5] c_2[6] 
120 1 3.15852 1.54146 0.0722925 0 1 0 -1.67043e-12 7.63062e-12 4.51192e-12 1.80536e-12 -8.39144e-12 -4.35109e-12 4.77796e-12 1.81154e-12 -3.34622e-12 0.5 -2.23752e-12 -1.49443e-11 -1.71248e-12 -1.8039e-12 -9.04432e-13 -4.64447e-12 
525 2 2.11627 1.23431 1.69988 0 0 0 -8.63241e-12 -2.04248e-11 -1.14192e-11 8.26195e-12 1.69331e-11 1.0515e-11 -1.78278e-12 2.04031e-12 7.03484e-12 0.5 1.15916e-12 -8.91383e-13 1.07539e-12 1.25125e-12 3.9103e-13 -6.6554e-14 
371 1 4.95931 3.68326 1.58374 0 0 1 4.60657e-12 -5.0716e-12 9.33897e-12 -2.25716e-12 2.87722e-12 -7.27456e-12 6.60237e-13 -9.98977e-13 5.91658e-13 0.5 -2.06379e-12 -7.12598e-12 9.00772e-12 -1.42075e-13 -2.25581e-12 9.13588e-13 
18 1 1.98117 2.69195 0.532518 0 0 0 -4.01737e-12 -1.40239e-13 1.34332e-11 2.21915e-12 -1.69297e-12 -1.05427e-11 8.88819e-12 -2.94917e-12 2.81268e-12 0.5 -5.85301e-12 -1.61811e-11 -9.63292e-12 1.32589e-11 5.68863e-12 -7.21808e-12 
868 2 2.87004 3.00634 0.0289121 0 0 1 3.87021e-12 -2.21652e-12 1.0637e-11 -2.99995e-12 3.12858e-12 -9.6195e-12 7.30646e-12 -1.20326e-12 3.31619e-12 0.5 -1.17784e-11 -1.60143e-11 -6.3745e-12 1.15167e-11 -1.79833e-12 2.21101e-13 
25 1 1.41548 0.708705 1.0832 0 0 0 -3.32966e-12 -5.79094e-12 -9.90249e-12 6.33683e-12 1.44139e-11 1.01104e-11 5.43555e-12 -1.82439e-12 4.81448e-12 0.5 -6.54678e-12 -5.03467e-11 -2.65166e-11 1.88397e-11 1.17711e-11 -2.54542e-11 
378 1 4.61919 2.40719 0.0725816 0 0 1 1.68258e-12 6.03352e-12 7.37287e-12 -2.40277e-12 -6.89918e-12 -7.78174e-12 7.44885e-12 2.01741e-12 -1.20072e-12 0.5 -4.41101e-12 -1.25184e-11 -5.77195e-12 2.70678e-13 -4.30299e-13 -9.26542e-12 
8 1 3.44143 2.06796 1.74253 0 0 0 -1.09127e-13 -8.27639e-12 3.10982e-12 3.37526e-12 5.81438e-12 -3.20501e-12 6.80752e-12 -1.50095e-12 1.85955e-12 0.5 5.6921e-12 3.7635e-12 4.44387e-12 8.73027e-13 -2.76739e-12 1.17893e-12 
629 2 4.07713 2.6156 1.19812 0 0 1 1.84614e-12 -3.35764e-12 1.02096e-11 -1.09758e-13 2.40102e-12 -1.13143e-11 6.97576e-12 -2.30498e-12 8.59413e-13 0.5 -1.32976e-11 -3.21979e-12 -9.72539e-12 3.434e-12 -9.10462e-12 -5.67783e-12 
5 1 2.34651 3.9005 1.05345 0 0 0 -5.53999e-13 -1.44044e-11 1.47471e-11 1.00893e-12 1.25407e-11 -1.21685e-11 6.20885e-13 9.21903e-13 2.69844e-12 0.5 -4.67169e-13 -1.1726e-12 -1.53762e-12 1.72924e-12 5.51499e-14 -2.45029e-13 
650 2 0.459129 3.43666 1.12967 0 0 0 -9.36746e-12 -1.67826e-11 4.55321e-12 6.91454e-12 1.95373e-11 -4.14023e-12 9.7696e-12 3.90211e-13 -3.71479e-13 0.5 -1.1878e-11 -1.6515e-11 -1.47844e-11 1.11909e-11 9.66009e-12 -6.28672e-12 
14 1 3.29515 3.13364 1.54473 0 0 0 3.48852e-13 -6.6613e-12 1.14085e-11 -2.99054e-12 8.44389e-13 -1.40387e-11 1.43906e-12 1.80291e-12 1.08666e-12 0.5 -6.06485e-13 -5.73116e-12 -1.03981e-11 5.37305e-12 -2.17993e-12 -5.0746e-12 
264 1 3.99643 3.86789 1.37953 0 0 0 4.04124e-12 -7.20227e-12 1.0353e-11 -1.93458e-12 5.6534e-12 -8.94904e-12 2.49406e-12 8.10445e-13 1.06645e-12 0.5 -2.47019e-12 1.01386e-12 -4.87749e-12 5.61521e-12 -2.08756e-12 -1.84628e-12 
223 1 0.747634 2.47805 1.14565 0 0 1 -1.11518e-11 -1.70427e-11 3.73543e-12 6.32508e-12 2.00331e-11 6.88764e-12 8.92797e-12 -3.33317e-12 1.05292e-12 0.5 -9.69026e-12 -2.37158e-11 -6.04509e-11 7.26357e-12 2.15684e-11 -1.58962e-11 
364 1 4.4227 4.23693 0.53984 0 0 1 3.44781e-12 4.11337e-12 1.45641e-11 -3.89783e-12 -3.98793e-12 -1.26879e-11 4.12281e-12 -1.21831e-12 1.64137e-12 0.5 1.21906e-12 2.49629e-12 1.68007e-12 1.13681e-12 2.3731e-12 -2.8264e-12 
107 1 1.66076 1.61825 0.747451 0 0 1 -8.90157e-12 -2.53257e-12 -4.97746e-12 -1.33704e-12 1.21468e-11 -2.07434e-12 8.34596e-12 -7.52726e-13 1.65427e-12 0.5 7.59895e-12 -5.34668e-12 -1.96036e-12 -1.60737e-12 2.57205e-12 -7.70861e-12 
529 2 2.67265 2.1996 1.06195 0 0 0 -8.55346e-13 -5.81635e-12 3.91359e-12 1.75284e-12 4.8782e-12 -3.56522e-12 7.84303e-12 8.41515e-13 2.39822e-12 0.5 -7.29046e-13 -5.29886e-12 -7.67386e-12 3.80736e-12 -3.27217e-12 9.72973e-13 
515 2 4.38643 0.435908 1.64385 0 0 0 3.72574e-12 -6.31178e-12 -9.82462e-12 -5.74329e-12 3.25629e-12 9.78098e-12 5.69024e-12 -1.32192e-12 2.27808e-12 0.5 -1.58907e-11 -1.26388e-11 -2.32025e-11 -1.9088e-11 8.00546e-12 1.0179e-11 
244 1 4.11373 0.570462 0.682724 0 1 1 2.67433e-12 4.1299e-12 -7.20376e-12 -6.72785e-12 -4.69197e-12 4.58302e-12 6.43446e-12 3.7242e-12 1.50487e-12 0.5 -4.93985e-13 1.78858e-13 -1.28163e-11 2.84243e-12 -1.08391e-12 4.67268e-13 
20 1 2.90179 0.570818 1.78382 0 0 0 9.36419e-13 -8.69837e-12 -7.94844e-12 -1.0584e-12 7.80289e-12 8.35459e-12 3.49252e-12 -2.72802e-12 1.80034e-12 0.5 -1.10934e-12 -4.59256e-12 -1.58275e-11 8.95071e-12 6.45027e-12 -1.64911e-11 
280 1 4.09077 1.582 1.14626 0 0 0 1.50398e-12 -1.30271e-12 -1.11172e-12 -3.42587e-12 3.75271e-12 -4.29492e-12 8.28356e-12 -4.81654e-13 8.80524e-13 0.5 1.73999e-12 -4.97975e-12 -1.30634e-11 1.26084e-12 6.38823e-12 5.19893e-12 
620 2 1.3946 4.37082 0.857654 0 0 1 2.48117e-12 -1.02763e-11 1.30197e-11 -5.59159e-13 9.67889e-12 -2.03025e-11 5.95087e-12 4.08173e-12 -3.9258e-12 0.5 -3.94345e-12 -1.66732e-11 -3.33095e-11 9.30371e-13 -3.81931e-12 5.47148e-12 
1000 2 3.60332 2.39824 0.339819 0 1 1 8.29753e-12 1.5594e-12 6.36337e-12 -9.00089e-12 -1.46945e-12 -5.74217e-12 5.17944e-12 -5.40955e-13 4.01428e-13 0.5 -9.02216e-12 -1.31842e-11 -9.98862e-12 1.17791e-12 -8.17873e-12 -1.769e-12 
103 1 3.28431 3.68319 0.698947 0 0 1 8.18712e-13 -4.86153e-12 1.32616e-11 1.13273e-13 4.47213e-12 -1.11669e-11 3.49379e-12 1.97475e-13 2.23604e-12 0.5 -5.51104e-12 -7.5867e-12 -7.51546e-12 4.54237e-12 -1.4781e-12 4.64927e-13 
622 2 0.930663 4.80385 0.0848388 0 0 1 2.53221e-12 -1.27817e-12 1.83068e-11 -4.26e-12 2.39181e-12 -2.21556e-11 7.71889e-12 -3.00304e-13 -1.99136e-12 0.5 -8.46191e-13 1.79786e-12 -1.28443e-11 -5.9453e-13 -6.39841e-12 3.99405e-12 
506 2 0.74356 1.4513 1.18235 0 0 0 -1.10762e-11 -1.62292e-11 -9.29305e-12 6.07609e-12 1.73027e-11 8.01604e-12 6.28904e-12 -1.238e-12 5.51246e-12 0.5 -3.99593e-12 -2.79609e-11 -3.58271e-12 2.81809e-11 6.65536e-12 -1.41504e-11 
626 2 1.28815 3.41645 0.566227 0 0 1 -9.32669e-12 -5.90236e-12 4.82296e-12 7.29854e-12 3.58805e-12 -3.60373e-12 5.11725e-12 -2.08407e-12 7.88964e-13 0.5 -1.11343e-11 -1.80334e-11 -2.97167e-12 9.93211e-12 7.00145e-12 -5.2145e-12 
553 2 0.744043 0.0774004 1.56305 0 0 0 -2.75083e-12 -1.1962e-11 -1.37694e-11 3.15957e-12 1.19323e-11 1.39834e-11 8.90983e-13 -3.20428e-12 5.7143e-12 0.5 4.10404e-12 2.19828e-12 2.69732e-12 3.73248e-13 -1.25574e-12 -2.1187e-12 
135 1 1.54769 3.20472 1.67709 0 0 0 2.60837e-12 -1.46077e-11 1.80729e-12 1.15441e-12 3.63825e-12 -3.98844e-12 4.82301e-12 -6.4536e-12 -2.04714e-12 0.5 7.61747e-13 -4.76528e-11 -7.99574e-12 1.09177e-11 3.64717e-12 -2.31208e-12 
624 2 4.32461 4.92098 1.47156 0 0 1 8.21178e-12 -5.41853e-14 9.68153e-12 -6.4791e-12 -9.84962e-14 -8.95328e-12 2.48505e-12 -1.08662e-12 2.24008e-12 0.5 3.32464e-12 1.4659e-12 -1.1191e-11 3.41704e-12 -6.78519e-12 -6.41506e-12 
256 1 4.58719 1.36786 0.305 0 0 0 2.32372e-12 6.61671e-12 -2.5105e-12 -2.84411e-12 -9.38331e-12 -9.08802e-13 7.63302e-12 1.88349e-12 -1.06865e-12 0.5 -4.94714e-12 -1.24779e-11 -1.76254e-11 -6.39402e-12 -7.02787e-12 -1.35642e-11 
260 1 3.31854 0.0700552 1.02517 0 0 0 6.58307e-12 -3.78433e-12 -7.75826e-12 -1.47036e-12 5.98392e-12 8.66564e-12 2.71287e-12 6.0767e-12 9.4104e-13 0.5 -2.3201e-12 -7.75888e-12 -1.55388e-11 1.47045e-12 -3.76675e-12 -1.02095e-11 
616 2 3.19106 4.4806 1.50664 0 0 1 2.71702e-12 -1.11744e-11 1.0399e-11 -1.02791e-12 9.68206e-12 -8.12061e-12 -4.45256e-13 1.53769e-12 2.5474e-12 0.5 -6.35249e-12 -2.2582e-12 -1.78682e-12 3.51271e-12 5.80476e-13 -1.14208e-12 
106 1 1.74522 2.23558 1.52961 0 0 1 -8.54591e-13 -1.55201e-11 5.33671e-12 5.06262e-13 -5.23154e-13 -1.68324e-11 5.98076e-12 -1.94466e-12 -1.62611e-12 0.5 3.71831e-12 -2.2098e-11 -5.6067e-12 5.41041e-12 3.25603e-12 -7.52818e-12 
157 1 1.3897 4.17879 1.83903 0 0 0 5.12782e-12 -1.6308e-11 1.1488e-11 2.50844e-12 1.00094e-11 -2.07644e-11 6.3003e-12 8.40642e-13 9.30563e-13 0.5 -1.2827e-11 -3.96032e-11 -4.68214e-11 9.87977e-12 1.51553e-11 -1.16277e-11 
516 2 2.34691 0.89043 0.68796 0 0 0 -2.65677e-12 3.17806e-12 -1.32096e-12 -2.1298e-12 2.12613e-12 2.76413e-12 -1.24476e-12 -1.20006e-12 6.60076e-13 0.5 -2.19084e-12 -1.55665e-11 -3.82268e-12 1.37318e-12 2.96193e-12 -1.11772e-11 
183 1 0.415258 4.58221 1.00381 0 0 0 3.66845e-12 -1.4063e-11 2.70961e-11 -1.82239e-12 1.17795e-11 -2.31249e-11 1.18994e-11 6.71219e-12 4.46388e-13 0.5 4.14441e-13 -6.71294e-13 1.5191e-12 1.08502e-12 -2.02373e-12 1.46628e-12 
625 2 0.399951 3.91216 0.210014 0 0 1 -1.26533e-12 2.53544e-13 1.45552e-11 1.62203e-12 -4.23188e-13 -1.18038e-11 1.13741e-11 -1.42187e-12 -5.68827e-12 0.5 -5.79115e-13 1.96317e-13 -2.53762e-12 -3.47837e-13 -1.13539e-12 2.28562e-12 
91 1 2.22066 4.71676 1.69645 0 0 1 3.7985e-12 -1.38793e-11 1.38201e-11 1.31859e-12 1.42478e-11 -1.43467e-11 -1.24016e-13 1.40174e-12 1.10278e-12 0.5 -9.47865e-12 -4.48557e-12 -1.76522e-12 -2.55006e-12 1.07492e-12 -1.476e-12 
257 1 4.94043 2.69123 1.70827 0 0 0 2.2232e-12 -5.28434e-12 7.79988e-12 -1.40681e-12 7.58462e-12 -8.60082e-12 2.88946e-12 -5.52053e-13 -1.11043e-12 0.5 -1.39385e-11 -8.66744e-12 -3.01883e-11 6.42882e-13 -9.08694e-12 -8.02348e-12 
4 1 3.72174 1.12777 1.95711 0 0 0 1.4893e-12 -9.87757e-12 -5.28923e-12 -3.1863e-12 5.61104e-12 8.38516e-12 5.75363e-12 -3.64735e-13 1.24787e-12 0.5 -2.56306e-13 -5.61173e-13 -2.36783e-11 -2.98675e-12 1.57746e-12 1.16395e-11 
609 2 1.99624 4.76004 0.136921 0 0 1 2.27208e-12 -7.33628e-12 1.66115e-11 -6.61863e-13 5.46917e-12 -1.51471e-11 2.88456e-12 -3.85641e-13 3.39421e-12 0.5 -3.09736e-11 -9.13396e-11 -1.19807e-11 2.57177e-11 2.95611e-12 -1.82941e-11 
117 1 3.12746 1.31374 1.15363 0 1 0 2.38575e-12 -4.76117e-12 -2.87849e-12 -1.72972e-12 3.71507e-12 3.35034e-12 6.5116e-12 6.81173e-13 8.443e-13 0.5 5.8819e-13 -3.22647e-12 -3.6197e-12 2.20605e-12 -5.33235e-12 -4.95972e-13 
511 2 1.08079 2.25054 0.230642 0 0 0 -5.33832e-12 6.02749e-12 9.20104e-13 -1.0447e-11 1.33554e-11 3.41675e-12 1.07297e-11 -3.08242e-12 -1.88761e-12 0.5 -4.4591e-12 -2.90839e-11 -5.17996e-11 1.82084e-11 2.84478e-11 -2.6595e-11 
911 2 0.492018 0.563612 0.697612 1 0 0 -2.40253e-12 -1.038e-11 -1.35622e-11 4.72134e-12 6.93527e-12 1.2854e-11 1.02093e-12 -2.69822e-12 1.61264e-12 0.5 5.02825e-12 -1.26818e-11 8.87756e-14 -5.58174e-13 1.95369e-12 -5.04749e-12 
668 2 0.00216515 3.81975 1.93315 0 0 0 -3.08231e-12 -2.95626e-11 1.38318e-11 2.0337e-12 2.6182e-11 -1.00598e-11 2.6964e-12 1.78918e-12 -2.95326e-12 0.5 -2.15412e-11 -5.07567e-11 -2.1666e-11 1.67216e-11 -5.75676e-12 -5.80606e-13 
90 1 2.93989 4.58015 0.420403 0 0 1 2.94428e-12 -3.36603e-12 1.575e-11 -5.60466e-13 2.94974e-12 -1.5096e-11 1.82432e-12 -5.77357e-14 3.23376e-12 0.5 -1.0396e-11 3.79522e-14 -4.48815e-12 1.4651e-11 5.20067e-12 7.66455e-13 
734 2 4.13742 3.24508 0.37494 0 1 1 4.22304e-12 3.83477e-12 1.3574e-11 -4.50696e-12 -3.54341e-12 -1.34217e-11 6.7599e-12 6.75262e-13 1.67829e-12 0.5 -7.04531e-12 -2.71784e-12 9.24013e-13 6.84945e-12 7.31299e-13 -3.81188e-12 
672 2 0.0675425 1.98557 1.68985 0 0 0 -1.34708e-11 -2.31651e-11 -4.98634e-12 1.09225e-11 1.8044e-11 6.19648e-12 6.36886e-12 -8.63759e-13 3.24947e-12 0.5 -3.0208e-11 -5.55922e-11 -2.1784e-11 2.17104e-11 1.53373e-11 1.23081e-12 
759 2 4.95866 2.03867 0.950748 0 0 0 2.582e-12 -1.00029e-12 4.32995e-12 -3.32316e-13 -6.75452e-13 -4.06854e-12 6.22959e-12 -1.71622e-12 -1.42338e-12 0.5 -1.55995e-12 -3.05816e-11 -1.32635e-11 -4.43047e-12 -2.68639e-12 -4.68551e-12 
21 1 1.84566 0.35675 2.43115 0 0 0 -4.06203e-12 -1.57541e-11 -1.19871e-11 1.27366e-12 1.42992e-11 1.03845e-11 3.54646e-12 -1.90411e-12 4.96201e-12 0.5 -1.59494e-12 -2.00459e-12 1.77328e-13 2.13615e-12 -4.85802e-13 -3.79186e-13 
682 2 2.73058 4.0836 2.7725 0 0 0 2.22079e-12 -9.50075e-12 1.05859e-11 -1.20172e-12 8.45643e-12 -9.67144e-12 -2.81604e-13 8.24997e-13 1.98539e-12 0.5 -1.21097e-11 -3.08011e-12 1.99618e-12 1.38417e-11 2.01164e-12 9.44371e-12 
907 2 0.982097 4.62503 2.63573 1 0 0 9.36722e-13 -2.36221e-11 1.53277e-11 -2.88058e-12 2.68417e-11 8.32813e-14 1.11977e-12 -2.19107e-12 1.48061e-12 0.5 -2.36585e-11 -4.05778e-11 -4.26355e-11 1.20577e-11 1.76201e-11 -1.70196e-11 
144 1 1.68507 3.60062 2.81087 0 0 0 2.29734e-12 -2.03225e-11 2.33486e-12 -3.07254e-12 1.67016e-11 -3.06621e-12 -5.18955e-13 2.29314e-12 1.02516e-12 0.5 -1.2852e-11 -1.71296e-12 -4.69251e-12 7.24119e-12 -4.34845e-12 1.17162e-12 
675 2 2.83107 4.7385 3.54541 0 0 0 -2.13199e-12 -5.05847e-12 1.03504e-11 3.85927e-12 3.90426e-12 -6.63651e-12 -3.00438e-12 2.05679e-12 -6.75369e-13 0.5 1.23799e-12 7.23748e-12 8.50256e-12 3.40952e-12 -8.64768e-13 6.38971e-12 
502 2 4.38953 1.31124 3.26921 0 0 0 -3.76325e-12 -5.80706e-12 -4.72076e-12 3.46138e-12 5.61799e-12 4.17517e-12 1.48432e-12 -4.75963e-13 -7.06273e-14 0.5 -1.32587e-11 -7.22252e-12 -8.5994e-12 -6.60414e-12 4.20372e-12 1.20076e-11 
27 1 2.60908 0.300739 3.21066 0 0 0 -4.10995e-12 -1.31374e-11 -9.40775e-12 4.71242e-12 1.29598e-11 7.67077e-12 4.5826e-13 -1.77202e-12 2.35801e-12 0.5 -1.64377e-11 -1.47506e-11 -2.25748e-11 8.17992e-12 8.24519e-12 2.57736e-12 
965 2 1.35576 3.65812 3.79896 1 0 0 4.14658e-12 -2.44653e-11 8.58328e-13 -6.19891e-12 1.84295e-11 2.7497e-12 -1.3412e-12 4.59741e-12 -3.62418e-12 0.5 -4.41996e-12 -1.5579e-11 -1.60784e-11 9.45969e-12 -7.38619e-12 9.60395e-12 
61 1 1.66165 0.448609 3.51352 0 0 0 -6.34442e-12 -2.16006e-11 -1.45489e-11 4.01961e-12 1.94616e-11 1.43639e-11 1.14266e-12 1.70087e-13 4.08373e-12 0.5 -1.23759e-11 -4.34542e-13 -2.32105e-12 2.2832e-12 4.62127e-12 -4.88129e-13 
680 2 1.1901 2.78151 3.34693 0 0 0 -7.63508e-12 -2.2774e-11 1.99685e-12 9.47347e-12 1.91101e-11 -6.20955e-12 8.80759e-13 2.55156e-12 -5.54424e-13 0.5 -2.14625e-13 -4.67962e-12 -9.26741e-12 1.00031e-12 3.18113e-12 1.83828e-12 
251 1 4.71421 3.03382 3.89556 0 0 0 3.33904e-12 -7.35877e-12 7.37207e-12 -2.5131e-12 5.74114e-12 -8.12482e-12 3.83949e-12 2.98304e-12 -4.36159e-12 0.5 -9.6905e-12 8.60162e-13 1.73034e-12 -7.10926e-12 1.932e-12 7.50076e-12 
517 2 4.0089 2.89361 2.21821 0 0 0 3.33428e-12 -6.66579e-12 7.96365e-12 -6.86567e-12 1.24583e-11 -7.58888e-12 1.71444e-12 -4.64388e-13 -6.39673e-13 0.5 7.23356e-13 2.76345e-12 -4.69931e-12 -1.52454e-12 -9.19934e-13 2.46074e-12 
6 1 3.42179 1.77987 2.73262 0 0 0 -3.79063e-12 -7.72457e-12 3.99238e-12 4.89895e-12 5.9756e-12 -4.21358e-12 4.7005e-12 -5.0066e-13 4.10495e-12 0.5 -1.25896e-11 7.17282e-12 2.80698e-12 7.99349e-12 6.06521e-12 4.85167e-12 
519 2 4.43345 3.61408 3.03093 0 0 0 9.28084e-13 -4.00052e-12 1.05126e-11 -1.29788e-12 4.88745e-12 -1.54626e-11 1.15088e-12 1.16077e-12 -1.06711e-12 0.5 4.74621e-12 5.44933e-12 3.73562e-12 -1.04612e-12 -2.21067e-12 -9.39759e-13 
509 2 1.93621 1.51608 3.62332 0 0 0 2.26035e-12 -1.98389e-11 -1.29139e-11 -3.65353e-13 1.72585e-11 1.12736e-11 -7.65552e-13 6.63115e-12 3.81837e-13 0.5 1.32221e-12 -2.24184e-12 -1.88686e-11 -2.23098e-12 4.25584e-12 5.43933e-12 
142 1 1.03537 1.94217 2.17003 0 0 0 -8.45584e-12 -1.78397e-11 -4.15171e-12 8.4958e-12 1.80738e-11 5.64334e-12 6.09109e-12 3.13505e-13 1.09558e-12 0.5 -8.33011e-12 -1.27206e-11 -5.12492e-12 5.9078e-12 -3.6369e-12 5.26956e-12 
941 2 0.192203 2.2584 2.77344 1 0 0 -1.13553e-11 -2.59987e-11 -2.58333e-12 9.19303e-12 2.53767e-11 9.71513e-12 3.89428e-12 3.84518e-13 1.62381e-12 0.5 -4.92619e-12 -2.21647e-11 -1.90439e-11 2.56712e-12 2.72026e-12 -9.66098e-13 
919 2 0.650389 4.31552 3.53385 1 0 0 -1.24872e-12 -2.62109e-11 1.18897e-11 5.39309e-13 2.39072e-11 -1.74202e-12 3.59699e-12 2.18088e-12 -4.34178e-12 0.5 -1.34128e-11 -2.57772e-11 -1.52878e-11 1.13908e-11 8.42112e-13 8.22731e-12 
95 1 3.53903 3.77814 2.2694 0 0 1 4.72585e-12 -5.86653e-12 1.04974e-11 -4.02227e-12 1.2493e-11 -1.26116e-11 -3.02537e-14 2.88597e-13 1.07198e-12 0.5 -4.14856e-12 -1.50213e-12 -2.0537e-11 -2.06118e-13 1.54314e-12 -2.29231e-12 
458 1 1.5569 4.7536 3.86468 1 0 0 -4.68869e-13 -1.864e-11 1.50135e-11 -1.48057e-13 1.62622e-11 -1.29095e-11 -2.77554e-12 6.05443e-13 1.48455e-12 0.5 -9.02404e-12 -5.78779e-12 -5.33104e-12 7.57959e-12 -1.72042e-12 1.40983e-13 
41 1 1.14045 0.960462 2.01108 0 0 0 -6.84296e-12 -1.69112e-11 -8.27711e-12 6.81597e-12 1.75316e-11 6.86574e-12 5.76305e-12 -1.0115e-12 3.05286e-12 0.5 -7.31589e-12 -8.33423e-12 -2.0903e-11 4.22287e-12 1.03086e-11 -5.34544e-12 
814 2 0.27112 1.22753 3.40348 1 0 0 -3.32254e-12 -2.2266e-11 -6.47373e-12 -7.49131e-12 4.62435e-11 2.39298e-12 3.58146e-12 -1.71628e-12 5.90053e-12 0.5 -2.23142e-11 -2.89219e-11 -2.72221e-11 1.70898e-11 -2.12002e-13 2.42445e-11 
130 1 1.70518 2.6475 2.50033 0 0 0 -5.48518e-12 -1.93151e-11 -1.32694e-12 1.92627e-12 1.67007e-11 8.76566e-12 5.13569e-12 -2.24078e-12 -2.34008e-12 0.5 -3.33805e-12 -1.29456e-11 -1.44969e-11 7.51038e-12 4.84216e-12 9.24084e-12 
12 1 2.70258 1.09575 2.61132 0 0 0 1.68811e-12 -1.16485e-11 -6.1829e-12 -3.8482e-12 1.28477e-11 4.98807e-12 3.6185e-12 -3.93884e-12 3.72204e-12 0.5 -2.07268e-11 -2.11565e-11 -1.45661e-11 1.49752e-11 4.88059e-12 1.42521e-12 
512 2 3.18635 2.03167 3.78747 0 0 0 -1.11088e-12 -2.8579e-12 5.94356e-12 1.7841e-12 1.77149e-12 -4.74694e-12 4.20624e-12 -7.95219e-13 2.94313e-12 0.5 -3.64239e-12 -7.16728e-12 -7.56281e-12 2.36768e-12 -2.25617e-12 8.53454e-12 
151 1 2.47925 3.30049 3.34132 0 0 0 1.85597e-12 -1.12617e-11 7.86435e-12 2.83831e-12 2.36498e-11 -1.74118e-11 -1.23623e-12 -1.39136e-12 6.93528e-13 0.5 -5.25313e-12 -1.66473e-11 -1.6282e-11 6.41997e-12 2.36848e-12 4.21867e-12 
667 2 0.284319 1.3208 2.4071 0 0 0 -6.03203e-12 -2.1135e-11 -6.08272e-12 2.09715e-12 8.16428e-12 -1.38328e-12 3.08097e-12 1.46316e-12 3.50124e-12 0.5 -1.16578e-11 -4.87235e-11 -3.24357e-11 -2.53592e-12 -3.26333e-13 -9.19e-13 
38 1 3.79042 0.738149 3.87284 0 0 0 -1.62541e-12 -8.49959e-13 -5.77998e-12 1.05634e-13 1.08168e-12 4.57808e-12 -3.93564e-12 -1.565e-12 9.92014e-13 0.5 -9.82401e-12 -3.01665e-12 -2.84233e-11 -1.18355e-11 5.54232e-12 1.98447e-11 
936 2 0.319906 3.36948 3.50683 1 0 0 -1.09516e-11 -2.23684e-11 5.87882e-12 5.9389e-12 1.22833e-11 -2.03392e-12 3.65526e-12 -2.98431e-12 -2.45862e-12 0.5 -2.27074e-14 -2.74084e-11 -1.17148e-11 -7.54366e-13 1.17432e-11 1.48739e-11 
531 2 4.80013 0.808197 2.48028 0 0 0 -5.67834e-12 -9.77514e-12 -4.64528e-12 9.70346e-12 1.17183e-11 8.39141e-12 1.39131e-12 -2.22154e-12 -1.71332e-12 0.5 -4.71683e-12 -1.87545e-13 -9.49283e-12 -5.32233e-12 -8.56066e-12 -4.29629e-12 
527 2 4.03024 4.31517 3.61908 0 0 0 4.43834e-12 -2.96955e-12 1.16826e-11 3.60307e-13 3.31486e-12 -1.31363e-11 -1.67856e-12 -2.70637e-13 6.60066e-13 0.5 -3.46346e-11 -1.44173e-11 -4.26158e-12 -1.59087e-11 1.29235e-11 1.18606e-11 
383 1 4.36293 4.34454 2.28892 0 0 1 1.14237e-12 -6.3519e-13 9.65268e-12 4.43428e-12 -3.11521e-14 -8.99667e-12 1.54763e-13 -1.4321e-12 -5.04104e-13 0.5 -5.58629e-12 -9.41456e-13 3.48325e-12 1.02598e-11 -2.39598e-12 -3.04707e-12 
992 2 0.695682 0.439322 3.85269 1 1 0 -2.57034e-12 -2.31712e-11 -1.133e-11 5.63592e-12 6.4961e-11 9.415e-12 1.34488e-12 3.71938e-12 2.19648e-12 0.5 -1.60212e-11 -7.97708e-11 -2.06038e-11 2.1647e-11 -9.45958e-12 3.71009e-11 
521 2 4.93615 4.52796 3.25037 0 0 0 3.417e-12 -1.48622e-12 1.06923e-11 1.51745e-12 1.37589e-12 -8.92797e-12 -1.21944e-12 1.66703e-13 1.73151e-13 0.5 -1.38474e-11 -1.19155e-11 -1.43179e-11 -4.0214e-12 3.15557e-12 9.12947e-12 
136 1 1.88498 1.67143 2.62265 0 0 0 -6.41905e-12 -2.03572e-11 -9.97463e-12 8.46666e-12 1.8099e-11 7.4355e-12 2.17158e-12 3.31965e-12 2.28388e-12 0.5 -2.44354e-11 -2.11175e-11 -1.49443e-11 1.66822e-11 -5.01785e-12 6.45825e-12 
540 2 4.51129 0.178592 3.415 0 0 0 -3.39412e-12 -6.10056e-12 -6.9052e-12 1.97916e-12 5.22743e-12 5.28905e-12 -1.86874e-12 1.75909e-12 -1.72256e-12 0.5 6.95686e-12 4.37216e-12 1.16733e-12 -2.832e-12 -3.13645e-12 3.57215e-12 
510 2 3.85504 2.56842 3.17077 0 0 0 -4.69132e-12 -7.67857e-12 5.18495e-12 4.14779e-12 7.25695e-12 -5.53678e-12 5.22314e-13 -9.18955e-13 -1.0416e-13 0.5 7.28234e-12 1.10787e-11 -5.51149e-12 1.08255e-12 9.75323e-13 7.38804e-12 
19 1 4.3655 1.84749 2.40882 0 0 0 -5.52798e-12 1.48485e-12 1.42372e-12 4.95916e-12 -3.54155e-12 -1.44384e-12 2.47057e-12 1.79336e-13 1.19703e-12 0.5 -1.9149e-11 -4.73765e-13 -1.02986e-11 1.26337e-12 8.39997e-12 1.98066e-12 
543 2 1.07326 1.78713 3.19513 0 0 0 -2.80485e-12 -2.24449e-11 -4.51754e-12 6.4538e-12 2.35645e-11 2.33447e-12 4.58135e-12 4.45052e-12 1.95174e-12 0.5 -1.04551e-12 -2.36974e-12 5.26953e-13 -4.30662e-12 2.2529e-12 1.82258e-12 
773 2 4.78774 2.22773 3.30763 0 0 0 -3.86794e-12 -6.2231e-12 4.65409e-12 3.55966e-12 6.39436e-12 -7.59395e-12 1.47454e-12 1.51267e-12 -1.57031e-12 0.5 3.41756e-12 -1.82594e-11 -3.25631e-11 -5.16106e-12 5.1952e-12 3.43149e-11 
555 2 2.23907 2.5056 3.89852 0 0 0 -1.44072e-12 -9.62159e-12 8.90081e-12 -5.45844e-12 -9.02421e-12 5.14944e-13 -9.91416e-13 -4.17336e-13 1.02279e-12 0.5 5.81704e-12 -5.52204e-13 1.9206e-12 2.22706e-12 7.39115e-14 6.01121e-12 
429 1 0.306925 2.40106 3.75655 1 0 0 -9.55419e-12 -2.43659e-11 -3.21196e-12 1.65676e-11 -2.22452e-12 2.22282e-11 2.49024e-12 8.51458e-13 4.53718e-12 0.5 -5.66993e-12 -3.03546e-11 -1.9321e-11 5.69659e-12 -3.71344e-12 1.51882e-11 
316 1 0.889712 0.512877 2.86992 1 0 0 -8.37327e-12 -2.33463e-11 -1.2217e-11 6.95556e-12 1.91066e-11 8.23711e-12 2.9207e-12 6.08874e-13 4.06821e-12 0.5 -2.21314e-13 -4.72852e-12 -1.05015e-11 5.81741e-13 1.79315e-12 5.47787e-12 
503 2 3.61689 0.768796 2.88623 0 0 0 8.1075e-13 -1.05948e-11 -6.02316e-12 -3.00087e-12 7.23688e-12 8.55627e-12 -4.67118e-13 -1.59166e-12 2.3679e-12 0.5 -7.9568e-12 7.8423e-13 -2.49629e-11 1.19716e-12 -3.75559e-12 6.72169e-12 
896 2 0.702247 3.66501 2.63024 1 0 0 7.11481e-13 -2.3418e-11 1.09271e-11 -2.02863e-12 2.61307e-11 -5.30845e-12 2.52993e-12 1.53843e-12 -1.172e-12 0.5 -1.62803e-11 -1.87241e-11 -2.81872e-11 2.13046e-12 -8.22759e-12 3.20858e-12 
690 2 1.93672 4.67095 2.92999 0 0 0 2.5107e-13 -1.38763e-11 1.55921e-11 1.3346e-12 8.33524e-12 -1.41908e-11 8.02855e-14 1.19357e-12 4.30068e-12 0.5 -1.57022e-11 -8.35873e-12 -4.34491e-12 1.07365e-11 -9.21943e-13 -1.91129e-12 
641 2 3.45948 3.5005 3.22725 0 0 0 8.61146e-13 -4.02012e-12 1.05148e-11 -1.27526e-12 7.10542e-12 -1.2798e-11 -9.96499e-13 -4.61819e-13 1.39052e-12 0.5 8.03648e-13 1.26669e-12 -2.3982e-11 5.18779e-12 -1.23888e-11 2.18826e-11 
528 2 3.34275 4.80215 2.44243 0 0 0 2.61372e-12 -1.00721e-11 1.00022e-11 -2.98346e-12 1.02419e-11 -8.04769e-12 -3.82389e-13 2.72036e-13 7.27207e-13 0.5 8.53385e-13 1.82516e-12 1.29778e-14 4.10066e-13 -1.32123e-12 -3.07589e-12 
225 1 2.66658 2.37982 2.99794 0 0 1 -6.36805e-12 -1.23055e-11 6.64167e-12 7.61275e-12 1.11651e-11 -5.70093e-12 -9.21817e-13 1.91195e-12 6.20112e-13 0.5 -5.95438e-12 -1.27555e-11 -6.70313e-12 7.99833e-12 -4.26904e-12 6.75269e-13 
119 1 0.614476 2.84343 2.06694 0 0 0 -1.17118e-11 -1.83782e-11 5.89013e-12 8.90381e-12 1.88985e-11 2.56932e-12 6.06423e-12 1.02766e-12 2.11228e-13 0.5 -1.57266e-12 -2.23559e-11 -3.08702e-11 5.01103e-12 6.70042e-12 -5.72103e-12 
94 1 2.46189 3.50067 2.00487 0 0 1 -1.07661e-12 -1.32725e-11 1.44603e-11 1.82721e-12 1.20483e-11 -1.45237e-11 2.37252e-12 -5.68546e-13 1.00503e-12 0.5 4.54006e-12 4.95139e-12 2.7237e-12 4.31274e-12 3.23249e-12 5.85354e-12 
522 2 2.58373 2.50801 2.00903 0 0 0 -1.84896e-12 -1.34283e-11 6.18429e-12 4.37841e-12 1.2063e-11 -6.10014e-12 4.52926e-12 -1.62021e-12 2.00646e-12 0.5 3.13104e-13 1.08235e-12 -1.04867e-11 3.46864e-12 2.39065e-12 1.27702e-12 
200 1 2.46549 0.208501 4.19599 0 1 0 1.81522e-12 -8.22475e-12 -8.29236e-12 -4.19159e-12 7.00004e-12 6.14551e-12 -4.43506e-12 -2.32602e-12 8.13724e-12 0.5 -9.66727e-12 -5.28268e-12 -1.7971e-11 4.33799e-12 5.74354e-12 5.00207e-12 
114 1 4.70709 1.00384 4.17137 0 0 0 -2.62877e-12 -4.08699e-13 -3.41909e-12 1.37968e-12 -3.19834e-12 1.80914e-12 -1.39882e-12 -1.40983e-12 -1.55736e-12 0.5 -7.40456e-12 -3.14996e-12 -4.77697e-12 -2.20123e-12 -3.85485e-12 1.68932e-12 
820 2 1.30996 2.29325 4.21136 1 0 0 -1.59073e-12 -1.81495e-11 3.6598e-12 1.15587e-12 1.71231e-11 -4.53428e-12 -3.07042e-12 -1.05134e-12 5.32385e-12 0.5 3.21021e-12 3.51669e-12 -5.89599e-12 1.5502e-11 6.74308e-13 7.43449e-12 
47 1 4.65574 1.582 5.43553 0 0 0 1.56344e-12 3.39024e-12 -1.56409e-13 -1.66644e-12 -2.70802e-12 6.02259e-13 2.90343e-13 2.59117e-12 1.07991e-12 0.5 -7.68999e-12 -1.23012e-11 -5.23365e-12 -3.29943e-12 -5.82698e-12 1.04384e-11 
824 2 1.64908 3.83184 5.79238 1 0 0 1.33596e-12 4.77827e-12 1.55174e-11 3.55733e-12 -8.8695e-12 -2.42595e-11 -2.75231e-12 1.24027e-12 -1.16912e-12 0.5 -9.85496e-12 -2.88658e-12 -1.87465e-11 -3.38892e-13 5.656e-12 4.59407e-12 
172 1 3.44268 0.338821 4.72114 0 1 0 -3.75046e-12 6.19589e-12 -3.84694e-12 2.9626e-12 -5.57024e-12 2.3192e-12 -5.36306e-12 -1.19289e-12 3.21748e-12 0.5 -9.35552e-12 -9.968e-12 -3.69326e-11 -8.16021e-12 8.46298e-12 1.50151e-11 
718 2 0.202285 2.03673 5.5128 0 1 0 -2.28161e-12 -8.25059e-12 6.11828e-12 3.93524e-12 6.16532e-12 -4.66656e-12 -3.71297e-12 -1.84132e-13 -1.13452e-12 0.5 -2.63473e-11 -9.98305e-12 -1.74685e-11 1.46678e-11 -1.65589e-11 2.71607e-11 
505 2 0.484433 3.5018 5.83385 0 0 -1 -2.22728e-12 4.20796e-12 1.28955e-11 1.7683e-12 -4.4555e-12 -1.10472e-11 3.92504e-13 -1.61919e-12 5.13718e-12 0.5 2.90853e-15 -3.00192e-11 -1.5628e-11 2.071e-12 -7.5085e-13 2.47928e-11 
524 2 3.99535 2.7352 5.70679 0 0 0 8.93548e-12 1.8345e-11 1.41276e-11 -9.19219e-12 -1.41865e-11 -1.2983e-11 -4.52917e-12 1.05605e-11 5.2824e-12 0.5 2.9113e-13 2.97256e-12 2.98897e-12 -2.34922e-12 -2.43139e-12 2.55921e-12 
839 2 0.579387 1.61472 4.31101 1 0 0 2.36344e-12 -2.40689e-11 -4.48123e-12 -1.02402e-11 3.81315e-11 -3.43597e-12 -1.50782e-12 7.42396e-13 4.68227e-12 0.5 -3.35497e-13 -1.58254e-11 -9.95306e-12 1.32466e-11 -7.07694e-13 1.84138e-11 
937 2 2.44361 3.38654 4.3372 1 0 0 9.98114e-13 -8.92378e-12 7.46101e-12 -5.30822e-12 5.08437e-12 -7.81034e-12 -2.63374e-12 -1.83361e-12 4.41165e-12 0.5 -1.12986e-11 -2.88708e-12 -1.97594e-11 1.29413e-12 6.37414e-12 1.01091e-11 
811 2 2.60623 3.94632 5.52498 1 0 0 -6.98417e-13 5.07452e-12 8.70668e-12 5.40181e-12 -3.96537e-12 -1.01457e-11 -3.71518e-12 -7.815e-13 -1.71331e-13 0.5 -6.78029e-12 -6.84885e-12 -2.04892e-12 -3.03849e-12 -2.20655e-12 6.50675e-12 
827 2 1.52088 3.18133 4.66349 1 0 0 2.10843e-12 -1.81253e-11 4.44185e-12 -3.597e-12 1.53478e-11 -4.35629e-12 -4.92625e-12 -2.66351e-12 3.81902e-13 0.5 -1.04019e-11 -5.28638e-12 -2.30992e-11 1.07828e-12 4.44875e-12 1.42688e-11 
149 1 4.05563 3.93275 4.61881 0 0 0 -1.17332e-12 4.39586e-12 1.07547e-11 9.90539e-13 -2.16052e-12 -7.71897e-12 -2.20328e-12 1.01704e-12 3.36982e-12 0.5 -3.85386e-12 -8.66826e-12 2.38614e-12 2.15422e-11 -1.56536e-11 2.92578e-12 
925 2 0.623246 3.59905 4.52293 1 0 0 4.11344e-12 -1.45107e-11 2.74855e-12 -4.97037e-12 1.25885e-11 -2.3745e-12 -4.82261e-12 2.70787e-12 -8.49713e-13 0.5 -3.31199e-12 -7.18177e-12 -1.68962e-12 1.02375e-12 -5.03593e-12 4.05503e-12 
168 1 3.33522 4.60361 5.33159 0 0 0 1.74183e-13 4.44369e-12 1.03399e-11 6.85476e-13 -6.10011e-13 -1.07539e-11 -2.99922e-12 -1.49506e-12 3.25369e-12 0.5 -1.1492e-11 -8.27557e-12 -8.28848e-12 4.15459e-12 -7.66334e-12 6.88499e-12 
928 2 1.57471 4.4088 4.9787 1 0 0 2.1255e-12 4.26914e-12 1.52893e-11 -5.02479e-12 -1.19959e-12 -1.69739e-11 -1.73435e-12 1.04879e-12 -1.10596e-12 0.5 -8.39935e-12 -5.68904e-12 -9.01283e-12 -1.16273e-12 2.53868e-12 6.03654e-12 
148 1 3.93983 3.74234 5.7457 0 0 0 -4.21448e-12 1.79344e-11 1.41009e-11 8.16107e-13 -1.55794e-11 -1.68545e-11 -4.81671e-12 -2.42064e-12 7.66679e-12 0.5 1.13234e-12 9.40474e-12 4.35675e-12 5.26773e-12 3.43698e-12 4.55503e-12 
914 2 4.69244 4.38506 5.24423 0 0 0 -6.33964e-12 1.16466e-11 1.08594e-11 6.98275e-12 -8.61035e-12 -9.41643e-12 -7.09864e-12 -9.77784e-13 -7.3397e-15 0.5 -9.78219e-13 2.14202e-12 3.10752e-12 6.54077e-13 1.03438e-12 1.96166e-12 
23 1 2.87773 1.11847 4.05716 0 0 0 -3.84174e-12 -5.71863e-12 -7.29099e-12 2.25463e-12 4.48822e-12 5.46229e-12 2.18069e-12 4.61845e-13 2.51742e-12 0.5 -8.11593e-12 -6.92287e-12 -6.83299e-12 -2.4558e-12 3.35518e-12 6.34609e-12 
594 2 2.05586 1.97089 4.80241 0 0 0 2.17112e-12 1.19871e-12 8.30237e-12 -1.89148e-12 -2.01774e-12 -7.19785e-12 2.14739e-12 -1.94203e-12 6.67424e-12 0.5 -6.71975e-13 -1.14991e-11 -2.95286e-12 9.3529e-12 -4.56473e-12 6.87008e-12 
539 2 3.78455 1.04074 5.46912 0 0 0 -7.70757e-13 1.35335e-11 2.36801e-12 4.22884e-12 -9.32558e-12 -1.67162e-12 -1.9784e-12 4.12825e-12 -3.09984e-13 0.5 -5.28488e-12 -4.21017e-11 -1.93121e-11 -1.1515e-11 -9.69957e-12 3.23077e-11 
730 2 0.461765 1.11568 5.16957 0 1 0 -2.37563e-12 -9.21146e-12 3.9403e-12 4.74951e-12 1.14702e-11 -1.33661e-11 -1.80481e-12 -7.06249e-14 6.17101e-12 0.5 1.0266e-11 -6.03137e-12 -7.43677e-12 2.95934e-12 -3.69752e-12 1.58503e-11 
689 2 3.51933 0.103669 5.69619 0 1 0 -2.17565e-12 1.19997e-11 -4.44045e-12 5.79815e-12 -1.11481e-11 -7.04649e-13 -1.30424e-12 -9.02181e-13 9.8911e-13 0.5 -2.04287e-11 -5.01925e-11 -4.04894e-11 -8.14829e-12 3.61059e-12 3.60087e-11 
450 1 0.619288 4.79871 4.46892 1 0 0 1.39595e-11 -1.07758e-11 1.11025e-11 -1.21898e-11 8.95078e-12 -8.99839e-12 -8.70033e-12 -2.26478e-12 1.87032e-12 0.5 -4.73552e-12 -1.26931e-11 -2.97499e-11 1.57504e-12 -5.74183e-12 1.6122e-11 
549 2 4.49944 0.500888 5.01435 0 0 0 -7.97141e-12 5.16251e-12 -1.40914e-12 6.27461e-12 -4.12982e-12 1.77033e-12 -1.63803e-12 1.33974e-12 -3.5569e-12 0.5 1.09711e-11 1.27115e-11 1.82045e-12 -7.65554e-12 -2.86914e-12 8.10704e-12 
591 2 1.44655 1.12499 4.40334 0 0 0 6.0341e-12 -1.83025e-11 -1.0034e-11 -9.80556e-12 1.59083e-11 6.22944e-12 -2.67227e-12 3.73682e-12 6.21684e-13 0.5 -9.09474e-12 -1.37719e-11 -1.5872e-11 3.06557e-12 1.97572e-12 1.24901e-11 
243 1 1.20287 1.83742 5.34381 0 1 0 -4.03702e-12 -2.83295e-12 -4.89072e-13 3.20008e-12 2.0412e-12 3.14322e-12 -1.65894e-12 -9.4233e-13 3.8386e-12 0.5 -7.17119e-12 -9.39434e-12 -2.52189e-12 6.89717e-12 -2.55932e-12 8.27488e-12 