ITEM: TIMESTEP
30500
ITEM: NUMBER OF ATOMS
1000
ITEM: BOX BOUNDS xy xz yz pp pp pp
0.0000000000000000e+00 1.0000000000000000e+01 0.0000000000000000e+00
0.0000000000000000e+00 1.0000000000000000e+01 0.0000000000000000e+00
-0.0000000000000000e+00 1.0000000000000000e+01 0.0000000000000000e+00
ITEM: ATOMS id type x y z ix iy iz vx vy vz fx fy fz omegax omegay omegaz radius c_2[1] c_2[2] c_2[3] c_2[4] c_2[5] c_2[6] 
58 1 4.26326 4.7839 0.964205 44 0 0 8.49974 -5.89768 -0.86969 -1691.44 3848.22 -507.528 0 0 0 0.5 -334.698 -1651.54 -1227.38 641.627 -239.798 -97.7719 
736 2 0.376545 0.234644 1.2265 -129 0 0 -506.968 24.3568 15.34 2471.43 738.38 -818.767 0 0 0 0.5 -135949 -947.251 -1123.46 6713.69 4515.37 72.7138 
541 2 2.15451 3.26458 1.64178 109 1 1 -171.978 -16.7143 -0.0111408 2160.37 -3240.49 -2218.93 0 0 0 0.5 -16625.4 -852.607 -275.153 -899.891 324.459 -444.641 
18 1 2.02248 2.71117 0.843509 -200 -1 1 -278.329 17.3851 -13.2321 -1388.53 1255.49 30.8817 0 0 0 0.5 -41000.7 -450.185 -51.2982 2908.9 -1944.42 168.586 
767 2 0.46062 2.13616 0.324881 -65 0 0 -232.922 -23.2149 -48.9169 443.386 -378.35 -651.874 0 0 0 0.5 -28491.8 -344.156 -1436.86 -2758.62 -5840.67 -701.372 
696 2 2.09623 1.00352 1.21283 96 1 0 -384.351 2.32658 -3.50883 -1177.78 -601.327 -1249.2 0 0 0 0.5 -78314.9 -853.964 -437.59 1053.3 -662.465 -414.597 
837 2 2.82251 0.572775 1.17606 -159 0 1 -401.068 0.478913 8.98317 -3040.48 1744.71 1130.83 0 0 0 0.5 -86351.8 -657.67 -1354.44 1238.73 1702.96 -152.7 
697 2 1.96009 1.73438 1.71062 -49 0 1 -334.243 3.30837 -22.4563 325.225 545.238 223.851 0 0 0 0.5 -58777.6 -1471.05 -676.11 1167.2 -3848.65 -361.924 
580 2 1.11699 3.15309 0.696131 191 1 1 -174.074 -8.80124 -23.0628 75.5559 -74.4999 -117.594 0 0 0 0.5 -15880.9 -55.0063 -314.494 -787.538 -2078.93 -129.085 
774 2 1.91673 4.10835 0.518907 -37 0 1 -76.5787 -18.5384 -27.7382 1688.45 638.534 1028.74 0 0 0 0.5 -4204.37 -102.238 -1569.09 -477.562 -1971.39 -254.825 
66 1 1.64413 3.74134 1.93937 -45 0 1 -118.324 -35.3209 19.5 -2104.61 2631.57 739.264 0 0 0 0.5 -7701.11 -1452.28 -717.164 -1216.13 1532.07 -324.156 
266 1 4.94012 0.724032 0.484345 -76 0 0 -394.927 -16.9773 8.22209 -3282.48 -853.79 900.146 0 0 0 0.5 -83553.9 -896.87 -631.958 -2896.52 2217.59 -257.975 
81 1 4.69616 3.17687 0.0737249 -22 0 1 -203.661 -5.39724 -4.45167 -728.894 332.436 759.328 0 0 0 0.5 -22259.3 -62.7428 -358.346 -540.562 -71.8436 -160.168 
168 1 2.00859 0.682759 0.227549 55 1 0 -430.991 7.13049 0.548799 1472.42 -1809.94 1537.15 0 0 0 0.5 -97620.1 -559.519 -378.68 2067.85 -267.417 447.398 
359 1 1.5565 2.45712 1.88484 -64 0 0 -276.302 20.8417 -7.60318 -523.733 2340.81 260.157 0 0 0 0.5 -40527.5 -982.339 -423.303 3364.23 -1313.15 39.37 
80 1 0.858385 4.96132 0.588831 -11 0 0 38.9883 -4.92216 12.0708 -2129.62 1899.81 2307.93 0 0 0 0.5 -1852.81 -485.439 -459.371 1328.77 230.216 -626.863 
378 1 1.14422 0.599288 0.414305 -94 0 1 -452.179 8.25771 10.1236 3201.27 -2781.13 155.425 0 0 0 0.5 -108084 -333.262 -222.21 2850 2350.33 371.265 
789 2 0.726596 2.24981 1.37399 -136 0 0 -258.72 5.96783 2.17007 3242.77 -1453.19 2402.45 0 0 0 0.5 -36652.9 -175.706 -832.586 1143.33 -820.147 259.632 
269 1 1.35502 0.730358 1.90748 -58 0 1 -416.432 11.8838 3.07483 -887.494 1164.52 296.633 0 0 0 0.5 -90994.1 -663.535 -305.977 2917.12 561.876 262.982 
278 1 0.445419 1.10956 0.847014 139 1 0 -400.416 12.5828 11.919 -1531.22 -26.0225 -656.848 0 0 0 0.5 -85220.7 -299.334 -232.78 3219.41 2907.35 -96.0635 
7 1 1.25143 1.21456 1.10091 -66 0 1 -393.277 28.2222 15.6218 233.384 305.382 -854.135 0 0 0 0.5 -81589 -426.039 -304.481 5860.49 3054.91 47.6093 
163 1 4.89538 1.14434 1.32179 92 1 0 -366.773 -11.1749 0.830907 -2363.05 5496.54 -1815.89 0 0 0 0.5 -70994.4 -1309.44 -1172.29 -1096.42 -346.481 606.849 
498 1 0.311729 0.316774 0.380286 166 1 0 -472.159 -5.5875 -6.22614 406.268 2029.54 -498.441 0 0 0 0.5 -116681 546.147 -33.5199 -1248.34 -1580.09 7.87465 
865 2 2.37469 4.13446 1.05406 -37 0 1 -109.378 2.72501 15.559 2613.42 -2848.42 446.564 0 0 0 0.5 -9494.76 -1679.73 -1969.51 1584.81 1265.34 -243.073 
262 1 0.540546 4.03479 0.65958 -57 0 0 -48.1003 -6.64498 -6.87051 1213.98 250.218 -142.156 0 0 0 0.5 -1887.86 422.962 -285.56 39.5666 -47.3482 -131.547 
839 2 0.0767248 2.46374 0.889291 -74 0 1 -194.588 -20.9086 15.656 -2536.89 177.273 -2814.5 0 0 0 0.5 -21694.6 -917.05 -1223.3 -1163.62 836.014 419.713 
925 2 1.98928 4.96527 0.92972 6 0 0 18.4088 -3.46559 -0.623046 -1734.92 -803.366 52.8448 0 0 0 0.5 -804.172 -1159.85 -1029.34 893.85 -811.103 498.022 
501 2 1.33977 4.39255 0.23375 -5 0 1 -69.8473 9.29918 -12.1827 1289.54 -203.247 -1910.9 0 0 0 0.5 -4467.49 -1826.34 -1182.27 1543.65 -229.882 -743.44 
918 2 4.19607 3.04677 1.06806 -56 0 1 -235.812 23.3608 2.76098 329.09 990.258 2110.26 0 0 0 0.5 -29686.9 -578.316 -1238.64 3038.82 -348.431 -154.554 
506 2 4.57078 4.447 1.68599 -41 0 0 -52.2574 -14.6281 -6.66491 524.996 -490.907 1028.47 0 0 0 0.5 -1643.01 -393.459 -1152.89 -116.762 -818.285 523.747 
146 1 0.410723 3.36879 0.00509894 -11 0 0 -135.715 -21.1156 6.29189 -1109.9 1540.34 2532.74 0 0 0 0.5 -10818.6 -418.892 -756.342 -1245.01 1152.05 -287.439 
995 2 0.723644 3.54094 1.30833 -64 0 1 -124.04 -12.3604 52.216 828.386 -242.694 -1347.98 0 0 0 0.5 -8311.51 -121.146 -2019.08 -697.729 3791.39 157.536 
733 2 2.6488 2.18397 0.876157 217 1 0 -286.408 10.1553 11.5109 -514.817 1103.72 621.946 0 0 0 0.5 -43897.9 -1091.33 -166.66 2500.16 1871.5 -242.273 
946 2 3.46413 0.278344 1.43551 -24 0 1 -456.066 -12.957 -1.23255 174.742 3821.09 1549.09 0 0 0 0.5 -111365 -1325 -918.489 -999.669 -589.328 -464.418 
138 1 2.52707 4.19846 1.89846 -55 0 1 -117.982 15.1963 0.256376 -2633.22 3029.47 1077.82 0 0 0 0.5 -7536.64 -1237.09 -1224.3 1918.65 -51.6132 48.5311 
772 2 3.037 1.76306 1.59248 -95 0 0 -303.724 -15.0775 22.303 -96.6822 1259.22 -1949.31 0 0 0 0.5 -48160.8 -1100.52 -924.991 -2125.61 3319.8 644.356 
684 2 3.80308 1.05263 1.07928 130 1 1 -355.81 -9.41194 -4.61931 635.447 -1036.95 1622.29 0 0 0 0.5 -66484.5 563.597 54.802 -1250.3 -1106.33 117.364 
259 1 2.97413 3.55632 1.95173 -102 0 0 -184.762 14.5782 -7.67779 4750.67 -2831.28 -539.423 0 0 0 0.5 -19244.6 -1359.88 -1071.96 2135.72 -320.24 -132.48 
49 1 3.97353 1.86697 1.51596 99 1 0 -288.033 7.65192 2.61837 -1675.99 -611.866 -1962.46 0 0 0 0.5 -43473.6 4.40452 -403.37 1252.29 70.7949 245.284 
962 2 3.04151 0.313987 0.423257 -18 0 0 -504.353 15.9393 3.22372 890.569 468.928 -3408.28 0 0 0 0.5 -133263 -644.803 -829.091 4473.2 1083.45 -659.078 
623 2 3.17133 3.11168 1.13326 -32 0 1 -231.498 6.18666 -3.30908 884.689 -2360.57 -222.731 0 0 0 0.5 -28163.5 -980.944 -579.793 1038.18 -404.436 221.711 
548 2 0.195753 4.51215 1.3126 -28 0 0 -37.1926 1.2991 2.24119 -191.991 664.256 784.529 0 0 0 0.5 -811.457 -42.7479 -174.044 124.117 165.858 -103.193 
277 1 1.61917 4.32742 1.33267 -209 -1 1 -71.5593 -16.9257 -12.1691 -2008.63 368.56 -690.347 0 0 0 0.5 -4444.25 -175.857 -904.592 73.5269 523.352 -738.877 
113 1 1.23073 4.5832 1.85909 18 0 0 -44.8712 2.61959 -4.35887 152.342 953.823 -611.317 0 0 0 0.5 -1771.75 -311.701 -1336.82 436.965 842.027 -400.109 
389 1 3.18172 1.54467 0.669245 -106 0 0 -343.386 4.18236 5.22642 1588.68 -1969.23 -524.088 0 0 0 0.5 -62708.1 -1041.35 -570.613 1713.13 707.003 67.6823 
877 2 2.97264 2.84856 0.0873149 168 1 1 -209.334 1.04377 0.213654 2100.03 -390.895 781.199 0 0 0 0.5 -24443.5 -73.3296 -172.814 205.681 -483.913 36.3938 
327 1 2.92207 3.9141 0.80434 1 0 1 -142.16 4.47281 -6.42883 453.378 744.724 -1771.97 0 0 0 0.5 -12796.3 -1019.34 -483.045 1129.58 231.479 121.458 
862 2 3.00396 2.59407 1.95692 -64 0 1 -268.015 4.93132 -15.0465 722.195 90.6893 -861.99 0 0 0 0.5 -37773.1 -407.758 -823.201 788.8 -1777.77 -238.26 
885 2 3.77818 3.01756 0.312501 -27 0 1 -198.743 5.67789 14.515 -912.736 -1880.96 -810.056 0 0 0 0.5 -21504.5 -1342.62 -1627.82 769.462 940.658 22.6865 
238 1 3.65671 3.8407 0.5804 -76 0 1 -151.234 11.3759 9.07929 1437.2 653.325 141.696 0 0 0 0.5 -13539.1 -761.482 -401.674 1009.39 1087.45 -201.586 
184 1 3.82933 4.4948 0.0585283 66 0 0 -45.286 0.0261182 -0.506298 -25.327 -338.61 137.149 0 0 0 0.5 -1067.46 163.416 -262.093 36.9751 45.929 382.377 
347 1 4.56033 1.41344 0.460191 -36 0 1 -357.1 11.514 2.37144 -911.044 251.206 -702.672 0 0 0 0.5 -66947.6 -1220.94 -161.9 2474.59 396.744 -142.216 
233 1 4.53759 2.30214 0.722224 -19 0 1 -282.085 3.22264 -9.65563 847.144 1002.85 1176.21 0 0 0 0.5 -42284.7 -933.467 -1101.61 691.213 -2040.88 -237.463 
112 1 4.51481 3.91997 0.580424 -20 0 0 -147.167 16.5071 6.47368 2198.94 -2705.31 -1556.04 0 0 0 0.5 -11906.8 -1487.63 -226.305 1675.78 622.721 -749.539 
229 1 4.85347 2.91629 1.74649 -63 0 0 -243.994 14.3683 -5.49656 504.243 515.939 1051.4 0 0 0 0.5 -31419.8 -391.19 -331.621 1958.03 -895.375 -55.4136 
379 1 0.748825 1.68898 2.57501 -53 0 1 -341.385 17.6748 -5.16904 -138.049 269.666 -128.083 0 0 0 0.5 -61047.3 -259.278 -35.581 3208.34 -947.23 93.2945 
291 1 0.784174 2.25402 3.74683 -82 0 -1 -267.149 9.35524 -42.1275 908.416 -570.595 -489.056 0 0 0 0.5 -37940.7 -1019.38 -880.171 1531.05 -5992.88 372.525 
680 2 2.66698 0.15175 2.28379 -116 0 0 -457.38 6.16164 -4.86108 3625.91 -940.273 410.315 0 0 0 0.5 -110444 -1919.71 -472.494 2142.36 -575.614 -301.981 
368 1 2.50024 4.13871 3.49522 -27 0 0 -105.755 12.1167 -3.50895 -912.63 1097.68 237.706 0 0 0 0.5 -8122.19 -624.181 -27.8978 1865.83 -217.849 -57.0682 
215 1 1.1122 0.979163 2.91215 -57 0 0 -363.94 -10.8895 8.91242 69.7904 -527.454 113.829 0 0 0 0.5 -69299.4 -7.34106 32.3683 -1924.99 1760.17 200.124 
805 2 0.0581341 0.69828 2.42002 -90 0 1 -423.456 16.0027 1.05472 -1066.97 1081.45 -1112.34 0 0 0 0.5 -94273.2 -460.9 -659.945 3786.6 185.739 -127.435 
644 2 1.95774 0.4082 2.92762 179 1 -1 -406.903 -14.023 -9.62748 -1601.94 829.357 2151.83 0 0 0 0.5 -87325.2 -214.03 -805.434 -2785.57 -1551.32 -360.116 
383 1 1.91256 1.95061 2.66271 -60 0 0 -316.917 3.96978 -17.6382 808.118 -913.767 -354.66 0 0 0 0.5 -52998.8 -768.868 -534.288 1215.37 -2994.04 160.18 
587 2 2.21126 0.832688 3.97306 -76 0 0 -325.824 -42.2184 17.9593 -1208.12 -479.321 -251.64 0 0 0 0.5 -55960.8 -1033.34 -159.155 -7478.98 3030.51 336.055 
363 1 0.710492 0.271776 2.53879 111 1 -1 -421.942 -7.60824 -3.95398 -3081.97 1530.3 820.673 0 0 0 0.5 -93232.9 -1097.7 250.119 126.809 -648.829 -229.086 
871 2 2.30453 1.35145 2.95465 -39 0 0 -332.615 -18.741 14.5977 1767.71 -637.289 23.2853 0 0 0 0.5 -58445.2 -492.503 -817.885 -3072.86 2843.16 138.822 
632 2 1.63326 1.38044 3.58103 2 0 0 -323.474 -10.763 0.645121 114.61 218.598 80.9907 0 0 0 0.5 -55291.9 337.759 -587.396 -1488.16 855.926 -137.494 
102 1 4.34745 1.44136 3.19092 -51 0 0 -349.55 3.40455 0.353003 -1223.76 845.317 -527.218 0 0 0 0.5 -64229.6 -976.704 -334.392 973.976 45.7591 81.6425 
913 2 2.35141 3.19648 3.44976 -35 0 1 -180.634 1.70968 4.3674 409.662 -503.446 254.369 0 0 0 0.5 -17716.4 1008.94 -796.143 452.874 954.157 -317.154 
292 1 0.0452697 2.34877 3.6749 -96 0 -1 -289.931 7.07589 -34.8341 5.65958 -355.333 -311.776 0 0 0 0.5 -44912.6 -135.084 -1673.46 1309.64 -5374.8 315.442 
536 2 1.4606 2.52211 2.89205 -55 0 -1 -292.865 29.9964 -2.01135 -570.507 1162.27 1272.04 0 0 0 0.5 -45010.8 -840.964 202.805 4850.78 15.7749 -212.611 
860 2 1.88612 4.23821 2.64414 -4 0 1 -112.296 0.033924 -8.85515 -1539.25 701.805 -14.0197 0 0 0 0.5 -7383.75 -1711.1 -1057.12 719.306 -245.449 -570.39 
403 1 3.71403 0.206284 2.29744 60 1 0 -492.791 5.15855 2.75725 -729.469 -4.73209 1404.84 0 0 0 0.5 -127705 -22.2548 -578.182 1392.07 558.155 40.5145 
868 2 2.01537 2.28432 3.64407 -56 0 1 -276.513 -6.159 5.6241 886.961 -296.862 -947.951 0 0 0 0.5 -39661.7 494.032 466.887 6.66864 1401.52 -410.457 
524 2 2.31965 1.03295 2.15419 -79 0 0 -397.555 -16.2453 0.0521933 -1044.42 1491.96 -346.503 0 0 0 0.5 -83234.9 -1531.15 -564.372 -2839.38 -169.355 195.345 
894 2 1.74348 0.104355 2.05854 -44 0 1 -459.488 -27.1807 9.22902 -907.207 -1138.81 382.705 0 0 0 0.5 -110634 -1412.48 -227.092 -5822.42 1843.66 -76.8918 
800 2 0.00668369 0.794012 3.38241 158 1 -2 -415.245 2.98238 -14.0778 -355.934 192.168 846.118 0 0 0 0.5 -90366.5 -15.5058 -794.277 672.037 -3127.49 -10.6955 
24 1 1.73582 3.11189 3.95369 202 1 -1 -168.514 -1.80835 9.25235 -1096.65 1470.48 1267.99 0 0 0 0.5 -16063.6 -851.707 -941.31 47.6213 1431.99 -346.799 
470 1 3.20804 2.12616 2.72565 -13 0 0 -278.651 -13.6893 -4.28713 1739.66 -1355.74 -1176.45 0 0 0 0.5 -41132.9 -652.828 -450.115 -1552.67 -426.147 9.51103 
735 2 3.52652 2.9603 3.91498 -29 0 1 -216.843 8.32817 12.3814 820.39 -703.549 506.041 0 0 0 0.5 -24909.4 -579.634 -251.225 1672.96 1452.22 -12.9494 
664 2 2.43166 3.60507 2.59487 -11 0 1 -148.386 3.56485 -1.50535 -197.096 -166.406 1634.29 0 0 0 0.5 -12561.2 -1619.2 -769.012 1105.71 452.34 126.944 
14 1 4.59942 3.37149 3.89626 -44 0 0 -189.672 7.02589 -13.403 245.538 -131.612 -156.321 0 0 0 0.5 -18927.2 -51.8402 -130.729 746.249 -1273.48 18.4323 
405 1 0.821936 3.09572 3.945 -52 0 0 -161.887 -10.5437 -6.62253 -636.157 1772.91 -3219.5 0 0 0 0.5 -14925.5 -2033.87 -1251.33 -361.35 -619.465 395.42 
406 1 1.6714 4.37477 3.47043 -30 0 1 -86.919 -16.1067 4.95108 64.4786 -925.091 -133.127 0 0 0 0.5 -5937.17 -636.429 -1067.22 -197.21 439.411 -401.801 
836 2 1.34939 4.74426 3.96125 176 1 -1 -35.7997 -9.99703 30.4939 -1522.96 -201.63 130.341 0 0 0 0.5 -2950.78 -1328.86 -2030.13 1334.39 250.224 -73.2584 
604 2 -0.0149412 4.49232 3.86936 -11 0 0 -59.5961 8.28767 -25.5496 -290.593 -55.0568 -491.978 0 0 0 0.5 -2016.66 -78.0424 -506.641 265.403 -915.727 86.347 
314 1 0.196905 3.74567 2.11855 -35 0 1 -142.196 -3.65188 1.29527 94.8401 638.387 1836.3 0 0 0 0.5 -11309.3 -73.8059 -741.586 -245.672 202.481 -159.026 
301 1 0.794597 4.25688 3.15689 17 0 1 -71.111 -21.4058 24.4137 645.96 -1772.65 -849.787 0 0 0 0.5 -4037.6 -739.146 -1212.2 -305.174 223.558 784.009 
689 2 2.5913 2.85039 2.73467 -73 0 0 -235.527 -14.8331 -11.4381 -1204.85 -761.99 638.858 0 0 0 0.5 -29695.9 -1656.45 -1116.74 -1010.79 -983.013 -349.293 
503 2 4.16968 1.08765 2.07298 -63 0 0 -398.536 -6.78464 1.60289 -465.349 -723.13 154.325 0 0 0 0.5 -84156.7 -279.252 -149.618 -1368.43 244.063 183.073 
11 1 3.1916 0.360316 3.10336 -81 0 0 -473.294 19.0764 19.2976 -512.439 470.68 -538.602 0 0 0 0.5 -117205 -452.993 48.3257 4832.29 4937.86 -158.352 
863 2 0.274848 4.66767 2.91416 -4 0 0 -46.0008 -15.7289 9.85872 -2171.44 2252.27 887.001 0 0 0 0.5 -2507.28 -257.02 -815.584 383.201 -225.608 538.557 
251 1 3.95919 2.62376 2.08584 -34 0 0 -263.864 18.0825 1.10198 -1422.7 1118.09 -1500.98 0 0 0 0.5 -36945.8 -745.762 -611.798 2984.95 102.33 -160.588 
948 2 0.715218 3.35558 2.86976 167 1 0 -142.936 -17.0894 -8.00175 104.529 38.5619 172.49 0 0 0 0.5 -10721.7 -117.292 -80.1297 -1256.13 -633.096 -29.0039 
63 1 3.87007 2.96466 2.97385 148 1 0 -240.022 13.5719 -13.1929 -1253.26 2518.84 763.85 0 0 0 0.5 -30453 -259.934 -680.861 2053.1 -1701.89 -44.7998 
878 2 2.86734 2.01777 3.56164 30 0 0 -269.308 -10.0836 -5.97973 -126.651 1116.81 -520.981 0 0 0 0.5 -38297.7 -778.018 -931.651 -1253.51 -679.211 369.363 
89 1 0.962301 3.92768 3.9568 -27 0 1 -91.8448 -11.0742 21.8428 842.219 -770.217 371.784 0 0 0 0.5 -4214.29 -793.478 -1216.28 -182.025 996.013 -62.845 
822 2 3.25641 1.10406 2.18125 56 1 1 -396.719 -6.255 12.376 349.432 -1946.69 1898.45 0 0 0 0.5 -83090.7 -680.861 -611.619 -1091.12 2412.37 627.902 
246 1 3.8392 2.2262 3.88848 232 1 0 -260.779 -34.4768 14.8583 247.252 -809.252 89.9662 0 0 0 0.5 -35685.1 -913.746 -159.063 -4588.91 2065.88 264.356 
869 2 0.879411 4.67087 2.36063 -28 0 1 -24.8919 -7.81324 18.0882 -575.667 -100.472 2466.03 0 0 0 0.5 -1067.51 -262.869 -1317.59 125.469 885.074 139.567 
134 1 3.18473 3.54981 3.42407 -27 0 1 -177.497 19.4369 -19.5792 2618.44 -1048.43 170.481 0 0 0 0.5 -17854.3 -884.347 -243.984 2751.04 -1696 567.629 
527 2 3.68182 0.85892 3.82299 -39 0 0 -375.547 -7.60605 -23.4005 544.431 -1543.81 -781.48 0 0 0 0.5 -74916.8 -157.376 -379.478 -1272.59 -4471.69 -281.077 
668 2 4.59036 2.02209 2.22457 -37 0 0 -309.422 -1.81116 2.33493 -1023.55 1141.72 311.014 0 0 0 0.5 -51997.9 -1559.42 -567.331 590.559 -430.284 -12.5805 
540 2 2.77868 4.97963 2.12798 -268 -1 1 6.82433 -3.40728 15.9876 1358.96 -1341.71 839.706 0 0 0 0.5 -251.528 -399.066 -792.177 197.343 -289.665 -3.70879 
43 1 3.33483 4.37362 3.92679 12 0 1 -117.116 19.8291 8.29526 -511.402 -1654.51 -1109.85 0 0 0 0.5 -7883.38 -1616.14 -293.92 2110.45 28.797 765.38 
681 2 3.8248 3.88963 2.8421 -29 0 1 -187.392 41.2117 -21.2446 438.571 -503.419 -264.61 0 0 0 0.5 -18514.9 -593.793 -336.323 3958.83 -1964.77 473.478 
835 2 4.38947 2.33783 3.16135 -66 0 0 -263.713 0.811832 1.98416 1225.5 -357.775 244.512 0 0 0 0.5 -36722.4 -836.292 -82.5565 429.458 204.89 143.204 
930 2 4.54089 1.06424 3.98598 -89 0 0 -392.438 14.3981 17.693 -2435.34 1398.76 -363.378 0 0 0 0.5 -82460.7 -713.019 -1049.68 3168.07 3054.98 366.857 
130 1 4.58114 0.229279 3.83525 -96 0 0 -450.418 -3.19018 -11.6834 319.377 -943.808 119.606 0 0 0 0.5 -106617 -356.767 -470.122 -836.781 -2536.8 377.89 
956 2 4.62763 0.120079 2.26274 -116 0 1 -497.304 18.5268 1.60117 -642.459 2430.32 898.275 0 0 0 0.5 -130379 -1113.11 -609.829 5266.36 726.346 -146.097 
929 2 4.82233 0.763053 3.07264 -61 0 0 -390.308 -24.7919 11.1191 -1189.73 -37.2753 -404.982 0 0 0 0.5 -80838.5 -1003.71 -458.319 -4603.5 2745.88 186.293 
151 1 4.82908 4.86364 3.06624 -22 0 0 -37.579 10.7877 12.098 198.532 -30.2918 -1182.55 0 0 0 0.5 -1230.05 -622.035 -372.838 734.549 471.759 -286.363 
806 2 1.97284 2.3002 4.85913 -73 0 0 -273.054 12.1985 -10.0048 916.546 1708.8 -547.252 0 0 0 0.5 -39675.7 -823.354 -302.873 2379.95 -1304.97 -229.012 
307 1 1.06219 2.5337 4.65594 166 1 -1 -258.448 10.9237 -29.0913 5154.14 -3493.2 1486.01 0 0 0 0.5 -36342.9 -928.169 -1325.97 3954.2 -3887.48 958.863 
932 2 2.33645 3.9732 5.15767 -9 0 0 -123.582 12.4323 -26.1348 2570.68 -1803.62 2491.13 0 0 0 0.5 -8612.31 -366.28 -1172.15 1398.72 -2041.96 565.221 
659 2 1.37126 0.843925 5.3664 -71 0 0 -444.498 4.34338 9.62877 -1800.42 956.04 -628.278 0 0 0 0.5 -103773 -422.113 -834.182 1275.81 1969.18 530.381 
763 2 0.695534 1.57178 5.05799 -66 0 1 -316.062 4.1171 -9.24755 737.881 -728.951 1451.91 0 0 0 0.5 -53128.2 -348.521 -741.733 982.314 -1315.17 282.469 
719 2 0.0680761 2.35619 5.42325 167 1 0 -254.312 18.7124 -14.681 -201.764 -1120.09 -449.356 0 0 0 0.5 -33815.3 263.245 -27.8195 2539.55 -1999.34 149.653 
272 1 1.86605 1.66973 5.76591 -109 0 -1 -325.1 -2.75292 31.5431 -256.393 456.377 -128.39 0 0 0 0.5 -55279.9 183.614 -506.117 -573.991 5398.97 -7.30416 
255 1 1.08738 1.69926 4.1904 -88 0 0 -314.591 -5.05219 -1.6239 -904.02 232.718 -129.04 0 0 0 0.5 -52408.6 -838.55 -1129.2 -317.662 -192.035 278.566 
482 1 1.49936 1.20881 4.67805 132 1 0 -325.56 -13.816 5.09014 1265.35 -958.221 -387.318 0 0 0 0.5 -56165.7 -566.514 -727.779 -2150.28 843.912 454.385 
651 2 3.46338 3.397 5.20406 -1 0 0 -176.139 23.4647 0.0635613 -517.729 -775.349 -87.0433 0 0 0 0.5 -16085.1 -9.18318 -28.596 2235.48 60.2048 123.485 
626 2 0.280167 0.647985 4.95818 -47 0 -1 -431.724 -1.79177 -1.74882 -1930.34 922.043 1436.9 0 0 0 0.5 -99631.5 -984.004 -1294.75 1110.47 -15.6083 469.362 
249 1 0.984314 0.0691302 4.85767 -110 0 0 -524.622 9.55213 6.63036 3486.58 -1849.58 -1750.48 0 0 0 0.5 -146033 -1247.9 -661.099 3894.14 1487.52 121.775 
832 2 3.77338 0.747397 4.81339 -79 0 0 -424.744 2.69668 0.0322521 -7.13566 1170.93 -246.062 0 0 0 0.5 -94461 -546.292 -23.9565 603.035 6.478 113.953 
889 2 1.00675 4.19377 5.97437 -15 0 0 -68.6623 -16.173 -29.2196 -3656.19 -989.704 3843.7 0 0 0 0.5 -3748.46 -1122.21 -1413.61 -155.464 -805.931 531.259 
555 2 0.572141 0.544986 5.96523 -115 0 0 -422.788 -28.9044 -14.8748 -2973.67 2599.17 -2559.92 0 0 0 0.5 -95214.6 -1279.93 -717.331 -5600.64 -4261.04 396.492 
675 2 1.56857 4.30061 5.19247 20 0 0 -119.257 13.8612 -0.0102033 5602.87 -4636.62 -4156.83 0 0 0 0.5 -10136.2 -2066.06 -982.404 2775.02 1126.5 -417.725 
633 2 1.75924 0.460357 5.80243 -145 0 1 -462.332 0.387202 27.7648 3263.5 -3243.63 -358.575 0 0 0 0.5 -112724 -423.31 -1434.71 826.227 6971.86 -43.3187 
677 2 2.16164 3.4271 5.85128 -2 0 0 -168.855 1.55215 -10.2164 1820.53 -1583.8 -1596.9 0 0 0 0.5 -15417.9 88.067 -578.832 478.547 -278.93 -730.465 
500 1 0.216406 2.11565 4.56664 -24 0 0 -277.592 -1.56106 -39.9234 1235.2 532.704 615.914 0 0 0 0.5 -40862.4 -362.425 -1253.08 437.388 -6267.58 442.645 
306 1 2.92185 1.53049 5.41487 109 1 0 -338.644 -2.41483 -7.61366 -81.4923 -249.389 -594.17 0 0 0 0.5 -60377.2 196.644 -700.719 -246.035 -2012.07 190.313 
760 2 4.60401 1.66224 5.38886 -60 0 0 -342.137 35.502 10.4673 987.191 1587.74 624.964 0 0 0 0.5 -62048.1 -1267.06 -126.822 6667.6 1600.57 -134.75 
637 2 4.45673 2.6082 4.91728 -56 0 1 -240.557 -9.12598 23.1225 -888.592 264.928 1119.58 0 0 0 0.5 -30537.8 -64.793 -658.297 -1078.41 3212.7 20.9567 
418 1 1.58603 3.35861 4.84617 -43 0 0 -155.962 5.86134 1.852 -1673.05 -2130.62 381.291 0 0 0 0.5 -12350.5 935.291 -365.323 1123.48 365.292 106.494 
68 1 1.40422 2.49178 5.53465 85 1 0 -271.439 31.0979 -19.4933 4252.97 -4037.93 -69.9894 0 0 0 0.5 -40251.1 -1750.26 -855.305 5705.23 -2136.62 -14.3498 
208 1 2.07144 4.44531 4.34168 -7 0 0 -82.0614 3.29294 14.1563 2506.97 422.295 -379.54 0 0 0 0.5 -4723.3 -310.759 -1104.51 890.489 -321.863 898.147 
645 2 2.37949 1.58846 4.67468 30 0 0 -331.519 -5.96312 -1.4463 -790.983 447.156 -1144.03 0 0 0 0.5 -58621.8 -1580.3 -804.89 -256.291 -224.898 -69.2238 
117 1 0.380825 3.1213 4.76799 -73 0 0 -155.336 -24.2914 2.21668 -4144.39 2437.4 1989.27 0 0 0 0.5 -14301.8 -1904.02 -496.369 -490.643 397.514 -37.3107 
748 2 2.72236 0.711362 4.96738 163 1 0 -418.805 -5.57958 -8.41679 -60.2348 396.498 -589.741 0 0 0 0.5 -92077.1 -1023.45 -467.892 -627.749 -2153.51 778.545 
400 1 3.81893 1.74726 5.07796 -72 0 -1 -329.27 -2.6785 -16.3347 17.533 -3256.67 380.982 0 0 0 0.5 -57722.4 -1189.27 -305.143 398.475 -3346.08 309.859 
121 1 4.34922 4.48603 5.37353 80 0 1 -90.1009 0.647678 -8.44776 435.945 -50.8614 -68.1094 0 0 0 0.5 -4044.73 2.58353 -32.3397 6.52868 -430.713 6.61862 
161 1 3.06263 0.0770666 5.54909 -77 0 0 -483.632 -15.2746 -26.4765 -2516.29 -419.975 3893.95 0 0 0 0.5 -123833 -794.399 -1494.85 -3156.38 -6014.71 -116.171 
872 2 2.91955 4.63403 4.92633 -20 0 0 -50.7076 -6.5149 -3.11756 2219.93 -1580.99 408.205 0 0 0 0.5 -1756.01 -161.448 -1.33137 780.994 -333.26 1.98822 
625 2 2.71891 2.53859 4.28275 0 0 0 -236.593 2.81219 3.83145 -1141.18 1147.04 -539.383 0 0 0 0.5 -28624 591.025 252.159 716.292 529.041 -69.3541 
321 1 4.60686 3.60741 4.92928 117 1 0 -165.895 10.2232 9.54203 -358.818 76.6857 -271.802 0 0 0 0.5 -14276.4 -48.6237 28.9541 859.469 930.001 -72.6968 
430 1 2.98896 1.27855 4.08705 -88 0 0 -352.369 1.27928 -11.7731 690.145 -583.879 1017.9 0 0 0 0.5 -66331.9 -1054.86 -768.745 608.428 -1787.66 132.42 
589 2 3.86249 3.7665 4.36543 -22 0 1 -180.024 14.9997 -1.55158 1660.84 -2116.41 1434.15 0 0 0 0.5 -17344.2 -572.732 -273.944 1976.17 -281.656 479.099 
692 2 0.96079 4.94716 5.37416 72 0 0 31.8255 -30.3462 1.63667 -6141.76 6819.06 -746.486 0 0 0 0.5 -2455.66 -2843.47 -28.822 2444.77 492.103 462.468 
563 2 0.416843 3.81159 5.29864 -12 0 0 -96.4992 9.79031 -24.8151 2375.24 -849.695 -903.005 0 0 0 0.5 -5756.3 -1172.37 -586.3 1329.55 -1247.52 112.069 
95 1 0.566605 0.653313 4.0492 -98 0 -1 -424.333 22.4397 15.76 662.62 -352.036 -1036.32 0 0 0 0.5 -94413.5 -167.177 -729.246 5005.56 3573.27 -84.464 
438 1 4.26411 3.15501 5.76083 -15 0 0 -197.139 -9.27148 9.50053 293.402 -967.321 -341.475 0 0 0 0.5 -20404.1 -179.085 -119.141 -784.949 1044.23 -128.283 
920 2 3.37291 2.45772 4.88637 -67 0 0 -231.28 8.54636 21.8779 -1864.71 3899.74 -541.089 0 0 0 0.5 -28532 -955.973 -355.909 1814.15 2402.99 320.885 
494 1 0.729393 3.15864 5.67379 107 1 0 -152.708 -4.00449 10.251 -3630.15 2863.89 1375.23 0 0 0 0.5 -13688.5 -1774.52 -163.33 1255.11 1030.07 -30.1988 
609 2 0.663665 4.54811 4.56464 5 0 -1 -76.8919 1.43951 -15.1706 582.78 3830.54 3066.66 0 0 0 0.5 -3250.32 615.157 -312.389 696.793 -265.26 -226.419 
274 1 0.0775305 3.6746 4.22745 -106 0 0 -122.088 -10.6644 -6.76562 -1307.39 2170.93 -659.615 0 0 0 0.5 -8128.67 -641.619 -347.187 -68.6985 -477.277 82.7905 
673 2 2.80121 3.52193 4.29432 -10 0 -1 -178.313 21.7097 -4.71781 -1094.3 -246.901 341.799 0 0 0 0.5 -17024.3 58.1305 -31.1491 2381.36 -271.785 -102.522 
828 2 4.8674 0.991938 5.44038 -64 0 0 -418.318 -10.5992 22.8735 -2427.48 585.65 -2219.55 0 0 0 0.5 -92709.2 -1608.38 -899.122 -1137.88 5053.93 -50.4971 
407 1 3.11638 2.66374 5.93428 143 1 0 -239.818 -3.05615 -14.5776 1952.82 -14.9021 -1154.71 0 0 0 0.5 -31066.9 -25.9281 -366.305 -317.424 -1366.64 -41.7558 
744 2 2.59293 3.10091 5.1206 -11 0 0 -183.392 -20.5591 -16.9478 696.328 -203.152 -412.955 0 0 0 0.5 -17501.7 -292.481 -316.996 -1856.05 -1512.07 -251.546 
486 1 0.955926 0.516311 7.5881 143 1 0 -447.462 13.9045 15.5225 1309.04 -78.1744 3337.55 0 0 0 0.5 -105113 -1688.93 -803.792 3797.36 3300.16 162.386 
499 1 2.22659 4.55092 6.35006 -11 0 0 -57.087 -12.711 10.205 1456.49 -1707.33 -2484.94 0 0 0 0.5 -3443.92 -1533.05 -1418.52 1078.22 -291.419 436.171 
629 2 0.573151 1.93681 6.99459 -97 0 -1 -277.86 -10.9469 17.8889 547.369 2360.07 -534.437 0 0 0 0.5 -40353 -629.563 -48.8653 -1294.6 2385.22 373.344 
137 1 4.71265 1.33303 6.24854 -89 0 0 -350.776 -5.22131 13.0397 -691.129 615.367 464.22 0 0 0 0.5 -64486.7 -159.536 -1398.47 -922.132 2404.88 -395.852 
483 1 2.27776 2.69516 6.37945 9 0 -1 -186.954 -29.4657 10.2646 -222.605 1207.18 642.19 0 0 0 0.5 -19335.7 -6.45641 -154.076 -2513.23 1649.74 -5.77804 
917 2 4.3576 1.38596 7.9988 77 1 -1 -327.95 -9.20888 2.71053 732.842 729.418 -760.553 0 0 0 0.5 -56429.6 282.407 85.8574 -1396.78 471.519 -232.954 
358 1 4.66127 2.1855 7.49423 -49 0 -1 -258.333 -6.0403 7.21902 123.9 -383.275 1470.63 0 0 0 0.5 -35190.4 -621.68 53.0523 -143.847 846.186 -400.945 
599 2 3.89944 3.83337 6.15399 -41 0 0 -159.733 19.8248 11.6883 3680.94 -2109.77 -2001.3 0 0 0 0.5 -16080.7 -1331.91 -927.779 3298.43 1049.16 -338.926 
235 1 1.18788 0.879088 6.44823 -101 0 0 -436.265 20.6504 -35.644 2750.14 -1955.86 3197.28 0 0 0 0.5 -102413 -1122.68 -1951.54 6090.49 -8288.81 178.852 
10 1 1.56285 2.08576 6.88425 -46 0 0 -266.437 -22.0518 2.70547 -1798.3 -316.259 -2143.18 0 0 0 0.5 -39059.9 -1158.68 -895.788 -2005.05 -58.8803 117.708 
82 1 0.950842 2.20194 6.10988 106 1 -1 -256.246 -6.51605 8.97788 1445.65 -1582.02 1127.21 0 0 0 0.5 -34899.2 720.587 62.7528 -86.3825 1330.06 83.0015 
655 2 3.89822 3.61029 7.51867 -113 0 1 -176.433 11.5217 10.0059 2691.97 -3894.84 -469.186 0 0 0 0.5 -16926.8 -2494.37 -1723.03 2231.16 1129.81 -616.487 
867 2 2.53076 0.574207 7.71949 -124 0 -1 -453.429 -2.45625 2.50241 -1057.65 4380.44 416.643 0 0 0 0.5 -107252 568.251 -33.0203 1631.7 470.594 -723.26 
340 1 1.8842 1.93165 7.74967 -43 0 0 -288.645 3.29397 10.2275 -1975.82 1003.21 -890.042 0 0 0 0.5 -45139.9 -551.294 -1526.58 1049.69 1348.52 -163.005 
560 2 0.641398 1.01677 7.12698 69 1 0 -398.212 -1.30323 9.50964 701.175 1336.72 -1422.65 0 0 0 0.5 -84184.4 -1256.55 -577.99 604.878 2078.35 836.926 
610 2 0.543814 1.4034 6.23685 -93 0 0 -367.913 -2.12221 -2.5693 -2428.96 3918.3 -283.972 0 0 0 0.5 -72288.3 -166.717 -482.72 917.949 -1290.07 344.582 
908 2 1.08047 1.62871 7.71832 -103 0 0 -282.721 -43.4355 15.9735 -1170.74 -1076.64 -472.887 0 0 0 0.5 -42092.2 -802.506 4.56985 -6366.47 2447.69 626.786 
183 1 0.973529 2.71195 7.30014 -18 0 0 -201.59 -9.26275 2.98387 -931.423 -987.472 -61.1946 0 0 0 0.5 -21697.5 -797.009 -257.446 -189.673 741.762 -413.416 
554 2 1.51137 2.91697 6.49355 -70 0 0 -197.019 -10.7291 3.54247 -1741.54 404.225 -400.258 0 0 0 0.5 -20525.2 329.513 147.505 -636.125 613.192 252.283 
69 1 2.4033 3.70901 6.83857 -57 0 1 -162.697 10.2379 17.9473 2305.96 -3298.1 1155.05 0 0 0 0.5 -15862.7 -2268.01 -1434.06 2302.78 1823.58 -715.497 
362 1 3.08821 0.594567 7.00807 -89 0 -1 -467.719 2.92172 -20.9354 410.387 -312.627 -187.384 0 0 0 0.5 -114650 -134.172 -600.654 710.69 -5105.9 -12.2827 
399 1 1.68714 3.76305 6.41198 -56 0 -1 -123.301 10.4843 -11.7913 83.2525 -963.967 759.678 0 0 0 0.5 -10389.9 -285.245 -1732.29 1905.17 -810.3 -163.923 
906 2 2.42977 1.69531 7.16537 121 1 -1 -325.353 -4.86774 -25.9257 2416.04 -1427.6 602.775 0 0 0 0.5 -57741.7 -470.123 -514.802 82.8442 -4573.48 66.1928 
517 2 1.80292 3.66662 7.80921 -57 0 0 -160.758 -15.7857 2.56616 1995.78 -876.524 1059.68 0 0 0 0.5 -14652.4 -1793.22 -180.011 -182.73 -17.6793 -185.154 
770 2 2.07396 0.706612 6.796 -108 0 -1 -470.838 3.04261 -0.790351 1315.66 -213.525 144.409 0 0 0 0.5 -116455 -22.4417 19.9436 838.135 -467.816 39.8122 
661 2 0.348852 2.41677 6.24599 -59 0 0 -271.512 -4.05752 15.3408 -753.06 -2589.07 -782 0 0 0 0.5 -39608.3 -1370.51 -494.406 270.809 2414.04 -228.469 
788 2 1.90223 2.9293 7.40424 39 0 0 -193.348 -13.1829 8.86657 145.275 -1755.07 -1184.17 0 0 0 0.5 -19569.1 -737.371 -135.179 -1247.42 988.555 -292.456 
939 2 0.679053 3.40435 7.59126 -9 0 0 -148.02 10.752 8.27366 1307.74 1204.1 764.152 0 0 0 0.5 -12348.8 -699.372 -345.075 1270.65 709.004 -239.833 
76 1 1.9299 4.41801 7.35197 15 0 1 -51.0037 -5.192 -17.7714 -3706.96 -454.966 3915.8 0 0 0 0.5 -2968.07 -1393.25 -735.83 957.342 810.996 -390.794 
325 1 3.25854 1.86753 6.76175 141 1 -1 -328.667 2.8993 -26.9057 -596.549 -150.068 317.96 0 0 0 0.5 -57107.5 -879.5 -1082.34 705.168 -4434.92 -483.526 
881 2 3.53975 4.43564 7.88489 13 0 -1 -46.7467 -2.99644 -16.6908 -1384.54 2949.84 925.829 0 0 0 0.5 -1437.08 -2518.57 -767.622 704.365 -219.407 -214.567 
530 2 2.92078 3.12114 7.5425 -27 0 0 -193.913 4.51758 15.2238 -515.595 804.341 -239.184 0 0 0 0.5 -19933.4 -668.606 -272.055 865.049 1882.8 -691.325 
9 1 3.15051 1.30481 7.48971 159 1 0 -338.169 4.93387 -6.61189 -227.924 -3722.84 538.2 0 0 0 0.5 -59759.9 815.055 -365.021 2157.51 -1418.35 -430.303 
622 2 2.96712 3.29174 6.56283 -48 0 -1 -180.661 20.0999 2.72102 1306.66 -2192.85 -896.883 0 0 0 0.5 -17490.9 -495.775 150.002 2711.75 599.42 -168.524 
60 1 1.20535 4.41863 7.66703 2 0 0 -29.7441 -5.34385 42.9027 -5137.06 3228.6 -825.095 0 0 0 0.5 -2158.32 -1258.97 -1142.01 952.667 543.872 450.295 