ITEM: TIMESTEP
118000
ITEM: NUMBER OF ATOMS
1000
ITEM: BOX BOUNDS xy xz yz pp pp pp
0.0000000000000000e+00 1.0000000000000000e+01 0.0000000000000000e+00
0.0000000000000000e+00 1.0000000000000000e+01 0.0000000000000000e+00
0.0000000000000000e+00 1.0000000000000000e+01 0.0000000000000000e+00
ITEM: ATOMS id type x y z ix iy iz vx vy vz fx fy fz omegax omegay omegaz radius c_2[1] c_2[2] c_2[3] c_2[4] c_2[5] c_2[6] 
120 1 3.15938 1.53918 0.0712078 0 1 0 -0.00151785 0.00411498 0.00178545 0.00147235 -0.00391515 -0.00153382 0.00185821 -0.000685592 -0.00135341 0.5 -0.00151211 -0.00713517 -0.000472796 -0.000773672 -7.26688e-05 -0.00131157 
525 2 2.11694 1.23738 1.70334 0 0 0 -0.00100176 -0.00488606 -0.00577976 0.000778241 0.00404526 0.00495394 -0.00077683 -0.000296631 0.00126034 0.5 -0.000102783 -0.000542582 0.000121657 0.000587273 0.000520144 -0.000436772 
371 1 4.95857 3.68523 1.58074 0 0 1 0.0010946 -0.00316356 0.00514162 -0.000766229 0.00260381 -0.00463726 0.000743638 8.20871e-05 0.000183943 0.5 0.000241595 -0.00278181 0.00360905 -0.000461347 -0.000411896 -5.25869e-06 
18 1 1.98156 2.69154 0.52998 0 0 0 -0.000611226 0.000932095 0.00417241 0.000462293 -0.00110796 -0.0035948 0.00266141 -0.00140857 0.00109385 0.5 0.000159378 -0.00501412 -0.00272748 0.0037339 0.00385842 -0.00355029 
94 1 2.46208 3.50316 2.00206 0 0 1 -0.000510111 -0.00395269 0.00466264 0.000713913 0.00319812 -0.00410598 0.00122214 -0.000637514 0.000241191 0.5 0.00164353 0.00150687 0.0013293 0.00123771 0.00175807 0.00211354 
25 1 1.41572 0.709135 1.08725 0 0 0 -0.00023062 -0.000535491 -0.00709632 -6.25125e-07 0.000335806 0.00655745 0.00229571 -0.000284189 0.000994411 0.5 -0.00317795 -0.014874 -0.00683983 0.0057851 0.00425311 -0.00626624 
378 1 4.61925 2.40609 0.0701264 0 0 1 -0.000269626 0.00207181 0.00423022 0.0005665 -0.00207582 -0.0037935 0.00294697 0.000767159 -0.000503986 0.5 -0.00145014 -0.00343925 -0.00150511 -0.00220639 -0.00105206 -0.00391963 
8 1 3.44124 2.06963 1.7413 0 0 0 0.000284664 -0.00260171 0.00221871 -0.000176923 0.00204555 -0.00217683 0.00231291 -0.000941993 0.000290363 0.5 -0.00116665 -0.000882511 0.0007532 0.00132113 0.0022161 -0.000536625 
629 2 4.07646 2.61646 1.1955 0 0 1 0.00104082 -0.00119855 0.00450476 -0.000719868 0.000751354 -0.00409173 0.00284188 -0.000463399 -5.23027e-05 0.5 -0.00298743 -0.00206592 -0.00321174 0.000457725 -0.000988981 -0.000966419 
5 1 2.34726 3.90348 1.05057 0 0 0 -0.00124881 -0.00444621 0.00477191 0.000728973 0.00259909 -0.00431809 0.000309623 -7.81029e-05 0.00121546 0.5 -0.000827933 -0.00128689 -0.00128069 0.000950406 0.00077333 -0.000994357 
650 2 0.461239 3.43917 1.13091 0 0 0 -0.00372304 -0.00416874 -0.00274489 0.0034834 0.00363994 0.00325261 0.00217695 0.00099872 0.000475146 0.5 -0.0044996 -0.00529818 -0.00399521 0.00324473 0.0035869 -0.00300761 
14 1 3.29512 3.1355 1.54206 0 0 0 -0.000107005 -0.00290784 0.00447936 0.000311889 0.00223121 -0.00398999 0.00178327 0.000139213 1.52543e-05 0.5 0.000190418 -0.00138936 -0.00161124 0.00099824 0.000588787 -0.00227923 
264 1 3.99571 3.86992 1.37646 0 0 0 0.0010567 -0.00312999 0.00532471 -0.000740614 0.00237018 -0.00493225 0.00216901 0.000412598 3.54297e-05 0.5 -0.000123979 0.000141143 -0.00232899 0.000928071 0.00104694 -0.000136029 
223 1 0.749341 2.48037 1.14609 0 0 1 -0.00291481 -0.00380665 -0.000975524 0.00262324 0.00327091 0.00112531 0.00296723 -0.000938903 0.00111897 0.5 -0.00347158 -0.00684011 -0.0197024 0.00217782 0.00768412 -0.00534555 
364 1 4.42317 4.23591 0.535989 0 0 1 -0.00087262 0.00193097 0.00662034 0.000821539 -0.00192939 -0.00603993 0.00175299 0.000113321 0.00111361 0.5 0.00058941 -0.000325682 0.000141536 -6.65565e-05 0.000892337 -0.000627987 
107 1 1.66186 1.61796 0.750153 0 0 1 -0.00180204 0.000681984 -0.0048968 0.00155434 -0.000763056 0.0047061 0.00327784 4.50655e-05 0.000392737 0.5 0.00303231 -0.00236669 -0.00190399 -0.000625601 0.000485879 -0.00223783 
529 2 2.67211 2.20012 1.06145 0 0 0 0.000958009 -0.000562866 0.00079763 -0.000880496 0.000155404 -0.000749232 0.00294031 -0.000642766 0.000703412 0.5 0.000291878 -0.000466359 -0.00109654 8.8811e-05 0.00148457 -0.000574447 
515 2 4.38633 0.437901 1.64461 0 0 0 0.000153165 -0.00320317 -0.00125756 -8.45454e-05 0.00261105 0.00112243 0.0018758 0.00026731 -0.000264939 0.5 -0.00502717 -0.00344866 -0.00587589 -0.00576894 0.00267119 0.00214963 
244 1 4.11361 0.570129 0.683091 0 1 1 0.000139595 0.000705302 -0.000579113 3.3458e-05 -0.000844239 0.000494103 0.00257176 0.000626432 -0.000616778 0.5 -0.00293281 -0.00264125 -0.00432629 -0.00159441 0.00197013 0.00137424 
20 1 2.90149 0.572281 1.78514 0 0 0 0.000553208 -0.00227136 -0.00216905 -0.000511809 0.00182065 0.0018294 0.00134039 -0.000851391 0.000269695 0.5 -0.00392517 -0.00644553 -0.00900872 0.000102147 0.00483246 -0.00504664 
280 1 4.09035 1.58248 1.14558 0 0 0 0.000660909 -0.000521825 0.00125378 -0.000475503 0.000110884 -0.00125917 0.00254089 -0.000306961 -0.000301717 0.5 -0.00459881 -0.00323655 -0.00853612 -0.00041228 0.00527894 0.00078282 
620 2 1.39633 4.37267 0.856619 0 0 1 -0.00336948 -0.00299055 0.00121351 0.00334696 0.00246048 -0.000490174 0.00260098 0.00102007 0.00010663 0.5 -0.000822331 -0.00566531 -0.0103064 -0.000444426 0.000326256 0.00199776 
1000 2 3.60267 2.3972 0.337531 0 1 1 0.000822946 0.00208511 0.00398772 -0.000359603 -0.00219523 -0.00368011 0.00221996 -0.000256112 -0.000458276 0.5 -0.00213213 -0.00581274 -0.0021172 -0.00151827 -0.00140595 -0.000851459 
103 1 3.28445 3.68368 0.695397 0 0 1 -0.000323721 -0.000449349 0.00602976 0.000362514 -9.30533e-05 -0.00540284 0.00224923 -0.00013231 0.000991456 0.5 -0.000144221 0.000725039 -0.000440341 0.000488422 0.00128669 -0.000856988 
622 2 0.932575 4.80346 0.0824386 0 0 1 -0.0038763 0.00094224 0.00370391 0.00405982 -0.00124518 -0.00296262 0.00383971 -0.00113077 0.00131302 0.5 0.000264078 0.000907132 -0.0052103 -0.000407286 -0.00168861 0.000995892 
506 2 0.7452 1.45369 1.18604 0 0 0 -0.00261997 -0.00395346 -0.00646924 0.00212363 0.00350178 0.00600022 0.00271431 -0.000172302 0.00190309 0.5 -0.000360554 -0.00889101 -0.000929819 0.0101792 0.00295286 -0.0055328 
626 2 1.29012 3.41757 0.567158 0 0 1 -0.00345005 -0.00176307 -0.00218305 0.00313803 0.00137328 0.00261066 0.000679081 -0.00199005 0.00141578 0.5 -0.00364331 -0.00568077 -0.00119281 0.00255963 0.00336666 -0.00213748 
553 2 0.743744 0.0792614 1.56835 0 0 0 0.000790709 -0.00317051 -0.00925683 -0.0010652 0.00300352 0.00851974 0.000340248 -0.00126048 0.00202436 0.5 0.000762877 0.000767459 0.000595272 -0.00025534 0.000555274 -0.000994857 
135 1 1.54681 3.20749 1.67778 0 0 0 0.001415 -0.00467723 -0.00145434 -0.00117494 0.00424491 0.00158089 0.00146097 -0.00322441 9.5576e-05 0.5 0.000542126 -0.0132704 -0.00183463 0.00325199 0.00163765 -0.000841721 
624 2 4.32428 4.92241 1.46812 0 0 1 0.00039064 -0.00245203 0.00605009 -0.000173782 0.00215825 -0.00565354 0.00155569 0.000822921 0.00028069 0.5 0.000610892 0.000589648 -0.00415063 0.000242805 -0.00110365 -0.00246932 
256 1 4.58684 1.36733 0.304619 0 0 0 0.000483469 0.00106907 0.000739245 -0.000169645 -0.00123668 -0.000730732 0.00277294 0.000657483 -0.00129708 0.5 -0.00241631 -0.00370671 -0.00867473 -0.00254968 0.00390041 -0.00206414 
260 1 3.31847 0.0707366 1.02713 0 0 0 3.56363e-05 -0.00100391 -0.00329615 8.81903e-05 0.000728363 0.0028869 0.00146244 0.00121042 -0.00104655 0.5 -0.00329223 -0.006927 -0.00646656 -0.00102433 0.00210073 -0.00360533 
616 2 3.19034 4.48307 1.50344 0 0 1 0.00103144 -0.00384364 0.00559628 -0.000683807 0.00291286 -0.00519495 0.000308997 8.5282e-05 0.000266378 0.5 -0.00125598 -0.000608009 -0.000864759 0.00100307 0.000621256 -0.000543 
106 1 1.74463 2.23846 1.52998 0 0 1 0.00107255 -0.00484917 -0.000799672 -0.00107354 0.0043789 0.000855062 0.00252948 -0.00118623 -0.000353209 0.5 -5.24377e-05 -0.00727063 -0.00173867 0.00186054 0.00324066 -0.00180372 
157 1 1.3893 4.18188 1.83822 0 0 0 0.000417815 -0.00520875 0.000811451 -0.000105767 0.00468735 -9.44339e-05 0.00200775 0.000735811 0.000433246 0.5 -0.0035172 -0.00996366 -0.0111583 0.00181407 0.00418617 -0.00229454 
516 2 2.3468 0.889116 0.6895 0 0 0 0.000314283 0.00247631 -0.00279524 -0.000435639 -0.00244532 0.00271952 0.000106875 -0.0020425 -0.00064336 0.5 0.000422911 -0.00132301 -0.000534516 0.000260191 0.00277147 -0.00231364 
183 1 0.417112 4.58546 1.00106 0 0 0 -0.00372583 -0.00575776 0.0038895 0.00385474 0.00552658 -0.00265991 0.00467799 0.000961811 0.00127975 0.5 0.0007564 -0.000598467 -0.000101331 0.000280928 -0.000364003 -3.39127e-05 
625 2 0.40175 3.91217 0.209812 0 0 1 -0.00341531 -7.0305e-05 -0.000485201 0.00360973 -2.33057e-05 0.00146828 0.0050603 -0.000493009 -0.000479366 0.5 -0.000393603 -2.38505e-05 -0.0013506 -0.00017718 -0.000532279 0.000576204 
91 1 2.22009 4.71974 1.6941 0 0 1 0.000632559 -0.00482699 0.00376205 -0.000135981 0.00397588 -0.00316917 0.000804791 -0.00125809 -0.000192565 0.5 -0.00242799 -0.00363692 -0.00142801 -0.00129051 0.00145222 -0.00107088 
257 1 4.93974 2.69326 1.70579 0 0 0 0.00112367 -0.00327877 0.00423508 -0.00088794 0.00271262 -0.00379783 0.00160823 0.000277911 -0.000257332 0.5 -0.00283303 -0.00312607 -0.00990605 -0.000247376 -0.00202175 -0.00215503 
4 1 3.72146 1.12974 1.95733 0 0 0 0.000467432 -0.00312508 -0.000283374 -0.000374699 0.00253953 0.000132034 0.00205583 -0.000179505 -0.000109298 0.5 -0.00128397 -0.00147869 -0.00622847 -0.00279523 0.00238107 0.00339246 
522 2 2.58401 2.51052 2.00797 0 0 0 -0.000520364 -0.00397635 0.00177991 0.000556625 0.00320767 -0.00162495 0.00193329 -0.00125273 0.000708639 0.5 -0.00255661 -0.000149309 -0.000920565 0.00253606 0.00407021 -7.02778e-05 
117 1 3.12699 1.31438 1.15393 0 1 0 0.000725443 -0.000806142 -0.000385253 -0.000548056 0.00042445 0.000180352 0.00240859 -0.000759043 -0.000220303 0.5 0.000298391 -0.00110066 0.00111434 -0.00031197 0.00188205 0.000600979 
511 2 1.08143 2.24851 0.231786 0 0 0 -0.00108492 0.00364428 -0.00220614 0.000944833 -0.00344535 0.00225848 0.00443468 -0.000413768 -0.000841658 0.5 -0.00186092 -0.0069933 -0.0185101 0.00208509 0.00832876 -0.00397005 
911 2 0.492128 0.564383 0.702439 1 0 0 -2.26794e-05 -0.00122192 -0.0083651 -0.000167788 0.00111659 0.0075784 0.000598048 -0.000570695 -0.000428923 0.5 0.00169258 -0.00549367 0.000137105 -0.00045928 0.000740751 -0.00232724 
668 2 0.00201703 3.82474 1.93198 0 0 0 0.000357046 -0.00846174 0.00153219 -0.000449821 0.0076187 -0.000845374 0.000639 0.00150656 -0.00026146 0.5 -0.00554087 -0.0163523 -0.00559036 0.00482102 -0.000450728 -0.00105153 
90 1 2.94087 4.58066 0.415944 0 0 1 -0.00186793 -0.000558048 0.00749306 0.0017944 8.35159e-05 -0.00650749 0.00171325 -0.000964594 0.00119482 0.5 0.000443161 0.00617948 0.00213849 0.00329 0.00291187 0.003069 
734 2 4.13676 3.24415 0.370942 0 1 1 0.00097061 0.00181672 0.00680919 -0.000587079 -0.00190431 -0.00602659 0.00253353 0.000277535 -9.0284e-05 0.5 -0.00136114 -0.00178468 -0.000969302 -0.000955928 0.00115349 -0.000433303 
672 2 0.0695988 1.98961 1.69234 0 0 0 -0.00332463 -0.0068485 -0.00433776 0.0027438 0.00617651 0.00397551 0.00272479 -0.000167226 0.00107516 0.5 -0.0123518 -0.0174924 -0.00779278 0.00717145 0.00718052 0.000387477 
759 2 4.95786 2.03953 0.949286 0 0 0 0.0013538 -0.00129103 0.00252137 -0.00114092 0.000936282 -0.00226342 0.00256735 0.000114264 -0.000608123 0.5 -0.00111317 -0.00574946 -0.00122071 -0.0020945 0.00031659 -0.00206097 
609 2 1.99689 4.76069 0.133557 0 0 1 -0.00127199 -0.000784341 0.00551064 0.00124041 0.000263179 -0.00465035 0.00162437 -0.00191225 0.000733267 0.5 -0.0104951 -0.035759 -0.0058686 0.0092777 0.00454612 -0.00700357 
868 2 2.87003 3.00601 0.026393 0 0 1 -6.52586e-05 0.000986663 0.00415063 0.000131736 -0.00143341 -0.00351673 0.00222289 -0.000629827 0.000919318 0.5 -0.00204095 -0.00501243 -4.20948e-05 0.00360025 0.000894782 -0.00040848 
21 1 1.84626 0.359919 2.43443 0 0 0 -0.00090577 -0.00534938 -0.0056712 0.000651231 0.00483172 0.00516855 0.0012558 -0.00203669 0.00165483 0.5 0.000189592 0.00076624 -7.44982e-05 1.6297e-05 0.000632332 -0.00126007 
682 2 2.72994 4.08587 2.77011 0 0 0 0.000970881 -0.00379849 0.00408578 -0.000674103 0.00329106 -0.00374913 0.000424634 -0.000339278 -0.000313144 0.5 -0.00655785 -0.0062635 -0.00285747 0.00139028 0.00605279 0.00470777 
907 2 0.981343 4.62885 2.63433 1 0 0 0.00124097 -0.00631328 0.00185774 -0.00105675 0.00550353 -0.00104661 0.000166872 -0.000880653 0.000357854 0.5 -0.00800113 -0.011246 -0.00940528 0.001993 0.00552184 -0.00366745 
144 1 1.68394 3.60411 2.81078 0 0 0 0.00192642 -0.00572087 6.94001e-05 -0.0017277 0.00493896 2.37498e-05 5.66626e-05 -0.000362254 -0.000586568 0.5 0.000560204 -0.00154006 -0.00109428 0.000804758 0.00183376 -0.000661295 
675 2 2.82965 4.74071 3.54282 0 0 0 0.00269193 -0.0038832 0.00444598 -0.00271858 0.00356051 -0.00405567 -0.000563916 -0.00010815 -0.000763311 0.5 -2.35649e-05 0.000340046 0.000883804 0.000472537 0.000339696 0.00145306 
502 2 4.38889 1.31377 3.26928 0 0 0 0.00117331 -0.00448976 -6.34572e-05 -0.00108955 0.00419368 1.83102e-05 0.000976057 0.000345565 -0.000606819 0.5 -0.0046973 -0.0034125 -0.00300717 -0.00290289 0.00328806 0.0046835 
27 1 2.60824 0.303198 3.21231 0 0 0 0.00161462 -0.00415597 -0.00274207 -0.00163448 0.0037378 0.00239918 -0.000104827 -0.000602379 0.00024758 0.5 -0.00514245 -0.00514915 -0.0103486 0.00169667 0.00436085 0.000749521 
965 2 1.35425 3.66176 3.7995 1 0 0 0.00271963 -0.0058127 -0.00106133 -0.00259813 0.00483432 0.00112575 -0.000817801 0.000699277 -0.00137105 0.5 -0.00186332 -0.00477816 -0.00597472 0.00263161 -0.00122549 0.00301183 
61 1 1.66153 0.451712 3.51757 0 0 0 0.000477401 -0.00505387 -0.00668708 -0.000745103 0.00434329 0.00565072 -0.000776595 -0.000758544 0.000712387 0.5 -0.00420212 -0.000104431 -0.000659931 0.000483468 0.00284202 -0.000323023 
680 2 1.19057 2.78473 3.34756 0 0 0 -0.000723954 -0.00510534 -0.00116165 0.000648445 0.00422301 0.00112441 0.000180437 0.000667701 -0.00035589 0.5 -0.00053661 -0.00178393 -0.00255446 9.77341e-05 0.00148178 0.000742109 
251 1 4.71221 3.03679 3.89295 0 0 0 0.00346843 -0.00530057 0.00456866 -0.003117 0.00498677 -0.00425473 0.00128138 0.000898204 -0.00151644 0.5 -0.00465108 -0.0016511 7.93808e-05 -0.00395542 0.00181878 0.00291631 
517 2 4.00856 2.89642 2.21615 0 0 0 0.000317806 -0.00485108 0.00349291 3.29473e-05 0.00428222 -0.00319113 0.000577091 0.0010614 -0.00113543 0.5 0.000136492 -0.000283153 -0.000362542 -0.000254187 0.000150124 0.000446396 
6 1 3.4214 1.78173 2.73126 0 0 0 0.000778473 -0.0031008 0.00241073 -0.00080137 0.00268148 -0.00233976 0.0017504 -0.000734559 0.000534034 0.5 -0.00733031 -0.000796109 0.000295157 0.000759635 0.00343955 0.000579937 
519 2 4.43281 3.61649 3.02756 0 0 0 0.00106435 -0.00433685 0.005788 -0.000879607 0.00412691 -0.00523236 0.00085316 0.000622344 -0.000328643 0.5 -8.31053e-05 0.00198045 0.000980772 -0.00141361 0.00030977 0.000459629 
509 2 1.93467 1.51832 3.62689 0 0 0 0.00274241 -0.00320929 -0.00595298 -0.00260334 0.00221888 0.00512804 -0.000942318 0.0017892 0.000709844 0.5 0.00069682 -0.000703252 -0.00545023 -0.000462501 0.00114144 0.00152368 
142 1 1.03616 1.94525 2.17203 0 0 0 -0.00118661 -0.0052082 -0.00348024 0.000868108 0.00470224 0.0031614 0.00210555 -7.4873e-05 0.000665985 0.5 -0.000102844 -0.00131926 -0.00159596 0.000350045 0.000186502 0.0019589 
941 2 0.193776 2.26317 2.77527 1 0 0 -0.00255356 -0.00805584 -0.00320975 0.00215587 0.00723839 0.00299044 0.000934679 0.000185379 0.000246091 0.5 -0.00115959 -0.00284834 -0.005252 -0.000304275 0.000918624 0.00103798 
919 2 0.649913 4.31968 3.53295 1 0 0 0.000991338 -0.00677069 0.00113461 -0.00113678 0.00570978 -0.000551634 0.000734129 0.000180862 -0.000933798 0.5 -0.00376358 -0.0074278 -0.00399728 0.00377488 0.000370109 0.00213752 
95 1 3.53812 3.78071 2.2664 0 0 1 0.0014804 -0.00434903 0.00523212 -0.00118981 0.00375956 -0.00485277 0.000748429 -2.85904e-05 -0.000346282 0.5 -0.00617449 -0.00259276 -0.00592045 -8.83931e-05 0.00299706 -0.00148369 
458 1 1.55602 4.75657 3.86184 1 0 0 0.00144675 -0.00508808 0.00468207 -0.00111668 0.00472829 -0.003991 -0.00144005 0.000106815 0.00030362 0.5 -0.000524023 -0.00014408 -0.000445089 0.000503118 0.000107987 -0.000374689 
41 1 1.14083 0.96326 2.01454 0 0 0 -0.000450313 -0.00470728 -0.00601657 0.000178468 0.00423873 0.005529 0.00202496 -7.07289e-07 0.000959031 0.5 -0.00136882 -0.000952079 -0.00229635 0.000537826 0.00300885 -0.00231246 
814 2 0.270641 1.23084 3.40648 1 0 0 0.000968974 -0.00533845 -0.00515651 -0.00101168 0.00454619 0.00465713 0.000641886 -0.000520291 0.0022431 0.5 -0.0054333 -0.00524802 -0.00489094 0.00217513 0.00220947 0.00556946 
130 1 1.70606 2.65067 2.50122 0 0 0 -0.00152582 -0.00517777 -0.00163978 0.00144332 0.00444602 0.00157504 0.00145188 -0.000698405 -0.000683176 0.5 -0.00325204 -0.00639716 -0.00504438 0.00218987 0.00270021 0.00290968 
12 1 2.70176 1.09766 2.61224 0 0 0 0.00143357 -0.00312668 -0.00141052 -0.0013663 0.00269515 0.00106453 0.0011129 -0.00158096 0.000640753 0.5 -0.00493016 -0.00797894 -0.005933 0.00139585 0.00348109 -0.000570129 
512 2 3.18487 2.0322 3.78684 0 0 0 0.00263725 -0.000949361 0.000948888 -0.00248072 0.000866476 -0.000797666 0.00134186 -0.000656958 0.000572056 0.5 -0.000892855 -0.00283942 -0.00161428 -0.000101591 0.000566731 0.00271633 
151 1 2.47882 3.30331 3.3398 0 0 0 0.000631553 -0.0047749 0.00260012 -0.000426672 0.00417286 -0.00243722 0.000130605 -0.000629496 0.000266514 0.5 0.000619986 -0.00987557 -0.00688469 -0.000789733 0.00403287 0.0036578 
667 2 0.284725 1.32474 2.41012 0 0 0 -0.000511869 -0.00667904 -0.00523816 0.000245915 0.00601679 0.00476026 0.00123358 0.000410744 0.00143498 0.5 -0.00216693 -0.00953767 -0.00690882 0.000211511 0.000232121 0.00192159 
38 1 3.7892 0.739177 3.87345 0 0 0 0.00214602 -0.00190747 -0.00106206 -0.00188012 0.001907 0.000997022 -0.00134892 -0.000224991 -0.000532495 0.5 -0.00525151 -0.00225443 -0.0123823 -0.00605711 0.00410215 0.00854267 
936 2 0.321138 3.37298 3.50719 1 0 0 -0.0018745 -0.00565984 -0.000848643 0.00144909 0.0047077 0.000992847 0.000792364 -0.00115334 -0.000726873 0.5 0.000203148 -0.00748278 -0.00268529 -0.000248496 0.00308141 0.00491847 
531 2 4.80034 0.811619 2.4804 0 0 0 -0.00025352 -0.00586746 -0.000180127 0.000135381 0.00529318 0.000122501 0.000666137 0.000337263 -0.000884345 0.5 -0.00161858 -0.000544985 -0.00380744 -0.0018868 -0.00272365 -0.00210107 
527 2 4.02857 4.31735 3.61526 0 0 0 0.00306929 -0.00389964 0.00665934 -0.0029716 0.00368773 -0.00615555 -0.000368036 0.000156093 0.000106765 0.5 -0.00772426 -0.0023604 -0.000484376 -0.00397447 0.00280792 0.00293045 
383 1 4.3626 4.34626 2.28567 0 0 1 0.000540267 -0.00299185 0.00568727 -0.000459158 0.002704 -0.00527905 0.000577096 0.00016451 0.000227596 0.5 -0.00498584 -0.00117516 0.00156813 0.000670319 -0.000491807 -0.00147193 
992 2 0.694775 0.442592 3.85626 1 1 0 0.00178454 -0.0051916 -0.00610525 -0.00181173 0.00434725 0.00546896 -0.000616865 0.0010478 0.000754196 0.5 -0.00403993 -0.0094822 -0.00150239 0.00286723 -0.00119306 0.00449931 
521 2 4.93478 4.52965 3.24693 0 0 0 0.00254975 -0.00302921 0.00603272 -0.00250854 0.00288639 -0.00561655 -0.00027553 0.000933915 0.000560546 0.5 -0.0024501 -0.00169355 -0.00251454 -0.00136866 0.000213859 0.00376851 
136 1 1.88522 1.67478 2.62584 0 0 0 -0.000255048 -0.00541973 -0.00534812 4.87712e-05 0.00458881 0.00462031 2.56132e-06 0.000865521 0.000794406 0.5 -0.00542988 -0.00667079 -0.00471895 0.00367388 0.000845631 0.00159527 
540 2 4.5107 0.181372 3.4154 0 0 0 0.00109124 -0.0049229 -0.000621771 -0.00100818 0.00455513 0.00051743 -0.00150999 0.000537039 -0.000997782 0.5 0.00151048 0.00120283 0.000397806 -0.00144483 -0.000709131 0.00108115 
510 2 3.85443 2.57078 3.16867 0 0 0 0.00122637 -0.00401477 0.00369003 -0.00129169 0.00354853 -0.00348488 0.000456381 0.000294476 -0.000136567 0.5 0.00275843 0.00245885 -0.00119523 -0.000752506 0.000370581 0.00180093 
19 1 4.36517 1.84818 2.4074 0 0 0 0.000704117 -0.00117552 0.00258317 -0.000742424 0.00107567 -0.00248939 0.00171246 0.000203758 -0.000674692 0.5 -0.00944406 -0.000245757 -0.0043785 0.000367148 0.00437696 0.000695436 
543 2 1.07272 1.79021 3.19726 0 0 0 0.00103556 -0.00485932 -0.00362457 -0.00103542 0.0040258 0.00318618 0.000969006 0.00115319 0.000788023 0.5 -0.00168682 -0.00145897 -0.000849308 -0.00167509 0.00176484 0.00105069 
773 2 4.78713 2.23033 3.30576 0 0 0 0.00116452 -0.00461763 0.00326157 -0.0011616 0.00434035 -0.00304195 0.000789311 0.00084449 -0.000615801 0.5 -0.0018855 -0.00702254 -0.0131165 -0.00273968 0.00516154 0.0112428 
555 2 2.23798 2.5084 3.89667 0 0 0 0.00195502 -0.00483011 0.00309605 -0.00179943 0.00434893 -0.00278379 -7.24425e-05 5.99932e-06 -2.42351e-05 0.5 -0.000914773 0.000105986 0.000623679 -0.000946323 0.00149795 0.00298298 
429 1 0.307816 2.40494 3.75858 1 0 0 -0.00137771 -0.00627164 -0.00360235 0.00114106 0.00523743 0.00339323 0.00041311 0.000378048 0.00138124 0.5 -0.00235786 -0.0117401 -0.00720434 0.00278747 -0.00178438 0.00693781 
316 1 0.889871 0.516547 2.87377 1 0 0 0.000170431 -0.0060887 -0.00656251 -0.000716901 0.00532312 0.00583268 0.00013597 -4.74233e-06 0.000983961 0.5 0.000811597 -0.000886097 0.000664845 0.000531215 0.000451719 0.000686258 
503 2 3.61638 0.771197 2.88667 0 0 0 0.000899618 -0.00412549 -0.0007368 -0.00083343 0.00378167 0.000682436 0.000196156 0.000227854 4.58248e-05 0.5 0.000397121 0.00145032 -0.00767429 -9.73055e-05 -4.04076e-05 0.001643 
896 2 0.70123 3.6689 2.6297 1 0 0 0.00178271 -0.00646626 0.000550431 -0.00164136 0.00567185 -9.16682e-05 0.000367452 8.79521e-05 -0.000478359 0.5 -0.00118499 -0.00546836 -0.00665167 0.000217244 -0.000312839 0.000621439 
690 2 1.9364 4.67372 2.92734 0 0 0 0.00041067 -0.00461045 0.00430706 -0.000199687 0.00389064 -0.00361672 -6.75654e-05 -0.000527189 0.000617949 0.5 -0.00571798 -0.00363593 -0.000559321 0.00334454 0.000737171 -0.00102084 
641 2 3.45894 3.50263 3.22416 0 0 0 0.000896504 -0.00373862 0.00533822 -0.000722664 0.00340607 -0.00490211 -0.000243797 9.19032e-05 0.000245119 0.5 0.00271811 0.00185175 -0.0015192 -0.000646965 -0.000309517 0.00314295 
528 2 3.34152 4.80459 2.43934 0 0 0 0.00205491 -0.0040708 0.00549574 -0.00176305 0.00353565 -0.00522305 0.000828232 0.000434797 -0.000260713 0.5 -0.000918197 -0.00205442 -0.00213183 -0.00169103 0.000358493 0.000580501 
225 1 2.66699 2.3826 2.99689 0 0 1 -0.000616226 -0.00463093 0.00171926 0.000438773 0.00395384 -0.00153986 -6.25198e-05 0.000877789 0.000999474 0.5 -0.00170932 -0.00520603 0.000572979 0.00318182 -0.000177694 -0.00107551 
119 1 0.616022 2.84665 2.067 0 0 0 -0.00253291 -0.00546877 -0.000256038 0.00214317 0.00497636 0.00037281 0.0019966 0.000327007 -2.17256e-05 0.5 0.00102256 -0.00458245 -0.00937317 0.000556266 0.00308704 -0.00175637 
200 1 2.4631 0.209934 4.19732 0 1 0 0.00418767 -0.00244062 -0.00219853 -0.00375362 0.0021367 0.00192863 -0.00204011 -0.0011948 0.00152591 0.5 -0.00473473 -0.00296767 -0.00789853 -0.000279113 0.00327559 0.00179875 
114 1 4.70595 1.00544 4.17125 0 0 0 0.00206069 -0.00301478 0.000194662 -0.00187172 0.00308417 -9.86159e-05 -0.00036637 -0.000223439 -0.000991102 0.5 -0.00227664 0.000486331 0.000785652 -0.000375932 -0.00124851 -0.000616334 
820 2 1.30964 2.29552 4.21156 1 0 0 0.000530252 -0.00352545 -0.000439485 -0.000409574 0.00282677 0.000476479 -0.00106054 -0.000921098 0.000760003 0.5 -0.00186324 0.000188271 -0.00188391 0.00152315 0.00267969 0.00281552 
47 1 4.65333 1.5833 5.43476 0 0 0 0.00433534 -0.00262976 0.00137652 -0.00418795 0.00282353 -0.00136022 0.000456048 0.00105661 3.11311e-05 0.5 -0.00399814 -0.00505614 -0.00227423 -0.00167163 -0.00234035 0.00336872 
824 2 1.64851 3.83101 5.78978 1 0 0 0.00128456 0.00129009 0.00441692 -0.00173758 -0.00107329 -0.00405831 -0.00280455 -0.000149931 -0.00122429 0.5 -0.00175897 -0.00103655 -0.004563 -0.00102661 0.000787972 0.0015126 
172 1 3.44115 0.337953 4.72072 0 1 0 0.00280709 0.0012438 0.000706979 -0.00269961 -0.000831041 -0.000651567 -0.0017966 -0.000436608 5.49528e-05 0.5 -0.00511298 -0.00511692 -0.0158874 -0.00452146 0.00419113 0.00689476 
718 2 0.201989 2.03659 5.51301 0 1 0 0.000583034 0.000707574 -0.000527348 -0.000552483 -0.00116911 0.000588181 -0.00140197 -0.000585351 0.000498027 0.5 -0.00542907 -0.000556578 -0.00360706 0.0029342 -0.00341811 0.00830962 
505 2 0.48474 3.49871 5.83203 0 0 -1 -0.000411763 0.00574158 0.00310668 0.000339844 -0.00568061 -0.00296812 0.000137347 -0.00156387 0.0016423 0.5 -0.000972102 -0.0134243 -0.00639366 -0.000134715 -6.00422e-05 0.0103568 
524 2 3.99069 2.73357 5.70196 0 0 0 0.00786137 0.00224529 0.00815243 -0.0066812 -0.00140608 -0.00716864 -0.00168485 0.00476723 0.00265249 0.5 5.00951e-05 0.00163407 0.00124052 -0.00088308 -0.00107459 0.000904387 
839 2 0.57828 1.61821 4.31347 1 0 0 0.00188437 -0.00560346 -0.00423839 -0.00158284 0.00464849 0.00386836 -0.00078418 -0.000157853 0.0020312 0.5 -0.00134288 -0.00920624 -0.00551741 0.00410634 -4.03928e-05 0.00893576 
937 2 2.44249 3.38898 4.33572 1 0 0 0.00205052 -0.00428606 0.00254686 -0.00201391 0.00397051 -0.00242542 -0.000998308 -0.001065 0.00014719 0.5 -0.00379317 -0.000276328 -0.00687308 -0.000272609 0.00334096 0.00416223 
811 2 2.60584 3.94616 5.52326 1 0 0 0.00110496 -0.000161372 0.00321207 -0.00193056 0.00101838 -0.00393015 -0.00155372 -0.00160382 -0.000285634 0.5 -0.00200575 -0.00541932 -0.00183504 -0.00217223 -0.000247496 0.00438272 
827 2 1.52021 3.18367 4.6632 1 0 0 0.00112689 -0.00366538 0.000339043 -0.000972903 0.00296999 -0.000135534 -0.00206441 -0.00143576 -0.00146071 0.5 -0.00384066 -0.00186056 -0.00719121 -0.00118571 0.00214571 0.00465793 
149 1 4.05437 3.93346 4.61553 0 0 0 0.00237587 -0.00153271 0.00562345 -0.00239464 0.00167989 -0.00504946 2.2142e-06 0.000269819 0.000756652 0.5 0.000189321 -0.00107965 0.00237123 0.0038294 -0.00132973 0.00191854 
925 2 0.621757 3.59989 4.52341 1 0 0 0.0026085 -0.000927539 -0.00103539 -0.0023961 0.000324854 0.00118246 -0.001817 0.000240425 -0.000949329 0.5 -0.00220582 -0.00260331 -0.00110035 0.000230008 -0.00110827 0.00164728 
168 1 3.33408 4.60382 5.32809 0 0 0 0.00227275 -0.00071821 0.00608162 -0.00237056 0.00112438 -0.0055916 -0.000825235 -0.00092789 0.000979041 0.5 -0.00549815 -0.00439401 -0.0052824 -0.00076277 -0.00117923 0.00336986 
928 2 1.57404 4.40874 4.97662 1 0 0 0.00122964 -0.000146308 0.00346845 -0.00125942 0.000334696 -0.0031559 -0.00146746 -0.000291351 -0.0018057 0.5 -0.00402169 -0.00395766 -0.00363148 -0.00260304 0.00207863 0.00249085 
148 1 3.93896 3.74078 5.74114 0 0 0 0.0018909 0.00214697 0.00785378 -0.00218574 -0.00138726 -0.00709608 -0.00162936 -0.00101045 0.00296471 0.5 0.00119186 0.00435946 0.00270908 0.00201563 0.00201819 0.00203533 
914 2 4.69236 4.3854 5.24 0 0 0 0.00045663 -0.000981875 0.00723675 -0.000776313 0.00114003 -0.00636531 -0.00218916 -0.00164502 -0.00174136 0.5 0.000166659 0.000844475 0.00189277 -0.000130407 0.000712847 0.00122322 
23 1 2.87671 1.11952 4.05893 0 0 0 0.00184984 -0.00182104 -0.00304569 -0.00171265 0.00161934 0.00272004 0.000127231 -0.000945995 0.000127054 0.5 -0.00402679 -0.00415081 -0.00271032 -0.00251592 0.00197792 0.00203089 
594 2 2.05463 1.96985 4.8021 0 0 0 0.00213342 0.00185999 0.00027134 -0.00195146 -0.00194809 -3.01656e-05 0.000723858 -0.000727696 0.00166797 0.5 -3.42806e-05 -0.00406553 -0.000680948 0.00165108 -0.000775864 0.00223737 
539 2 3.78298 1.03899 5.46759 0 0 0 0.00286058 0.00268604 0.0026145 -0.00279456 -0.00205274 -0.00234914 -0.000948174 0.00142425 -0.00070954 0.5 -0.0012145 -0.014003 -0.00602696 -0.0057809 -0.00352484 0.0112235 
730 2 0.460888 1.1158 5.17009 0 1 0 0.00167995 0.000190049 -0.00086565 -0.00150781 -0.000640384 0.000746412 -0.000933274 3.33934e-05 0.00202934 0.5 0.00395335 -0.00078027 -0.00326816 -0.00052581 -0.000772632 0.00631896 
689 2 3.51856 0.102019 5.69598 0 1 0 0.00139061 0.00253498 0.000311771 -0.00131811 -0.00194526 -0.000233515 -0.000771305 -0.00148609 -0.000943471 0.5 -0.00606958 -0.0182739 -0.0156709 -0.00279251 0.000823273 0.0132218 
450 1 0.616662 4.80011 4.46839 1 0 0 0.00430926 -0.00237964 0.000495714 -0.0037504 0.00210878 3.57248e-06 -0.00392778 -0.000750262 0.00022996 0.5 -0.00222279 -0.00593673 -0.011783 5.02959e-05 -0.00183192 0.00688244 
549 2 4.49956 0.501117 5.01365 0 0 0 -6.47745e-05 -0.000734685 0.0011686 -0.000160112 0.0010401 -0.00101303 -0.000650371 0.000817855 -0.00190639 0.5 0.00387475 0.00546497 0.00379089 -0.00266361 -0.00233288 0.00213012 
591 2 1.44447 1.1268 4.40639 0 0 0 0.0036041 -0.00266957 -0.00520823 -0.00317828 0.00192274 0.00467996 -0.00112125 0.000681409 0.000906154 0.5 -0.00221164 -0.00393412 -0.00342397 0.00118723 0.000494131 0.00322278 
243 1 1.20263 1.83609 5.34482 0 1 0 0.000470774 0.00261545 -0.00194853 -0.000430971 -0.00272745 0.00206412 -0.000572904 -0.000657497 0.00119948 0.5 -0.00195858 -0.00250303 -0.00134637 0.000734792 8.84624e-05 0.0029555 
646 2 3.73923 3.12457 4.10649 0 0 0 0.00389853 -0.0019489 0.00515256 -0.00346883 0.00197511 -0.00465096 -4.20823e-05 0.000475346 -0.000390437 0.5 -0.00291143 -0.00899015 -0.00610806 0.00159413 0.000756062 0.00596856 
374 1 0.580304 2.63595 4.80739 1 0 0 0.00135024 -0.000626132 -0.00115138 -0.00112087 4.44427e-05 0.00123514 -0.00137545 -0.000987687 -0.000640377 0.5 -0.00174964 -0.00383059 -0.00200218 -0.00120652 0.00235962 0.00295145 
418 1 0.657025 4.37086 5.37407 1 0 0 0.00124023 0.00568468 0.00394023 -0.0010792 -0.00538197 -0.00322052 -0.00285823 -0.00100011 -0.00200272 0.5 -0.00254141 -0.00909591 -0.0124455 -0.00243968 0.00153472 0.00665608 
190 1 2.16295 2.44136 6.02485 0 1 0 -0.00171078 0.00391159 0.00495651 0.00164041 -0.0035229 -0.00455343 -0.00119057 -0.00174821 -0.000313312 0.5 -0.00120841 -0.00313644 -0.00507099 7.85693e-05 0.00113569 0.00412012 
507 2 3.66577 1.47453 4.57444 0 0 0 -0.000797598 -0.00233611 0.000802731 0.000536481 0.00239387 -0.000741486 0.000311862 -0.000729411 -0.000379568 0.5 -0.00392227 -0.0032872 -0.00707508 -0.00488291 0.0016052 0.0120436 
155 1 4.8694 3.41422 4.87577 0 0 0 0.00262994 -0.00178676 0.00407865 -0.00254826 0.0020261 -0.0036473 -0.000545442 0.00021286 -0.000347256 0.5 -0.00397696 -0.00993454 -0.011212 3.80474e-05 -0.00183521 0.00923934 