ITEM: TIMESTEP
135000
ITEM: NUMBER OF ATOMS
1000
ITEM: BOX BOUNDS xy xz yz pp pp pp
0.0000000000000000e+00 1.0000000000000000e+01 0.0000000000000000e+00
0.0000000000000000e+00 1.0000000000000000e+01 0.0000000000000000e+00
0.0000000000000000e+00 1.0000000000000000e+01 0.0000000000000000e+00
ITEM: ATOMS id type x y z ix iy iz vx vy vz fx fy fz omegax omegay omegaz radius c_2[1] c_2[2] c_2[3] c_2[4] c_2[5] c_2[6] 
120 1 3.15857 1.54135 0.0722204 0 1 0 -9.08642e-05 0.000190806 0.000119276 7.88722e-05 -0.000176573 -0.00010173 0.00010298 -2.13625e-05 -7.43191e-05 0.5 -9.7595e-05 -0.00042486 -3.49774e-05 -4.78468e-05 -4.46477e-06 -8.638e-05 
525 2 2.11632 1.23451 1.70008 0 0 0 -7.98658e-05 -0.000323539 -0.000332319 6.20495e-05 0.000272715 0.000294356 -4.5001e-05 -1.31823e-05 8.22053e-05 0.5 -1.70741e-06 -2.78568e-05 1.42615e-05 3.28275e-05 2.67684e-05 -1.97596e-05 
371 1 4.95926 3.68338 1.58357 0 0 1 8.26584e-05 -0.000199142 0.000281789 -7.04319e-05 0.000174195 -0.000249975 2.81727e-05 -5.53268e-06 1.43837e-05 0.5 -2.1449e-05 -0.000201255 0.000175307 -2.52461e-05 -2.14471e-05 1.79136e-05 
18 1 1.9812 2.69194 0.532363 0 0 0 -4.15766e-05 1.9695e-05 0.000254981 3.30426e-05 -2.38644e-05 -0.000220124 0.000161312 -6.56828e-05 5.34804e-05 0.5 -4.57579e-05 -0.000301273 -0.000169268 0.000229228 0.000180075 -0.000177892 
868 2 2.87003 3.00635 0.0287631 0 0 1 9.54875e-06 -1.82464e-06 0.000248711 -6.0471e-06 -8.02861e-06 -0.000217188 0.000136878 -2.98972e-05 5.52683e-05 0.5 -0.000147287 -0.000294372 -2.51407e-05 0.00021444 3.13439e-05 -8.25599e-06 
25 1 1.4155 0.708749 1.08341 0 0 0 -3.66438e-05 -6.33474e-05 -0.000368736 2.7345e-05 4.62e-05 0.000332501 0.000124888 -2.49825e-05 5.30304e-05 0.5 -0.000147177 -0.000786236 -0.00039579 0.000278898 0.000229785 -0.000323229 
378 1 4.61919 2.40714 0.0724502 0 0 1 4.49305e-06 8.56191e-05 0.000223978 -3.00664e-06 -7.99298e-05 -0.000200891 0.000165713 4.60391e-05 -2.88704e-05 0.5 -6.66189e-05 -0.000180908 -9.07782e-05 -9.69023e-05 -5.0797e-05 -0.000192391 
8 1 3.44142 2.06806 1.74247 0 0 0 1.70487e-05 -0.000179557 0.000106636 -1.68206e-05 0.000152823 -9.7474e-05 0.00012856 -4.88618e-05 1.52778e-05 0.5 -4.73949e-05 -6.81304e-05 3.86535e-05 6.68997e-05 8.72714e-05 1.26309e-05 
629 2 4.07709 2.61566 1.19798 0 0 1 6.72908e-05 -0.000101652 0.000244046 -6.04114e-05 8.49947e-05 -0.00021699 0.000159007 -2.85252e-05 -2.38894e-06 0.5 -0.000216602 -0.000110881 -0.000218282 1.42002e-05 -9.17923e-05 -4.83982e-05 
5 1 2.34654 3.90068 1.05327 0 0 0 -5.90605e-05 -0.000311382 0.000288442 5.82775e-05 0.000271372 -0.000247748 9.35826e-07 1.81466e-05 7.58847e-05 0.5 -3.14883e-05 -4.68421e-05 -6.67218e-05 4.98785e-05 2.9851e-05 -2.30893e-05 
650 2 0.45924 3.43681 1.1297 0 0 0 -0.000189284 -0.000250008 -6.54711e-05 0.000170046 0.000213733 7.57561e-05 0.000143501 4.12568e-05 1.04585e-05 0.5 -0.000257896 -0.000304321 -0.000279111 0.000187759 0.000214283 -0.000150959 
14 1 3.29514 3.13375 1.54458 0 0 0 1.39448e-05 -0.000191972 0.000258824 -9.92858e-06 0.000167448 -0.000226473 7.70144e-05 1.97836e-05 1.14323e-05 0.5 2.21361e-07 -7.03966e-05 -9.32882e-05 6.42614e-05 1.33294e-05 -9.71241e-05 
264 1 3.99638 3.86802 1.37936 0 0 0 7.97617e-05 -0.000213633 0.000284184 -6.7798e-05 0.000184806 -0.000253631 0.000103721 2.36438e-05 5.20505e-06 0.5 -5.48531e-05 -8.32576e-06 -0.000153261 6.21703e-05 5.56181e-05 -5.73991e-06 
223 1 0.747732 2.47819 1.14566 0 0 1 -0.000162099 -0.000236043 -2.07594e-05 0.000141477 0.000199861 2.6773e-05 0.000176788 -6.44116e-05 4.10984e-05 0.5 -0.000178008 -0.000371441 -0.00100417 0.000112478 0.000395441 -0.000249109 
364 1 4.42272 4.23689 0.539627 0 0 1 -3.65108e-05 7.97648e-05 0.000360599 3.69119e-05 -7.62341e-05 -0.000320628 0.000100134 5.12487e-06 6.13737e-05 0.5 1.04304e-05 8.44259e-06 -2.15548e-05 -4.39531e-06 7.1555e-05 -3.21722e-05 
107 1 1.66083 1.61825 0.74758 0 0 1 -0.000109611 6.27047e-06 -0.000228708 9.35218e-05 -1.43348e-05 0.000212873 0.000184099 -4.38923e-06 1.39398e-05 0.5 0.000162211 -0.000164163 -0.000147799 -2.56037e-05 1.15233e-05 -0.000114512 
529 2 2.67262 2.19965 1.06191 0 0 0 4.60416e-05 -7.40864e-05 5.42982e-05 -4.44052e-05 5.76808e-05 -4.44748e-05 0.000166616 -2.05278e-05 3.59788e-05 0.5 -8.24821e-06 -6.18415e-05 -9.04817e-05 3.33608e-05 3.44624e-05 -6.76986e-06 
515 2 4.38643 0.436031 1.6439 0 0 0 1.13535e-05 -0.000203275 -7.68987e-05 -9.59256e-06 0.000175374 6.42785e-05 9.91211e-05 7.45034e-06 -7.67892e-06 0.5 -0.000220343 -0.000170217 -0.000256503 -0.000244055 0.000115722 8.2278e-05 
244 1 4.11372 0.570447 0.682751 0 1 1 1.5724e-05 2.51711e-05 -4.07317e-05 -1.30493e-05 -2.36895e-05 3.27956e-05 0.000144195 3.66247e-05 -2.8972e-05 0.5 -0.000115811 -9.92922e-05 -0.000205935 -4.9261e-05 8.6231e-05 4.69571e-05 
20 1 2.90178 0.570915 1.7839 0 0 0 2.44354e-05 -0.000157818 -0.000133309 -2.36851e-05 0.000133303 0.000114473 6.62802e-05 -5.0127e-05 1.60138e-05 0.5 -0.000188852 -0.000354432 -0.000475561 2.37702e-05 0.000247941 -0.000248588 
280 1 4.09075 1.58205 1.14623 0 0 0 4.23871e-05 -6.61358e-05 5.29852e-05 -3.85364e-05 5.37963e-05 -5.13294e-05 0.000144854 -2.05973e-05 -1.39267e-05 0.5 -0.000190881 -0.000146644 -0.000389932 -1.20319e-05 0.00024014 4.93847e-05 
620 2 1.39466 4.37093 0.857557 0 0 1 -0.00011759 -0.000188732 0.000146665 0.000123152 0.00016254 -0.00011224 0.000131774 6.50472e-05 -2.67732e-05 0.5 -6.2359e-05 -0.000322871 -0.000536584 -2.34997e-05 1.13888e-05 9.06488e-05 
1000 2 3.60327 2.39821 0.339696 0 1 1 7.69683e-05 6.76604e-05 0.000210013 -6.35839e-05 -6.90252e-05 -0.000188026 0.00012316 -1.99278e-06 -2.16785e-05 0.5 -0.00013505 -0.000328621 -0.000153097 -6.3137e-05 -0.000110497 -5.17691e-05 
103 1 3.28431 3.68323 0.698747 0 0 1 -5.71667e-06 -7.3459e-05 0.000336025 7.32524e-06 5.70341e-05 -0.000297724 0.000120544 2.62627e-06 5.68098e-05 0.5 -4.28875e-06 3.50325e-05 -4.57984e-05 2.36108e-05 4.93582e-05 -4.14785e-05 
622 2 0.930724 4.80384 0.084672 0 0 1 -0.000122846 1.69881e-05 0.000264974 0.00013001 -2.06583e-05 -0.000218865 0.000191281 -4.67707e-05 2.54958e-05 0.5 2.61772e-06 3.49039e-05 -0.000238781 -2.75528e-05 -8.70021e-05 5.05625e-05 
506 2 0.743664 1.45145 1.18254 0 0 0 -0.000169984 -0.000242861 -0.000331973 0.000144293 0.000205448 0.000300328 0.000152789 -2.2798e-05 9.45327e-05 0.5 4.2472e-05 -0.000459968 -5.73958e-05 0.000530955 0.000135362 -0.000288474 
626 2 1.28826 3.41652 0.56624 0 0 1 -0.000177165 -0.000115076 -3.80765e-05 0.00015866 9.96428e-05 5.0485e-05 5.42076e-05 -9.01483e-05 5.43335e-05 0.5 -0.000223399 -0.000333308 -6.92096e-05 0.00015569 0.000181882 -0.000111655 
553 2 0.744044 0.0775153 1.56333 0 0 0 5.66812e-06 -0.000185231 -0.00047936 -1.25664e-05 0.000156937 0.000432529 1.09119e-05 -7.94709e-05 0.000114835 0.5 4.33018e-05 3.9322e-05 3.56653e-05 -1.67586e-05 3.58456e-05 -6.03252e-05 
135 1 1.54764 3.20488 1.6771 0 0 0 8.96303e-05 -0.00027234 -4.19681e-05 -7.79785e-05 0.000235564 4.60806e-05 9.91451e-05 -0.000166022 -1.41509e-05 0.5 2.5027e-05 -0.000724025 -0.000115087 0.000173066 8.13093e-05 -2.17081e-05 
624 2 4.32457 4.92105 1.47138 0 0 1 4.91075e-05 -0.000129607 0.000310908 -3.44486e-05 0.000118816 -0.00028006 7.62359e-05 3.48023e-05 1.88874e-05 0.5 4.06654e-05 3.18917e-05 -0.00022448 1.63343e-05 -7.61061e-05 -0.000128697 
256 1 4.58717 1.36783 0.304989 0 0 0 3.96653e-05 4.0154e-05 2.41989e-05 -3.45665e-05 -3.70693e-05 -2.57376e-05 0.000155773 3.40713e-05 -7.21279e-05 0.5 -7.22931e-05 -0.000167259 -0.000330012 -0.000121767 0.000132342 -0.000177527 
260 1 3.31853 0.0701042 1.02528 0 0 0 1.66206e-05 -7.86068e-05 -0.000190078 -1.06917e-05 6.46471e-05 0.000167106 8.00372e-05 6.91617e-05 -4.79303e-05 0.5 -0.000129971 -0.000332728 -0.000332388 -3.00942e-05 9.32324e-05 -0.000190558 
616 2 3.19101 4.48075 1.50647 0 0 1 8.09658e-05 -0.000260213 0.000291238 -6.90128e-05 0.000224119 -0.000260917 -8.16452e-06 1.45943e-05 2.13932e-05 0.5 -0.000105209 -4.17648e-05 -4.97528e-05 6.91088e-05 2.68078e-05 -3.15409e-05 
106 1 1.74519 2.23575 1.52962 0 0 1 4.92415e-05 -0.000284627 -1.60709e-05 -4.71824e-05 0.000245501 2.27107e-05 0.000141684 -6.39286e-05 -3.51705e-05 0.5 1.1867e-05 -0.0003928 -0.000117964 8.96921e-05 0.000159239 -0.000114 
157 1 1.38966 4.17897 1.83895 0 0 0 6.07877e-05 -0.000304615 0.00012501 -4.57788e-05 0.000263815 -9.34087e-05 0.000117157 3.82563e-05 1.21589e-05 0.5 -0.000176979 -0.000544738 -0.000591797 9.65435e-05 0.000209983 -0.000114069 
516 2 2.34692 0.890376 0.688035 0 0 0 -2.69719e-07 0.000100647 -0.000131393 -4.13768e-06 -9.81943e-05 0.000121505 9.68425e-06 -9.37204e-05 -3.20373e-05 0.5 3.33414e-05 -9.4311e-05 -3.37951e-05 1.75625e-05 0.000133996 -0.000130248 
183 1 0.415315 4.58239 1.00359 0 0 0 -0.000117937 -0.000293883 0.000334704 0.000127605 0.000262166 -0.000265915 0.000245484 7.81512e-05 3.61816e-05 0.5 2.78072e-05 -2.29386e-05 1.02208e-05 1.4948e-05 -2.61244e-05 1.10962e-05 
625 2 0.400031 3.91216 0.209946 0 0 1 -0.000144906 8.27508e-06 8.93686e-05 0.000137356 -3.4722e-06 -5.32592e-05 0.000259077 -2.37341e-05 -6.53631e-05 0.5 -1.80133e-05 -7.17795e-06 -6.58882e-05 -1.72491e-05 -2.37698e-05 4.15165e-05 
91 1 2.22061 4.71694 1.6963 0 0 1 7.80864e-05 -0.000302408 0.000249271 -6.23682e-05 0.000262523 -0.000208561 2.92676e-05 -4.31119e-05 -1.35956e-05 0.5 -0.000142483 -0.00013852 -4.76063e-05 -6.22686e-05 6.20417e-05 -2.55234e-05 
257 1 4.94039 2.69135 1.70813 0 0 0 6.60372e-05 -0.000205473 0.000229104 -5.95806e-05 0.000179638 -0.00020518 7.82525e-05 9.76773e-06 -1.67411e-05 0.5 -0.000239837 -0.000191582 -0.000512389 8.01945e-06 -0.000137805 -9.96484e-05 
4 1 3.72172 1.12789 1.95713 0 0 0 2.49125e-05 -0.000206569 -3.35086e-05 -2.31654e-05 0.000176652 2.4355e-05 0.000103553 -1.29947e-05 -6.55784e-06 0.5 -7.60754e-05 -0.000123922 -0.000336156 -0.000107262 0.000116197 0.000178256 
609 2 1.99626 4.76009 0.136719 0 0 1 -4.22915e-05 -8.75006e-05 0.000334948 4.5378e-05 7.03925e-05 -0.00029135 7.00021e-05 -8.63523e-05 4.46459e-05 0.5 -0.000575386 -0.00183377 -0.000303788 0.00047669 0.000223643 -0.000369075 
117 1 3.12743 1.3138 1.15366 0 1 0 4.6488e-05 -8.34178e-05 -3.77474e-05 -4.1536e-05 6.68751e-05 2.98201e-05 0.000133711 -3.26626e-05 -1.29386e-05 0.5 1.78915e-05 -9.05369e-05 3.57162e-05 -2.36911e-06 8.16143e-05 5.47542e-05 
511 2 1.08083 2.25045 0.230687 0 0 0 -5.92676e-05 0.000173405 -8.55212e-05 5.15818e-05 -0.000161495 8.4352e-05 0.000245162 -3.36036e-05 -5.36349e-05 0.5 -0.000111386 -0.000366585 -0.000942881 8.8931e-05 0.000408286 -0.000190655 
911 2 0.492036 0.56367 0.69787 1 0 0 -2.54945e-05 -8.69324e-05 -0.000440534 1.73137e-05 6.81145e-05 0.000396685 3.35501e-05 -4.01711e-05 -1.77534e-05 0.5 8.72267e-05 -0.000321557 8.78543e-06 -3.30848e-05 3.63732e-05 -0.000134522 
668 2 0.00216512 3.82004 1.93305 0 0 0 4.80038e-06 -0.000484164 0.000148865 -8.33353e-06 0.000418988 -0.000116984 5.0671e-05 6.69648e-05 -3.17091e-05 0.5 -0.00036197 -0.000980832 -0.000388155 0.000291168 -5.51552e-05 -4.55766e-05 
90 1 2.93992 4.5802 0.420151 0 0 1 -6.9238e-05 -6.84253e-05 0.000426152 7.10033e-05 5.52257e-05 -0.000377749 7.91614e-05 -3.25906e-05 7.01491e-05 0.5 -3.41616e-05 0.000307162 7.38187e-05 0.000184555 0.000144742 0.000120807 
734 2 4.13738 3.24504 0.374721 0 1 1 6.86463e-05 6.36618e-05 0.000370973 -6.03335e-05 -6.26069e-05 -0.000332268 0.000147076 1.98816e-05 7.22808e-06 0.5 -6.8174e-05 -7.68416e-05 -5.00047e-05 -2.15421e-05 6.46008e-05 -2.40166e-05 
672 2 0.0676712 1.98581 1.68998 0 0 0 -0.000209862 -0.000391883 -0.000227803 0.000179052 0.000339191 0.00020543 0.000156536 -2.32214e-05 5.35202e-05 0.5 -0.000623104 -0.0010568 -0.000437169 0.000410057 0.000362541 1.95279e-05 
759 2 4.95862 2.03873 0.95067 0 0 0 7.55372e-05 -9.45287e-05 0.000133677 -6.86272e-05 8.12696e-05 -0.000120571 0.00014088 -4.44005e-06 -3.51571e-05 0.5 -5.48931e-05 -0.000332572 -0.000105389 -9.47916e-05 -1.00772e-06 -7.84849e-05 
21 1 1.8457 0.356936 2.43133 0 0 0 -6.75482e-05 -0.000308382 -0.000305003 5.69404e-05 0.00026883 0.000271707 6.33384e-05 -0.000101882 8.88428e-05 0.5 2.37395e-05 4.29254e-05 -3.92362e-06 -7.15358e-06 3.28929e-05 -6.41221e-05 
682 2 2.73054 4.08373 2.77236 0 0 0 6.86796e-05 -0.000218834 0.000227088 -5.91587e-05 0.000192349 -0.000199449 1.06075e-05 -9.67894e-06 -6.10571e-06 0.5 -0.000334702 -0.000299974 -0.000118911 9.08674e-05 0.000260031 0.000273122 
907 2 0.982055 4.62527 2.63561 1 0 0 7.31757e-05 -0.000383764 0.000175906 -6.55657e-05 0.000328385 -0.000139909 1.61334e-05 -5.10109e-05 1.6739e-05 0.5 -0.000386992 -0.000534411 -0.000510274 0.00012499 0.000278769 -0.00018954 
144 1 1.68501 3.60084 2.81086 0 0 0 0.000104498 -0.000351892 1.76229e-05 -9.35743e-05 0.000302187 -1.13992e-05 2.30544e-06 -4.68316e-06 -2.36497e-05 0.5 -6.06996e-05 -7.25521e-05 -7.28637e-05 7.20008e-05 4.28483e-05 -2.248e-05 
675 2 2.83101 4.73862 3.54527 0 0 0 0.000106587 -0.000196043 0.000242977 -0.000105909 0.000178996 -0.00021507 -4.16299e-05 4.81634e-06 -2.82644e-05 0.5 5.11948e-06 5.12142e-05 9.23068e-05 4.37488e-05 2.39099e-06 0.000100165 
502 2 4.38951 1.31137 3.26922 0 0 0 4.94233e-05 -0.000222498 -1.64387e-05 -5.06379e-05 0.000203605 9.28562e-06 3.95643e-05 1.89052e-05 -2.95286e-05 0.5 -0.000261047 -0.000163211 -0.000151471 -0.000153715 0.000177431 0.000269991 
27 1 2.60905 0.300883 3.21076 0 0 0 5.91282e-05 -0.00023859 -0.000163616 -6.10409e-05 0.000207402 0.000141434 -1.32327e-05 -3.80636e-05 2.40392e-05 0.5 -0.000250373 -0.00028462 -0.000578982 9.49659e-05 0.00023463 3.58186e-05 
965 2 1.35568 3.65836 3.79898 1 0 0 0.000131199 -0.000383407 -3.84629e-05 -0.000118777 0.000323477 4.0237e-05 -3.67546e-05 5.28173e-05 -6.96922e-05 0.5 -9.61754e-05 -0.000261362 -0.000321128 0.000147366 -8.16581e-05 0.000178924 
61 1 1.66166 0.448808 3.51376 0 0 0 -1.50233e-05 -0.000320651 -0.000394241 3.01287e-06 0.00027087 0.000346787 -2.25159e-05 -3.43861e-05 5.24923e-05 0.5 -0.000192139 -5.41947e-06 -3.49698e-05 2.9922e-05 0.000144166 -1.63031e-05 
680 2 1.19013 2.78172 3.34695 0 0 0 -5.36585e-05 -0.000342008 -4.98808e-05 4.34874e-05 0.000287611 4.93838e-05 1.5513e-05 3.47206e-05 -1.36275e-05 0.5 -1.56032e-05 -8.73023e-05 -0.000144254 1.15001e-05 7.57142e-05 4.71335e-05 
251 1 4.71411 3.03397 3.89542 0 0 0 0.000181448 -0.000261142 0.0002354 -0.000165246 0.000238045 -0.000212409 7.06889e-05 5.61091e-05 -8.62599e-05 0.5 -0.00026078 -7.49744e-05 8.78031e-06 -0.000214422 9.485e-05 0.000165831 
517 2 4.00887 2.89375 2.21809 0 0 0 5.29018e-05 -0.000256613 0.000196938 -4.10009e-05 0.000232915 -0.00017365 2.68493e-05 3.8657e-05 -3.84832e-05 0.5 5.81122e-06 -7.28724e-06 -5.01345e-05 -1.14468e-05 -3.35864e-06 3.54986e-05 
6 1 3.42178 1.77998 2.73255 0 0 0 2.47702e-05 -0.00017946 0.000122523 -2.81487e-05 0.000157681 -0.000110631 9.57204e-05 -3.57704e-05 3.86824e-05 0.5 -0.000374583 -1.66939e-05 2.67255e-05 7.77553e-05 0.000182714 5.94145e-05 
519 2 4.43342 3.61419 3.03075 0 0 0 6.17341e-05 -0.000206931 0.000316155 -5.50557e-05 0.000191901 -0.000281246 3.86169e-05 3.14416e-05 -1.28468e-05 0.5 5.68793e-06 0.00014276 7.98536e-05 -0.000105152 -9.27183e-06 6.05074e-05 
509 2 1.93613 1.51625 3.62352 0 0 0 0.000136494 -0.0002643 -0.000346431 -0.000124703 0.000214694 0.00030555 -4.44472e-05 0.000118121 1.0795e-05 0.5 3.81367e-05 -4.18753e-05 -0.000320369 -3.46797e-05 6.54098e-05 8.97309e-05 
142 1 1.03543 1.94235 2.17013 0 0 0 -9.00661e-05 -0.0003028 -0.000179961 7.28539e-05 0.000260693 0.000163799 0.00013005 -6.89093e-07 2.40789e-05 0.5 2.4448e-06 -4.72386e-05 -9.93835e-05 1.93301e-05 3.48744e-06 0.000108721 
941 2 0.192302 2.25869 2.77354 1 0 0 -0.000160644 -0.000464985 -0.000163239 0.000136803 0.000402373 0.000148983 6.88489e-05 6.64806e-06 1.37689e-05 0.5 -7.03224e-05 -0.000199129 -0.000310899 -5.54844e-06 5.25166e-05 4.25723e-05 
919 2 0.650372 4.31578 3.53377 1 0 0 3.20741e-05 -0.000424905 0.000121956 -3.20301e-05 0.00036226 -9.39554e-05 5.9875e-05 9.22543e-06 -6.78752e-05 0.5 -0.000201965 -0.000369746 -0.000221835 0.00020025 1.15553e-05 0.000126876 
95 1 3.53898 3.77828 2.26924 0 0 1 9.11646e-05 -0.000240984 0.000276494 -7.9613e-05 0.000216834 -0.000247015 1.93885e-05 -1.49349e-06 -5.02605e-06 0.5 -0.000260735 -9.63688e-05 -0.000320779 -1.49195e-07 0.000141808 -4.9894e-05 
458 1 1.55685 4.75378 3.86451 1 0 0 8.11327e-05 -0.000287374 0.000280434 -7.46217e-05 0.000247692 -0.000242752 -7.95909e-05 9.35269e-06 9.3713e-06 0.5 -7.22518e-05 -3.62839e-05 -4.68501e-05 5.69814e-05 -7.56893e-06 -1.35275e-05 
41 1 1.14048 0.960631 2.01127 0 0 0 -5.20836e-05 -0.000276058 -0.00031547 3.94012e-05 0.000236985 0.000284172 0.000114851 -9.16163e-06 4.78969e-05 0.5 -8.6331e-05 -5.62459e-05 -0.000193263 3.4459e-05 0.000180897 -0.000116913 
814 2 0.271106 1.22774 3.40364 1 0 0 3.09113e-05 -0.000345138 -0.000278579 -3.37613e-05 0.00029237 0.000249247 5.10202e-05 -3.63162e-05 0.000128403 0.5 -0.000266052 -0.000263249 -0.000285914 0.000108894 0.00016991 0.000300473 
130 1 1.70523 2.6477 2.50037 0 0 0 -8.15042e-05 -0.000324694 -6.96229e-05 7.04873e-05 0.000277362 6.74876e-05 9.84013e-05 -4.40831e-05 -4.91041e-05 0.5 -0.00014715 -0.00033682 -0.000284409 0.000125554 0.000132715 0.000180523 
12 1 2.70253 1.09587 2.61138 0 0 0 7.3999e-05 -0.000191947 -9.95913e-05 -6.74721e-05 0.000164675 8.39072e-05 5.51397e-05 -9.22537e-05 4.43056e-05 0.5 -0.000261015 -0.000427294 -0.000312308 0.0001142 0.000193593 -1.77508e-05 
512 2 3.18628 2.0317 3.78742 0 0 0 0.000126367 -4.54924e-05 7.50244e-05 -0.000119584 4.14343e-05 -5.90402e-05 7.23456e-05 -3.22728e-05 4.11095e-05 0.5 -6.91792e-05 -0.000170633 -0.000111066 2.36428e-06 1.06958e-05 0.00016273 
151 1 2.47922 3.30065 3.34123 0 0 0 4.79737e-05 -0.000268644 0.000149616 -4.00862e-05 0.000237727 -0.000128788 -6.38286e-06 -3.59181e-05 1.48697e-05 0.5 -2.31349e-05 -0.000515103 -0.000397031 -3.17302e-06 0.000181592 0.000183005 
667 2 0.284356 1.32104 2.40726 0 0 0 -5.45364e-05 -0.000382837 -0.000278979 4.13606e-05 0.000330814 0.000250195 7.8097e-05 2.39585e-05 7.12754e-05 0.5 -0.000134383 -0.000606622 -0.000448723 1.56094e-05 8.37967e-06 9.18892e-05 
38 1 3.79037 0.738194 3.87288 0 0 0 0.000102096 -8.10209e-05 -5.98578e-05 -9.79552e-05 7.81309e-05 5.06745e-05 -8.53389e-05 -1.42802e-05 -2.06669e-05 0.5 -0.000298373 -0.000115773 -0.000659469 -0.000323822 0.000210186 0.00047364 
936 2 0.319991 3.3697 3.50683 1 0 0 -0.000136006 -0.000359875 -1.07741e-05 0.000113231 0.00030593 1.95369e-05 6.50701e-05 -7.35169e-05 -4.12992e-05 0.5 1.91591e-05 -0.000411485 -0.000156022 -2.11258e-06 0.000196183 0.00028263 
531 2 4.80015 0.808385 2.48029 0 0 0 -3.15425e-05 -0.000320202 -1.7881e-05 2.16827e-05 0.000285756 1.23013e-05 1.9165e-05 1.509e-05 -5.13398e-05 0.5 -7.6448e-05 -5.65374e-06 -0.0001702 -9.88249e-05 -0.000140159 -9.25098e-05 
527 2 4.03016 4.31527 3.61888 0 0 0 0.000140834 -0.000190217 0.000352756 -0.00013109 0.0001745 -0.000314394 -3.18061e-05 4.21308e-06 1.21345e-05 0.5 -0.000303687 -5.65758e-05 3.61699e-05 -0.000191219 8.78248e-05 0.000174069 
383 1 4.36291 4.34463 2.28875 0 0 1 3.18143e-05 -0.000155206 0.000294851 -2.75991e-05 0.000141715 -0.000265301 2.09802e-05 -9.39317e-07 1.69956e-05 0.5 -0.000220754 -4.4621e-05 7.81316e-05 7.86392e-05 -2.72663e-05 -6.89541e-05 
992 2 0.695653 0.439541 3.85288 1 1 0 6.03907e-05 -0.000350581 -0.00033725 -6.37811e-05 0.000294075 0.000299685 -1.53424e-05 6.90417e-05 4.88683e-05 0.5 -0.000214054 -0.000486377 -8.53231e-05 0.000148305 -6.37548e-05 0.000233787 
521 2 4.93609 4.52804 3.25019 0 0 0 0.000111519 -0.000146965 0.000311859 -0.000105372 0.000134917 -0.000280073 -2.42031e-05 4.01199e-05 2.84494e-05 0.5 -8.40985e-05 -9.23877e-05 -0.000134734 -6.26938e-05 2.01701e-07 0.000209993 
136 1 1.885 1.67164 2.62283 0 0 0 -3.75812e-05 -0.000346143 -0.000304322 2.70015e-05 0.000294901 0.000270239 2.31348e-05 5.35619e-05 3.96784e-05 0.5 -0.00029788 -0.000376511 -0.000265226 0.000213741 1.86137e-05 0.000106215 
540 2 4.51127 0.178731 3.41503 0 0 0 4.67412e-05 -0.000242221 -4.47618e-05 -4.7109e-05 0.000223287 3.52142e-05 -0.000109522 3.10864e-05 -5.56052e-05 0.5 9.36953e-05 7.19317e-05 7.82101e-06 -8.25474e-05 -4.67843e-05 6.97738e-05 
510 2 3.85502 2.56855 3.17066 0 0 0 3.76482e-05 -0.000220665 0.000189221 -4.26444e-05 0.000197094 -0.000171625 1.98049e-05 6.69772e-06 -2.80656e-06 0.5 0.000146316 0.000155755 -7.85356e-05 -1.76107e-05 2.34944e-05 0.000120416 
19 1 4.36549 1.84753 2.40875 0 0 0 1.43321e-05 -6.4597e-05 0.00011575 -2.10344e-05 5.91678e-05 -0.000110145 7.09654e-05 1.23767e-05 -2.55903e-05 0.5 -0.000502693 -1.5595e-05 -0.000240089 1.93527e-05 0.00023058 3.96639e-05 
543 2 1.07324 1.78734 3.19524 0 0 0 4.06049e-05 -0.000328557 -0.000196931 -4.08056e-05 0.000275812 0.000177861 7.73357e-05 7.51626e-05 3.44888e-05 0.5 -6.15903e-05 -6.38195e-05 -4.08349e-05 -8.985e-05 7.83251e-05 5.57966e-05 
773 2 4.78772 2.22786 3.30753 0 0 0 4.31273e-05 -0.000227415 0.000167379 -4.57237e-05 0.000208187 -0.000152613 3.7809e-05 5.0352e-05 -3.16209e-05 0.5 -5.80807e-05 -0.000367008 -0.000708869 -0.000117945 0.000235413 0.000647121 
555 2 2.23902 2.50575 3.8984 0 0 0 9.47234e-05 -0.00025883 0.000183881 -8.80434e-05 0.000231671 -0.000158205 -1.70686e-05 -5.8223e-06 1.1586e-05 0.5 -1.26709e-05 3.87949e-05 5.85962e-05 -2.33528e-05 6.4504e-05 0.000162038 
429 1 0.306988 2.40131 3.75665 1 0 0 -9.90701e-05 -0.000397779 -0.000180112 8.17467e-05 0.000338337 0.000164638 3.97837e-05 1.7062e-05 8.5881e-05 0.5 -0.000111761 -0.000670291 -0.000411226 0.000159324 -9.82388e-05 0.000386202 
316 1 0.88975 0.513101 2.87013 1 0 0 -5.14655e-05 -0.000365871 -0.000363187 3.25289e-05 0.000313385 0.00032282 2.85897e-05 3.9764e-06 5.65472e-05 0.5 5.29854e-05 -7.13643e-05 -1.13089e-05 3.39292e-05 2.86695e-05 6.62838e-05 
503 2 3.61686 0.768931 2.88626 0 0 0 4.5386e-05 -0.000226238 -4.51218e-05 -4.20764e-05 0.000199577 3.65374e-05 -6.76173e-06 4.60583e-06 9.85758e-06 0.5 1.61209e-05 5.17991e-05 -0.000420318 2.75662e-06 2.03457e-07 0.000102253 
896 2 0.702195 3.66524 2.63018 1 0 0 9.102e-05 -0.000388484 8.36531e-05 -8.29804e-05 0.000333059 -6.12188e-05 4.33437e-05 9.69849e-06 -3.23399e-05 0.5 -0.000150049 -0.000235268 -0.00041383 3.70073e-05 -7.32458e-05 8.22549e-05 
690 2 1.9367 4.67111 2.92982 0 0 0 3.90897e-05 -0.000269885 0.000268911 -3.32351e-05 0.000235576 -0.000230524 -1.35624e-05 -8.19175e-06 4.17334e-05 0.5 -0.000294218 -0.000172854 -4.14418e-05 0.000183623 2.05922e-05 -4.33335e-05 
641 2 3.45945 3.50061 3.22708 0 0 0 5.36536e-05 -0.000190203 0.000286414 -4.75632e-05 0.000173932 -0.000255368 -2.42884e-05 5.13264e-07 2.11338e-05 0.5 7.8982e-05 8.58802e-05 -0.000151906 -8.04823e-06 -5.07678e-05 0.000224585 
528 2 3.34268 4.80229 2.44227 0 0 0 0.000117127 -0.000237263 0.000276678 -0.000104563 0.0002082 -0.000249012 1.94561e-05 1.34099e-05 2.34583e-06 0.5 -5.24805e-05 -0.000104521 -0.00012059 -8.70473e-05 1.18073e-05 2.14468e-05 
225 1 2.66661 2.37998 2.99787 0 0 1 -4.7303e-05 -0.000269227 0.000109934 3.75286e-05 0.000236472 -9.25261e-05 -1.51901e-05 5.13469e-05 4.92867e-05 0.5 -0.000105942 -0.000296301 4.26049e-06 0.000183861 -3.74911e-05 -4.03671e-05 
119 1 0.614572 2.84362 2.06693 0 0 0 -0.000155873 -0.000312005 1.04179e-05 0.000132748 0.000269814 -2.37362e-06 0.000122712 9.4657e-06 -7.62595e-06 0.5 8.00092e-05 -0.000205464 -0.000468525 2.86661e-05 0.000174175 -5.59647e-05 
94 1 2.46189 3.50083 2.0047 0 0 1 -5.31296e-06 -0.000257308 0.000279326 7.42511e-06 0.000220529 -0.000241576 5.74134e-05 -2.56963e-05 8.84162e-06 0.5 8.26751e-05 6.98209e-05 4.47273e-05 6.9739e-05 8.5277e-05 0.000122263 
522 2 2.58375 2.50817 2.00897 0 0 0 -2.21508e-05 -0.00026024 0.000108573 1.90504e-05 0.000222703 -9.23303e-05 0.000105727 -6.16918e-05 2.92679e-05 0.5 -0.000109637 -1.72168e-05 -7.53067e-05 0.00012561 0.000182204 1.14198e-05 
200 1 2.46537 0.208583 4.19607 0 1 0 0.000207916 -0.000135152 -0.000132119 -0.000192521 0.000118347 0.000113803 -0.000112352 -6.96356e-05 0.000112885 0.5 -0.000259419 -0.000154757 -0.000442957 1.25055e-05 0.000181337 0.000105049 
114 1 4.70704 1.00391 4.17137 0 0 0 9.44745e-05 -0.00012674 4.39809e-06 -9.12521e-05 0.000121217 -8.40739e-06 -3.25436e-05 -1.59412e-05 -5.28455e-05 0.5 -0.000137945 1.80709e-05 4.52195e-05 -2.68436e-05 -7.67161e-05 -3.96525e-05 
820 2 1.30994 2.29341 4.21136 1 0 0 2.9337e-05 -0.00024692 -7.63917e-06 -2.67021e-05 0.000205208 1.25264e-05 -5.81529e-05 -5.10255e-05 6.24055e-05 0.5 -7.18265e-05 3.54283e-05 -0.000107832 0.000153992 0.000133618 0.000164645 
47 1 4.65562 1.58205 5.43549 0 0 0 0.000208263 -8.54724e-05 7.0737e-05 -0.000192642 8.94448e-05 -6.43751e-05 1.80971e-05 6.07425e-05 1.29591e-05 0.5 -0.000208347 -0.000293185 -0.00012621 -8.56025e-05 -0.000136122 0.000206286 
824 2 1.64906 3.83179 5.79222 1 0 0 3.87979e-05 9.25798e-05 0.000258457 -3.55954e-05 -7.86418e-05 -0.000220519 -0.000129062 3.96927e-08 -5.61545e-05 0.5 -6.32291e-05 -5.32718e-05 -0.000214393 -3.5982e-05 9.33995e-06 7.73145e-05 
172 1 3.44262 0.338756 4.72112 0 1 0 0.000123599 0.000102648 3.57106e-05 -0.000121147 -8.42335e-05 -3.55527e-05 -0.000105341 -2.65202e-05 1.59192e-05 0.5 -0.000266616 -0.000270432 -0.000860794 -0.000236825 0.000225512 0.000371096 
718 2 0.202275 2.03676 5.51279 0 1 0 1.9766e-05 -2.79011e-05 -5.51182e-09 -2.11035e-05 7.96301e-06 9.53578e-06 -8.39344e-05 -4.23572e-05 2.00665e-05 0.5 -0.00032513 -5.97796e-05 -0.000215154 0.000170483 -0.000176831 0.000475816 
505 2 0.484456 3.50166 5.83374 0 0 -1 -3.68025e-05 0.000253714 0.0001798 3.13265e-05 -0.000239039 -0.000152835 1.71883e-05 -6.17038e-05 0.000101144 0.5 -2.8148e-05 -0.000714547 -0.000347792 7.75971e-06 -2.99646e-06 0.00056565 
524 2 3.99511 2.73507 5.70652 0 0 0 0.000428586 0.000202036 0.000459705 -0.000391903 -0.000161796 -0.000409919 -0.000115584 0.000297583 0.000175542 0.5 7.25682e-07 7.51939e-05 7.04569e-05 -4.93207e-05 -5.71924e-05 4.64779e-05 
839 2 0.579328 1.61495 4.31114 1 0 0 0.000100976 -0.000360897 -0.000225713 -9.08384e-05 0.000305983 0.000203175 -3.41774e-05 -6.16291e-06 0.000109864 0.5 -5.83281e-05 -0.00049676 -0.000295749 0.000258856 -7.15696e-06 0.000500845 
937 2 2.44356 3.38667 4.33711 1 0 0 9.56381e-05 -0.000220281 0.000143393 -8.76636e-05 0.00019845 -0.000123826 -6.56809e-05 -5.95911e-05 3.45296e-05 0.5 -8.14332e-05 4.32169e-05 -0.000376857 6.49414e-05 0.000129528 0.000211604 
811 2 2.60622 3.94629 5.52488 1 0 0 1.82573e-05 4.08643e-05 0.000164578 -1.85041e-05 -2.85331e-05 -0.000139576 -9.30026e-05 -8.37601e-05 -6.59482e-06 0.5 -4.76453e-05 -0.000230799 -7.29082e-05 -0.000101237 -3.45201e-05 0.000208272 
827 2 1.52084 3.18149 4.66346 1 0 0 6.65165e-05 -0.000251778 4.1368e-05 -5.6884e-05 0.000209757 -2.98299e-05 -0.000113883 -6.97651e-05 -4.99331e-05 0.5 -0.000101032 -6.96151e-05 -0.000343533 -3.76069e-05 8.48075e-05 0.000240002 
149 1 4.05558 3.93276 4.61863 0 0 0 9.74058e-05 -3.77761e-05 0.00030615 -9.47385e-05 4.50594e-05 -0.000272574 -1.35596e-05 9.15613e-06 5.07485e-05 0.5 5.07456e-06 -7.84107e-05 0.000127671 0.00025693 -0.000123357 9.7236e-05 
925 2 0.623166 3.59914 4.52294 1 0 0 0.000134971 -0.000127723 -2.73187e-05 -0.000121015 9.30345e-05 3.19964e-05 -9.95599e-05 2.3889e-05 -3.66306e-05 0.5 -3.64858e-05 -0.000156516 -5.72738e-05 -1.20452e-05 -4.79754e-05 9.15329e-05 
168 1 3.33518 4.6036 5.3314 0 0 0 8.33024e-05 9.76612e-06 0.000320506 -8.09186e-05 1.91429e-06 -0.000286649 -5.23671e-05 -5.81354e-05 5.09694e-05 0.5 -0.000248627 -0.000214088 -0.000242181 -5.52402e-07 -6.75257e-05 0.000176424 
928 2 1.57467 4.40878 4.97857 1 0 0 5.85249e-05 2.75192e-05 0.000214083 -5.16549e-05 -1.75556e-05 -0.000178938 -7.07059e-05 -1.04108e-05 -8.81722e-05 0.5 -0.000157829 -0.0001855 -0.000166073 -0.000116318 6.34884e-05 0.000127248 
148 1 3.93981 3.74221 5.74545 0 0 0 5.28701e-05 0.000191463 0.000422725 -5.62029e-05 -0.000152729 -0.000376438 -8.92389e-05 -4.76512e-05 0.000184169 0.5 7.60504e-05 0.00020908 0.000171476 0.000112253 0.000124842 0.000111895 
914 2 4.69246 4.38503 5.24401 0 0 0 -1.90008e-05 1.68981e-05 0.000387845 6.9194e-06 7.53316e-06 -0.000351367 -0.00012944 -9.18258e-05 -8.31158e-05 0.5 1.87264e-06 4.67143e-05 9.66084e-05 -3.0249e-06 4.11875e-05 6.22299e-05 
23 1 2.87769 1.11853 4.05725 0 0 0 8.13394e-05 -9.61226e-05 -0.000158429 -8.06928e-05 8.57129e-05 0.000144551 1.45598e-05 -4.17227e-05 1.77488e-05 0.5 -0.000222699 -0.000223503 -0.000158402 -0.000115407 0.000120843 0.000125248 
594 2 2.05579 1.97084 4.80237 0 0 0 0.000112116 9.08166e-05 5.62915e-05 -0.000101891 -8.45388e-05 -3.73281e-05 3.79428e-05 -4.43445e-05 0.000115257 0.5 -4.80695e-06 -0.000238984 -4.08148e-05 0.000124832 -5.91977e-05 0.000130519 
539 2 3.78447 1.04062 5.46904 0 0 0 0.000132812 0.000192996 0.000141798 -0.000124054 -0.000160192 -0.000127776 -5.34735e-05 8.09047e-05 -3.13864e-05 0.5 -7.78484e-05 -0.000769232 -0.000315033 -0.000295112 -0.000192811 0.000612479 
730 2 0.461727 1.11572 5.1696 0 1 0 6.98952e-05 -4.61706e-05 -4.67998e-05 -6.71753e-05 2.66952e-05 4.37892e-05 -4.54688e-05 -9.9738e-06 0.00012485 0.5 0.000207616 -4.34176e-05 -0.0001751 8.94187e-06 -4.3465e-05 0.000354487 
689 2 3.51929 0.103555 5.69618 0 1 0 6.49925e-05 0.000181852 1.76656e-05 -6.24588e-05 -0.000151067 -1.91696e-05 -3.40403e-05 -6.7689e-05 -3.35727e-05 0.5 -0.000335508 -0.00097757 -0.000854382 -0.000134855 3.29936e-05 0.000720099 
450 1 0.619127 4.79879 4.46886 1 0 0 0.000264972 -0.00013682 9.07493e-05 -0.000228087 0.000116828 -6.36267e-05 -0.000209168 -4.95058e-05 2.34704e-05 0.5 -0.00011614 -0.00031431 -0.000648116 1.14492e-05 -0.000105251 0.000369805 
549 2 4.49946 0.500876 5.01431 0 0 0 -2.41467e-05 8.79299e-06 6.35039e-05 1.49186e-05 3.45781e-06 -5.93098e-05 -3.85168e-05 4.10296e-05 -0.000102526 0.5 0.000218086 0.000312984 0.000214549 -0.000140248 -0.000116185 0.000120341 
591 2 1.44644 1.12513 4.40351 0 0 0 0.000189947 -0.000210054 -0.000289758 -0.000171296 0.000169121 0.00025698 -7.09621e-05 5.05876e-05 3.91433e-05 0.5 -0.000142009 -0.000250384 -0.000198427 6.62351e-05 2.67512e-05 0.000194405 
243 1 1.20286 1.83737 5.34385 0 1 0 1.30286e-05 9.50564e-05 -7.7523e-05 -1.63066e-05 -9.77624e-05 7.74478e-05 -3.39438e-05 -3.58266e-05 7.19079e-05 0.5 -0.00010008 -0.000119882 -6.23679e-05 8.19151e-05 -8.75982e-06 0.00016929 