ITEM: TIMESTEP
14000
ITEM: NUMBER OF ATOMS
1000
ITEM: BOX BOUNDS xy xz yz pp pp pp
0.0000000000000000e+00 1.0000000000000227e+01 2.2737367544323206e-13
0.0000000000000000e+00 1.0000000000000000e+01 0.0000000000000000e+00
-0.0000000000000000e+00 1.0000000000000000e+01 0.0000000000000000e+00
ITEM: ATOMS id type x y z ix iy iz vx vy vz fx fy fz omegax omegay omegaz radius c_2[1] c_2[2] c_2[3] c_2[4] c_2[5] c_2[6] 
200 1 1.83252 2.16792 1.62707 -41 0 0 -282.162 29.5667 2.20073 -1353.56 1261.77 -861.316 0 0 0 0.5 -41960.1 -797.844 -432.979 4613.5 2.04735 103.392 
45 1 0.36013 0.137421 0.846198 53 1 0 -518.895 12.0168 28.7801 1130.65 2929.76 340.429 0 0 0 0.5 -140716 -174.89 -530.054 3636.16 8443.76 -418.56 
502 2 0.103608 0.930193 0.0668974 -31 0 0 -427.189 6.07542 1.44726 -41.4944 -891.167 -206.856 0 0 0 0.5 -96179 34.0803 -736.758 1545.21 -189.101 314.185 
433 1 1.83373 2.20297 0.155479 63 1 -1 -306.311 29.6293 -19.6298 3857.63 -2300.48 -970.745 0 0 0 0.5 -50402.2 -1104.13 -737.614 5474.34 -2968.28 75.2822 
193 1 0.71831 0.655623 1.74293 63 1 0 -401.07 -41.977 15.7852 -979.026 -2278.26 1871.47 0 0 0 0.5 -85055 -1383.59 -183.352 -8598.48 3657.82 495.954 
650 2 0.346885 4.53344 0.710886 -3 0 0 -22.3174 -4.50261 -12.0237 662.288 923.344 -2722.17 0 0 0 0.5 -1040.46 -573.943 -460.013 514.652 -150.601 -71.1077 
526 2 0.408287 1.11289 1.67285 -29 0 1 -382.785 15.5433 -0.422554 -1825.48 2425.68 -1621.4 0 0 0 0.5 -77619.4 -676.751 -518.212 3691 259.039 -25.7921 
665 2 4.67509 3.6965 0.800229 -1 0 1 -89.8782 9.47957 -6.14916 1938.37 -909.878 789.679 0 0 0 0.5 -4860.89 -271.64 -375.495 718.56 -580.811 2.49307 
637 2 0.0531654 1.80155 0.742983 -16 0 1 -278.111 -0.125593 -5.25189 -1493.47 173.234 -1032.72 0 0 0 0.5 -40871.6 -9.36788 -119.42 71.0996 -974.866 62.5218 
933 2 1.26101 0.737756 1.47135 -14 0 0 -399.957 27.2857 -8.63391 3619.84 304.212 -361.647 0 0 0 0.5 -84951.8 -602.594 158.468 5855.32 -1288.6 38.5852 
89 1 1.33881 3.24291 1.59991 -13 0 1 -172.39 1.18677 -9.21165 1472.91 -1505.89 1083.91 0 0 0 0.5 -17676.6 -1104.88 -725.143 1163.01 -508.493 246.277 
780 2 1.25405 1.73088 0.576959 -46 0 1 -311.408 2.82117 -16.9401 283.02 2776.82 -472.489 0 0 0 0.5 -51385.8 -117.678 -897.812 765.017 -2261.64 17.971 
71 1 4.15224 2.19414 1.16082 -16 0 1 -249.524 -38.8024 -13.636 -3583.9 1012.88 -96.4853 0 0 0 0.5 -34041.4 -1453.09 -631.806 -4389 -1504.94 -287.841 
525 2 1.31064 0.248506 0.961618 -54 0 0 -478.155 -2.31659 -50.3357 276.54 -2366.57 161.424 0 0 0 0.5 -119740 -986.433 -1549.44 -71.6088 -12636.6 170.597 
119 1 1.93876 1.54614 1.16297 -11 0 0 -305.323 -13.6486 4.11281 -573.889 -1193.37 -1407.26 0 0 0 0.5 -48789.8 -11.6837 218.552 -2097.29 813.338 141.467 
629 2 1.75219 0.961485 0.550283 -49 0 0 -401.986 -29.64 -18.4094 1036.39 -747.211 1116.59 0 0 0 0.5 -85084.6 -1089.71 -161.144 -5942.16 -3551.32 125.316 
886 2 0.738779 1.6859 1.17927 76 1 0 -280.304 15.8007 11.6851 -247.859 -1726.75 289.657 0 0 0 0.5 -41923.8 -454.639 -1475.8 2321.64 1750.15 -519.439 
862 2 1.26589 2.7176 0.567636 -25 0 1 -231.969 26.9515 6.20634 2561.97 -53.1335 -344.165 0 0 0 0.5 -30297.3 -332.771 -453.965 4084.48 1767.11 -563.867 
871 2 2.84424 3.04867 1.89263 -16 0 0 -192.909 34.4102 -10.8772 1812.77 -1837.83 2283.51 0 0 0 0.5 -20128.7 -1423.36 -1036.66 3692.84 -1024.09 886.851 
644 2 0.691525 0.911308 0.751746 87 1 0 -418.925 15.6936 -17.8036 -1006.15 844.688 965.661 0 0 0 0.5 -92578.6 -358.042 -477.095 4131.9 -4402.28 303.819 
41 1 2.01309 2.90155 1.22139 -19 0 0 -192.558 23.5089 -22.0602 2069.16 -949.434 -1197.79 0 0 0 0.5 -20106.6 -498.318 -482.165 2711.86 -1832.28 93.0358 
229 1 0.630321 2.82029 0.796089 -17 0 1 -192.949 -1.75818 16.3272 -1567.2 -1802.1 2035.63 0 0 0 0.5 -22060 -1101.3 -775.655 319.342 2300.61 285.4 
589 2 1.76681 3.76458 0.326913 1 0 1 -76.7063 -16.1451 25.2908 -877.712 -141.432 464.777 0 0 0 0.5 -3527.84 -160.336 -412.627 -633.458 1122.1 245.222 
689 2 4.77187 2.48639 1.53858 -32 0 0 -246.126 27.532 4.10596 -1283.23 1033.79 -284.942 0 0 0 0.5 -32231.9 -588.146 -254.919 3709.64 276.873 -90.6255 
515 2 2.8684 0.143032 0.995573 -61 0 0 -539.496 10.0674 19.7017 -223.868 -295.904 -736.43 0 0 0 0.5 -152366 -0.521976 122.225 2883.59 5664.27 26.9208 
269 1 2.23413 4.87584 0.238727 -23 0 1 -9.50068 -3.37 4.90337 1398.07 1106.39 -135.304 0 0 0 0.5 -233.94 476.992 -119.994 307.145 -125.767 -196.659 
859 2 3.87745 2.91739 1.22246 -13 0 1 -197.88 8.08046 -14.1345 -369.978 592.497 -57.0384 0 0 0 0.5 -20549.9 -430.126 -131.358 934.272 -1464.21 -13.5656 
364 1 4.89953 1.87244 0.944326 -9 0 0 -279.152 -1.11028 2.0375 3317.24 133.401 -276.003 0 0 0 0.5 -42325.8 -1155.22 -1036.68 775.848 341.203 132.321 
547 2 0.810139 2.16213 1.91627 74 1 1 -257.355 23.4057 -24.9372 577.651 1342.26 675.002 0 0 0 0.5 -35984.6 -720.711 -1163.71 3596.77 -3414.12 -284.921 
623 2 3.98855 3.83461 0.255783 -6 0 1 -88.9994 -2.17945 10.7908 307.232 -1227.56 1369.85 0 0 0 0.5 -4960.39 -857.308 -1102.66 254.575 -319.599 141.056 
588 2 3.0073 3.21702 0.410041 -6 0 1 -106.297 -13.5647 29.0955 632.11 -831.257 474.841 0 0 0 0.5 -6054.75 -332.932 -535.025 -573.853 1507.67 353.242 
770 2 2.85637 1.46366 1.26884 -34 0 0 -294.717 -29.0663 -6.46941 248.52 917.043 170.984 0 0 0 0.5 -45554 -33.1346 -12.1602 -4443.98 -1001.77 -31.1301 
857 2 2.92997 2.34284 1.41152 -3 0 0 -253.01 8.06305 -17.5957 -37.8871 -1263.05 -376.717 0 0 0 0.5 -33516.6 259.117 -205.536 1116.64 -2315.77 61.2561 
340 1 0.805692 3.93105 1.30028 -14 0 0 -85.2547 0.486451 -3.13073 -393.34 1378.46 -462.317 0 0 0 0.5 -5448.15 -1343.31 -613.845 803.84 -792.287 684.134 
8 1 4.65776 1.96582 0.212747 -21 0 0 -234.921 -24.0583 -19.2421 -1733.09 802.973 1899.15 0 0 0 0.5 -30038.7 -753.108 -2125.13 -2348.36 -2232.26 -468.825 
54 1 2.71681 3.67079 1.15347 -1 0 1 -111.141 11.004 31.0087 -210.26 2304.41 -2266.26 0 0 0 0.5 -6427.08 -669.532 -1369.89 834.349 1713.27 650.488 
214 1 3.32563 4.18894 1.73292 -4 0 0 -80.7528 10.2462 15.7708 -1960.71 1130.45 104.278 0 0 0 0.5 -3953.16 -358.787 -88.4518 955.546 844.489 -114.271 
135 1 1.49942 4.25931 1.65219 -10 0 0 -83.604 16.3672 10.1563 985.896 -463.326 695.962 0 0 0 0.5 -3943.38 -505.58 -170.524 700.176 275.892 -19.9865 
889 2 0.436745 3.64527 0.525484 -4 0 0 -78.5435 -20.0836 -18.2285 -761.644 2288.55 -622.587 0 0 0 0.5 -3257.25 -1405.44 -204.652 -580.241 -922.539 156.767 
661 2 4.48784 2.78775 0.421403 -14 0 0 -165.439 0.492857 17.8787 735.967 -158.063 1158.62 0 0 0 0.5 -14508.1 -211.139 -476.258 179.739 1329.92 101.056 
996 2 4.11553 4.34958 1.13357 2 0 0 -56.1823 16.714 31.0961 192.46 1000.42 1549.99 0 0 0 0.5 -1845.38 -1178.29 -1545.87 676.13 904.961 430.77 
807 2 4.02644 3.65425 1.60369 -6 0 0 -109.077 12.553 -3.34162 1624.99 -792.351 21.1018 0 0 0 0.5 -6830.98 -1259.4 -585.584 1197.51 -10.0727 916.181 
450 1 2.56338 3.79748 0.0481354 -5 0 0 -74.9057 15.0872 5.86519 391.404 610.209 -1341.59 0 0 0 0.5 -3479.65 -304.547 37.9677 755.642 259.044 207.226 
348 1 3.98909 4.68523 0.539247 -11 0 1 7.68792 1.34517 2.80201 -433.263 633.538 -871.377 0 0 0 0.5 -139.112 -1217.58 -1084.54 155.848 -133.923 638.198 
876 2 3.58375 3.56178 2.8851 -9 0 0 -159.663 5.91727 12.298 -683.351 237.252 -226.592 0 0 0 0.5 -13695.1 -217.03 -109.417 691.317 934.108 -18.6491 
376 1 2.37886 0.953538 2.09189 -21 0 0 -360.4 -28.8446 -14.7945 -89.044 989.442 94.7883 0 0 0 0.5 -68005.8 -15.1925 -110.745 -5480.95 -2795.42 -183.163 
930 2 2.28393 1.56403 3.73422 -24 0 0 -277.761 -30.5645 5.66861 640.688 1281.54 110.569 0 0 0 0.5 -40312 -88.8013 38.8199 -4126.73 758.016 -126.478 
769 2 1.83632 0.626592 3.96222 50 1 0 -426.158 -7.60981 -3.73454 273.172 -674.012 139.437 0 0 0 0.5 -95127.1 -204.156 -660.285 -1619.72 -733.772 -199.949 
257 1 4.35942 4.9606 3.78193 -12 0 0 -59.3993 10.8916 8.23356 800.401 -2223.96 500.952 0 0 0 0.5 -1935.61 -1189.92 -798.663 616.72 274.674 -20.5631 
357 1 0.384919 0.206508 3.40142 -46 0 1 -455.353 9.7696 17.14 -336.648 136.004 39.0336 0 0 0 0.5 -108508 -393.656 -633.099 2366.36 3984.14 285.66 
899 2 2.67051 2.24971 3.21086 -16 0 0 -227.576 -6.32136 2.46179 494.919 -2087.92 -509.749 0 0 0 0.5 -27172 -250.544 -99.9534 -202.732 388.798 -757.243 
510 2 0.120121 2.32499 2.2969 -13 0 0 -234.607 -7.88534 7.46743 -2157.14 509.148 1189.91 0 0 0 0.5 -29563.3 -74.0178 -255.652 -792.974 1327.83 -66.0659 
768 2 4.35568 3.0912 3.05353 -27 0 -1 -162.506 -0.576018 -7.30808 171.354 623.008 588.252 0 0 0 0.5 -14437.1 -558.006 -975.288 312.346 -990.978 218.832 
638 2 4.2488 4.2973 2.27181 -4 0 0 -73.1566 14.4005 21.711 -1168.05 263.934 -9.86433 0 0 0 0.5 -3132.42 100.551 -36.1244 843.661 1072.09 43.155 
847 2 2.62881 3.01603 2.86226 -9 0 0 -179.252 29.0122 -1.48196 933.454 190.895 786.159 0 0 0 0.5 -17184.8 -485.55 -307.651 2848.24 -402.302 2.8004 
323 1 1.67741 2.04319 3.23874 -13 0 0 -246.115 2.96169 -18.1316 57.0337 321.938 1541.29 0 0 0 0.5 -31804.7 -68.0404 -167.029 404.639 -2465.46 -61.3084 
237 1 0.519266 3.20966 2.00205 -9 0 1 -138.382 -5.74393 9.64477 -1142.3 -1217.18 -374.252 0 0 0 0.5 -10885.9 -352.04 -635.877 -250.118 1280.86 -325.124 
7 1 1.45325 3.29833 2.7653 -14 0 1 -112.163 -4.53968 3.63292 -1941.85 500.015 2165.45 0 0 0 0.5 -8005.69 -160.648 -972.773 192.438 1367.26 -358.806 
646 2 2.03158 3.12349 2.2387 -14 0 0 -180.207 5.67202 -0.54376 1139.43 -738.104 -3056.36 0 0 0 0.5 -18999.5 -122.542 -1336.81 955.626 645.615 -207.636 
426 1 2.30238 1.8034 2.17331 45 1 0 -298.987 20.948 8.18579 1823.36 -1693.87 587.982 0 0 0 0.5 -47501.4 -15.8194 -640.39 3509.57 908.998 293.193 
291 1 1.25996 0.812844 2.43869 -26 0 0 -373.052 1.98562 16.4902 -650.416 315.013 -4068.76 0 0 0 0.5 -74212.2 -45.5293 -340.151 638.897 2848.79 186.068 
656 2 1.44234 1.80928 2.34703 -25 0 1 -306.973 5.92796 5.37212 2253.68 -972.118 -567.914 0 0 0 0.5 -50755.3 -213.154 -832.395 1195 757.078 110.9 
965 2 1.05521 1.00035 3.45571 -33 0 0 -410.284 1.59764 -6.78116 4554.09 -2667.38 1960.1 0 0 0 0.5 -89773.7 -962.046 -807.968 1359.74 -1854 -264.973 
512 2 0.744771 2.51928 3.05521 -13 0 0 -235.575 42.9063 14.3857 407.297 -44.147 -256.668 0 0 0 0.5 -29220.7 -915.267 -141.735 5242.36 1855.3 -277.666 
395 1 0.531221 0.874711 2.69109 -21 0 0 -379.578 -20.8784 18.8064 -1556.46 -2305.74 -127.365 0 0 0 0.5 -76625.5 440.537 -1364.77 -2946.1 3007.31 442.343 
382 1 4.19923 0.942873 2.47132 -16 0 0 -341.739 -25.6593 -2.31835 331.808 1557.52 -1002.48 0 0 0 0.5 -61122.2 -619.839 -191.854 -4622.36 -340.095 241.505 
891 2 0.373648 1.59584 3.52757 -12 0 0 -306.523 9.12887 5.88325 -1793.96 -197.216 1764.47 0 0 0 0.5 -51136.8 -1887.31 -425.812 3084.71 1335.99 -39.9752 
817 2 3.26106 4.98338 2.45067 -3 0 0 6.82661 -5.49233 -15.3805 732.992 -541.623 -363.157 0 0 0 0.5 -278.528 -231.645 -197.158 110.372 189.954 -75.2762 
680 2 1.85568 0.661731 3.00805 -31 0 0 -408.75 -4.82167 5.09651 2639.77 -676.478 1231.29 0 0 0 0.5 -88288.7 -76.5864 -1109.73 -809.862 484.651 174.457 
554 2 4.7306 2.70942 3.78792 -27 0 0 -193.508 7.28075 4.38747 -918.878 2552.42 497.802 0 0 0 0.5 -20429.9 -1298.18 -452.054 1650.71 346.402 196.032 
697 2 0.0127881 1.17873 2.4374 -15 0 0 -348.424 7.1805 12.5348 -611.332 533.951 1231.83 0 0 0 0.5 -65507.4 -525.38 -1220.58 2213.74 1843.34 392.251 
15 1 3.39086 3.62733 3.8758 -20 0 1 -144.001 2.24341 8.77968 -1257.89 1910.64 -991.793 0 0 0 0.5 -11134.6 -598.546 -184.284 672.785 393.653 284.95 
413 1 0.785837 1.73584 2.77692 -35 0 0 -320.685 7.27408 -3.38269 -1194 -446.703 -1159.72 0 0 0 0.5 -54418.5 600.455 -203.502 1269.77 -17.1934 -9.58362 
531 2 3.88921 2.30235 2.21123 -18 0 0 -217.347 6.80379 -14.0499 163.387 1504.45 595.56 0 0 0 0.5 -25640.4 -926.739 -91.6127 1243.38 -1141.26 -175.818 
669 2 2.26789 2.83319 3.73328 -47 0 1 -175.388 1.32447 -1.56325 -1117.45 303.872 -69.2163 0 0 0 0.5 -16835.6 -801.384 -908.41 670.684 26.6413 -628.141 
404 1 4.26713 3.71582 3.71176 -3 0 0 -121.752 21.8283 -0.937433 -1261.44 -1045.1 72.0211 0 0 0 0.5 -7701.38 376.583 254.79 1712.62 -552.561 -520.544 
925 2 3.64647 4.40569 3.24448 -3 0 0 -63.6833 15.6995 1.98473 13.9762 188.026 80.0721 0 0 0 0.5 -2123.92 -208.391 -16.4508 517.594 63.6685 -50.1016 
594 2 2.16444 4.80814 3.69048 -7 0 0 -34.9743 -10.9166 -0.326464 319.672 -177.688 27.119 0 0 0 0.5 -625.673 -44.1115 -20.5471 -225.283 110.084 -53.3632 
98 1 1.11552 4.38147 2.61496 -9 0 0 -81.5371 6.37939 22.9905 4984.16 -1502.15 -873.078 0 0 0 0.5 -5411.25 -187.421 -1001.11 867.315 1460.76 -212.244 
457 1 4.81572 4.3037 3.17147 1 0 0 -61.7598 8.54996 4.37983 -502.074 -538.036 494.479 0 0 0 0.5 -1859.43 119.875 123.537 424.064 5.99894 -164.955 
217 1 0.285789 4.10671 3.74592 -11 0 0 -76.76 -14.8428 -10.4324 -1596.77 -348.895 777.505 0 0 0 0.5 -3418.26 -410.712 -1411.78 -22.2046 -87.3184 -254.044 
662 2 0.176045 3.79301 2.6473 -5 0 0 -93.2542 -12.1235 6.94992 412.321 690.736 2008.94 0 0 0 0.5 -5708.67 -624.168 -1252.28 -27.7897 -360.676 -24.6845 
458 1 4.08588 3.15527 2.19991 -6 0 0 -158.378 5.37785 -2.52122 -106.245 -648.623 396.197 0 0 0 0.5 -13201.4 -613.714 -1011.29 436.226 -429.515 460.263 
909 2 0.978861 4.92597 3.65307 3 0 0 -9.57748 5.83444 -7.1371 94.9659 2910.83 -230.777 0 0 0 0.5 -112.183 -885.866 69.2954 554.752 58.9223 -34.8712 
384 1 2.73991 1.45988 2.99027 -19 0 0 -303.477 -30.7547 -23.4844 649.023 -783.197 -128.953 0 0 0 0.5 -48359.8 -729.479 -716.075 -4804.42 -3723.63 -367.824 
148 1 2.77422 3.90518 2.53185 -8 0 0 -147.517 30.215 -12.002 -124.089 -43.1005 -14.4908 0 0 0 0.5 -11437.5 -446.188 -78.3625 2359.11 -948.782 183.288 
898 2 3.11957 2.37544 2.43021 -14 0 0 -223.778 -5.35258 -18.2467 -1502.25 -233.543 467.595 0 0 0 0.5 -26916 -141.233 -241.439 -477.834 -1939.67 -117.281 
276 1 3.76089 1.37415 3.35234 -33 0 1 -352.34 0.58914 -1.22574 -103.507 -107.388 335.923 0 0 0 0.5 -64986.9 15.2487 150.201 123.56 -272.654 -47.8899 
751 2 3.40437 0.0262865 2.44677 54 1 1 -423.36 -30.6109 -9.46208 -379.594 -114.837 -323.91 0 0 0 0.5 -93976.8 -502.526 -141.553 -6824.88 -2208.42 -185.222 
423 1 4.58172 2.22175 2.91656 -29 0 0 -209.916 -15.3568 -8.34126 -153.092 -713.604 -474.465 0 0 0 0.5 -22973.4 -449.731 80.8551 -1616.72 -780.228 -133.058 
647 2 0.759812 3.55277 3.1923 -14 0 0 -104.157 -11.2061 12.6717 963.451 -1517.98 953.441 0 0 0 0.5 -6628.12 -523.38 -915.726 179.996 926.879 -277.606 
158 1 0.291294 4.62969 3.02627 -3 0 0 -9.48057 -8.24859 -1.82591 -2475.05 684.196 755.496 0 0 0 0.5 -2193.52 -826.699 -825.06 834.506 789.267 -75.9638 
795 2 0.516197 4.58186 2.01399 -16 0 0 -61.962 -0.529064 8.77649 82.2731 -1222.77 990.503 0 0 0 0.5 -2509.8 -367.481 -930.659 332.959 -355.271 543.633 
130 1 4.08944 0.23354 3.03135 -27 0 0 -429.66 0.191438 -5.51665 -533.951 85.1124 165.144 0 0 0 0.5 -96925.1 -734.784 -645.848 134.755 -1486.58 586.403 
69 1 3.58133 2.41821 3.46175 -19 0 1 -223.238 11.3874 8.00016 -106.204 -108.586 -140.067 0 0 0 0.5 -26081 -95.7262 -78.0762 1318.65 920.256 -82.9317 
523 2 1.25389 4.15484 3.75966 -30 0 1 -69.8311 4.47353 -13.1886 -1150.72 -417.979 -835.252 0 0 0 0.5 -2940.71 -1763.24 -197.634 1139.98 -840.617 619.769 
372 1 4.30521 1.74908 2.04051 -18 0 0 -263.275 -22.477 -24.2017 1850.86 -3099.77 362.477 0 0 0 0.5 -36663.8 -870.919 -724.137 -2565.11 -3265.92 -354.189 
725 2 4.8424 1.24077 3.09787 -10 0 0 -350.217 16.1433 6.54939 -411.533 587.664 -32.5956 0 0 0 0.5 -64229.2 -327.597 -183.28 3067.49 1257.68 -115.803 
136 1 0.39928 0.912644 4.12312 -35 0 0 -396.534 -8.90867 26.9316 -57.9834 -88.9489 -282.84 0 0 0 0.5 -82250.3 218.055 -249.093 -1771.47 5529.75 -7.19509 
659 2 2.25161 2.06671 4.9627 -16 0 0 -279.312 6.83843 4.28175 -18.7867 -1705.88 272.87 0 0 0 0.5 -40743.2 -31.4857 -180.004 1168.19 312.479 -377.596 
566 2 3.84564 0.627672 5.3975 59 1 0 -438.151 2.14472 -5.34986 -211.408 40.839 96.5437 0 0 0 0.5 -100361 218.678 37.2393 627.779 -1180.28 109.06 
559 2 0.395209 1.0864 5.13165 -44 0 0 -357.303 -10.1309 -32.1865 -1189.04 510.632 -570.481 0 0 0 0.5 -67527.1 -138.831 -656.658 -1664.13 -6294.13 -72.3764 
42 1 0.968744 0.292647 4.73006 -36 0 0 -456.688 -5.02414 -0.0653936 -93.3754 -173.4 -277.352 0 0 0 0.5 -109216 -54.6354 -105.967 -1223.68 -51.3118 -66.4209 
239 1 1.59124 1.16675 4.58749 -43 0 0 -385.059 -10.6788 24.2307 2771.67 -1345.78 -543.59 0 0 0 0.5 -78646.2 -672.93 -976.92 -1111.53 4699.02 -479.352 
929 2 1.41354 1.81687 5.27732 -14 0 0 -299.626 -4.43857 9.55331 -3171.16 3873.33 721.513 0 0 0 0.5 -47972.7 -1131.71 -372 411.654 1397.86 -274.654 
517 2 1.72921 1.96915 4.21149 -25 0 0 -291.302 20.3542 6.59292 -737.758 -1536.18 -764.796 0 0 0 0.5 -44394.3 367.111 359.878 3184.39 806.118 -378.064 
412 1 2.09808 1.24178 5.34604 -53 0 0 -377.858 1.89546 29.5699 3429.27 -1744.61 -1125.93 0 0 0 0.5 -76054.9 -651.383 -685.789 1251 5330.87 123.688 
24 1 4.24197 1.97855 5.03811 88 1 -1 -324.588 2.6577 -13.1182 2876.03 -2886.26 2071.67 0 0 0 0.5 -56536.9 -1026.65 -21.5358 1664.53 -2462.46 91.7481 
839 2 4.11446 3.31442 5.39087 -28 0 0 -206.016 8.09897 -1.476 -287.579 -2981.1 -2591.83 0 0 0 0.5 -23523.6 -1221.35 -519.468 1749.35 246.392 -708.515 
513 2 1.25382 2.66751 4.79525 -21 0 0 -235.093 3.1947 -0.107479 310.261 15.2089 -108.349 0 0 0 0.5 -28859.9 -19.9006 -71.3826 434.674 84.744 -10.2081 
262 1 2.04429 2.90457 5.33409 -46 0 0 -227.68 16.0419 -1.49824 -265.465 1127.72 479.548 0 0 0 0.5 -27045.1 85.9215 360.571 2139.99 -154.42 -527.456 
672 2 0.010649 0.0829292 4.34015 -35 0 0 -484.964 10.9483 29.2154 -158.075 1318.07 641.142 0 0 0 0.5 -123613 -114.548 -1112.81 3138.97 7524.02 -526.203 
289 1 0.406331 1.98762 5.61893 -66 0 -1 -299.464 10.5266 -5.12607 391.511 -211.56 398.097 0 0 0 0.5 -47118.3 -86.6765 47.883 1725.23 -906.459 48.7294 
16 1 3.25455 4.41746 5.32541 -23 0 0 -18.3926 -7.53851 15.9953 -832.019 8.74995 -432.181 0 0 0 0.5 -1090.49 -1691.41 -954.798 1035.79 -660.257 907.858 
720 2 2.95359 4.95496 5.06746 3 0 0 36.073 -5.88918 -18.1327 -1445.51 1107.05 -2454.76 0 0 0 0.5 -964.5 -1390.69 -302.37 735.826 197.154 231.423 
524 2 3.28047 3.75355 4.90635 -20 0 0 -137.262 -7.82991 -40.6995 12.1802 -980.973 -196.976 0 0 0 0.5 -9865.16 -115.028 -904.272 -549.583 -2922.79 -379.518 
144 1 4.14515 1.43348 5.8461 -27 0 0 -361.774 -10.909 -4.37886 3643.27 -3952.74 1022.31 0 0 0 0.5 -69630 -964.414 297.426 -1286.01 -1371.54 -139.086 
399 1 0.960262 2.95051 5.67368 -17 0 -1 -221.961 9.76432 2.89219 -252.943 398.365 -1350.99 0 0 0 0.5 -25816.9 -91.6595 -885.875 1162.8 291.567 102.567 
814 2 1.96998 0.388067 5.8112 -32 0 0 -440.526 -2.04258 -13.3466 3278.24 -1889.06 179.433 0 0 0 0.5 -102758 -526.193 -906.276 7.20643 -3271.99 398.369 
251 1 2.25214 3.75002 4.90322 -9 0 0 -144.66 22.9819 -6.82234 3919.26 -1123.22 141.557 0 0 0 0.5 -12750.3 139.074 217.41 1895.63 -477.064 -75.8833 
354 1 1.72137 3.48318 4.10628 -6 0 0 -152.037 2.38496 -6.77641 1376.91 -1540.25 1308.93 0 0 0 0.5 -12734.2 -1180.02 -564.955 1120.64 -428.129 151.392 
821 2 0.919015 1.7386 4.4002 81 1 0 -313.636 -11.2419 10.6859 -2530.54 2382.25 -808.492 0 0 0 0.5 -52341.7 -724.221 -126.645 -1041.47 1479.84 275.167 
77 1 1.226 0.770371 5.49418 59 1 1 -395.388 -13.0763 -8.97106 -1264.66 475.884 -847.593 0 0 0 0.5 -83493.3 -693.632 -608.07 -1955.28 -2576.36 17.2311 
836 2 2.61868 0.757569 4.70665 43 1 -1 -411.885 4.30906 -29.1465 -76.6121 -101.465 759.943 0 0 0 0.5 -88691.7 196.976 -214.199 767.577 -6319.02 47.4339 
111 1 4.2155 4.42606 4.59779 5 0 0 -68.0991 1.59195 -6.63015 22.8504 -270.036 425.784 0 0 0 0.5 -2397.25 -63.1671 -161.181 28.5222 -187.807 98.2588 
731 2 1.39487 3.76175 4.90236 105 1 0 -89.3631 -10.0455 22.548 -3290.2 -129.929 1653.84 0 0 0 0.5 -6638.35 -157.222 -765.36 -215.86 919.612 90.9483 
508 2 2.86545 2.92789 4.43292 -30 0 0 -214.765 23.0935 14.305 897.365 -325.206 923.846 0 0 0 0.5 -24409.8 -84.4932 -455.123 2543.93 1301.72 -179.853 
575 2 0.120334 3.76573 5.75328 80 1 0 -170.91 -0.571424 0.0429914 2930.16 105.983 -2751.97 0 0 0 0.5 -16513.2 366.543 140.639 1106.02 -389.222 -666.614 
105 1 0.680208 4.00676 4.52064 10 0 -1 -73.7623 -22.8983 -6.43192 717.983 -572.688 -56.135 0 0 0 0.5 -3978.37 -567.254 -415.96 -311.078 -785.885 65.72 
868 2 2.91616 2.05869 4.25427 -25 0 1 -268.7 -8.03511 0.0476594 -427.916 292.331 105.03 0 0 0 0.5 -37673.5 210.265 123.688 -1088.25 -1.91615 87.317 
490 1 3.7766 0.00282856 4.06126 -39 0 0 -443.506 -9.45753 -8.25288 -1700.14 457.53 1301.14 0 0 0 0.5 -103511 -17.0857 -389.913 -1913.28 -1502.75 -257.546 
383 1 3.70306 2.47824 4.84777 -21 0 0 -264.805 -3.66536 7.91549 -2556.23 865.841 -1988.58 0 0 0 0.5 -37996.2 -1017.47 -346.049 852.627 1038.89 -326.071 
271 1 3.4839 1.08677 4.25128 -47 0 0 -384.969 -1.37329 -0.870019 103.507 107.388 -335.923 0 0 0 0.5 -77583.6 14.4429 150.591 -261.94 -221.893 -48.8936 
295 1 4.66975 0.0932816 5.65082 38 1 0 -506.294 18.2497 -1.5186 -156.186 946.218 -600.623 0 0 0 0.5 -134425 -518.136 -387.787 4862.67 -362.577 88.7286 
852 2 3.91264 2.99251 4.1922 -37 0 0 -190.023 -1.73029 2.45032 1658.12 -80.0631 350.47 0 0 0 0.5 -19474.3 -188.807 -86.4286 628.49 -36.7655 -79.6698 
999 2 2.76978 2.23638 5.67661 -29 0 0 -282.168 5.94391 24.4696 -969.652 1887.05 192.781 0 0 0 0.5 -42316.6 3.89668 -388.824 1453.75 3652.46 -297.713 
992 2 3.02213 0.10591 5.27673 -54 0 0 -437.678 -19.5927 -5.08777 -1944.75 1375.2 556.999 0 0 0 0.5 -100974 -142.726 26.4277 -4121.01 -766.565 -316.798 
23 1 2.77605 4.41011 4.32257 -19 0 0 -9.11612 -27.2604 -17.0703 -98.6936 387.036 172.412 0 0 0 0.5 20.911 -292.523 43.6161 -143.39 9.462 -182.611 
470 1 1.23803 4.73147 5.91399 17 0 0 -14.8207 -9.92147 -3.9914 784.48 -1845.94 -215.946 0 0 0 0.5 -353.648 -796.819 -286.783 401.556 -190.539 264.052 
500 1 0.588381 4.48714 5.25786 -6 0 0 -49.3808 1.61725 7.05625 1006.8 -2674.34 1369.74 0 0 0 0.5 -1772.98 674.397 371.061 807.164 -13.4731 -525.074 
977 2 1.60864 4.98937 4.4248 10 0 0 -19.417 -1.38109 18.1503 -560.579 5.33512 -318.318 0 0 0 0.5 -106.692 -3.94834 -46.0855 12.2568 398.129 11.9493 
561 2 -0.0409073 4.46344 4.47776 5 0 0 -59.1731 -13.6035 4.7135 -1574.99 179.06 -374.403 0 0 0 0.5 -2484.97 -803.573 -683.104 91.1047 311.788 -232.729 
369 1 3.47858 1.78814 5.52958 -17 0 0 -315.129 -18.0592 10.5894 -1650.63 1520.66 -2684.71 0 0 0 0.5 -53839.3 -473.763 -102.082 -1883.12 1289.42 52.4436 
755 2 3.25197 2.99417 5.36713 -28 0 0 -217.056 -6.62819 11.7432 -2574.43 1436.09 496.138 0 0 0 0.5 -25036.1 -46.4157 -896.734 -155.303 1343.91 -482.379 
62 1 3.76655 3.92 5.7933 -5 0 0 -86.6102 0.0472001 2.39915 488.125 1631.5 4858.85 0 0 0 0.5 -4948.23 -1594.52 -1038.96 1276.86 -41.0429 -18.5152 
976 2 4.82937 4.85085 5.76854 5 0 0 -38.8949 9.7507 -1.53157 -1252.43 -517.617 -384.717 0 0 0 0.5 -1321.66 185.325 -92.2778 188.401 -240.196 -47.0275 
771 2 4.85654 3.93263 5.92088 -14 0 -1 -73.5068 -14.8934 -0.460705 -620.145 546.044 866.007 0 0 0 0.5 -2780.94 -96.4754 -924.137 -428.805 -58.3539 -658.742 
805 2 4.90684 2.45873 5.8403 -31 0 0 -274.764 -5.96379 -4.95303 -1561.29 1515.65 -1187.27 0 0 0 0.5 -40872 -1688.67 -848.312 154.474 -484.722 -206.998 
565 2 4.91419 1.33336 4.83128 -32 0 1 -346.982 -1.20595 2.09998 900.697 -827.296 -160.714 0 0 0 0.5 -63349.8 -296.543 -84.8519 81.4148 484.975 -114.164 
35 1 4.87237 3.11265 5.41732 -42 0 0 -208.925 22.1787 -15.3446 2296.59 -1515.69 -891.509 0 0 0 0.5 -23800.1 -1160.99 -611.341 2687.55 -1653.57 -22.2307 
285 1 0.596493 0.916528 7.94578 48 1 -1 -423.975 6.62005 -10.9884 1616.74 -1675.12 -422.808 0 0 0 0.5 -94656.8 -880.551 -815.742 2398.31 -2090.2 -25.6276 
655 2 1.97883 2.36722 6.07186 -61 0 1 -296.809 10.3055 30.5041 247.74 2707.06 -716.753 0 0 0 0.5 -46127.4 182.927 -235.904 1839.55 4801.05 -60.2537 
968 2 3.53952 1.53666 6.53657 62 1 0 -405.564 9.97354 -19.8582 3275.31 2632.44 -1593.37 0 0 0 0.5 -87093.2 388.67 -834.488 2459.12 -5079.56 -534.071 
212 1 1.1709 1.43836 6.0869 76 1 0 -370.432 -14.8033 2.37269 36.6874 999.477 767.808 0 0 0 0.5 -71839.5 -209.022 -9.92472 -2838.57 479.812 -60.9516 
360 1 2.31467 0.957711 7.07255 -49 0 0 -450.1 19.5321 -1.01932 1021.33 -2275.97 2453.29 0 0 0 0.5 -106222 -925.371 -843.628 4928.77 -591.211 792.573 
256 1 2.02854 1.59534 6.38524 -25 0 0 -364.674 -6.78199 28.0688 -1839.16 1646.58 -1629.36 0 0 0 0.5 -70086.9 -1198.33 -1392.07 -806.1 5151.76 973.784 
974 2 3.98948 3.95929 7.82862 122 1 0 -62.6008 -11.7939 -0.125425 1303.58 -2684.46 -838.302 0 0 0 0.5 -4626.1 -939.032 -511.967 457.162 294.887 -290.92 
900 2 4.42304 4.55114 7.12057 -8 0 0 -52.3487 6.3005 1.15988 -108.662 263.74 -67.2015 0 0 0 0.5 -2334.27 -1435.31 -1202.35 1086.64 -54.2022 -466.423 
38 1 1.69837 4.06192 7.5814 -24 0 0 -74.2942 9.77303 2.83312 252.934 -547.223 1049.87 0 0 0 0.5 -2911.99 -263.692 -397.617 430.001 18.4621 224.913 
949 2 2.74932 1.27967 6.03697 49 1 1 -360.908 12.8229 1.17204 -2214.44 1004.86 -2253.29 0 0 0 0.5 -69954.6 -961.389 -848.143 2728.53 -661.771 80.3153 
73 1 4.86308 4.01942 6.80832 -5 0 0 -88.5572 -8.94383 -6.23349 -580.92 -124.231 -1478.98 0 0 0 0.5 -4897.58 -1242.01 -969.901 736.276 -138.42 5.28336 
765 2 4.5855 3.21313 6.37385 65 1 0 -195.784 -18.6328 14.3549 -209.133 3310.27 145.307 0 0 0 0.5 -20117.5 176.418 -212.39 -1412.5 1506.69 -196.116 
825 2 3.94986 0.358473 7.44932 32 1 -1 -444.498 -23.4833 11.4383 926.809 -782.697 210.319 0 0 0 0.5 -103742 -495.949 -83.4663 -5220.11 2596.21 196.321 
292 1 0.201568 1.48709 7.38043 -56 0 -1 -395.18 12.8458 -3.50426 1156 -1312.09 559.337 0 0 0 0.5 -83070.9 -1155 -935.034 3623.15 -936.419 686.715 
134 1 2.55946 4.09343 6.76224 -9 0 0 -54.5806 -7.93019 -11.4508 -84.4436 -289.596 -136.567 0 0 0 0.5 -1549.18 92.2794 -40.8105 -190.122 -310.028 11.4986 
260 1 0.999067 0.109201 7.75912 -65 0 0 -498.23 -26.2292 4.72442 472.331 -1061.05 -177.376 0 0 0 0.5 -130078 -782.86 -47.8658 -6649.42 1286.08 -11.6646 
733 2 2.27546 2.0854 7.32628 81 1 -1 -273.046 -10.5424 -19.3788 -2406.39 -586.007 -928.766 0 0 0 0.5 -39888.3 -111.961 -330.201 -1733.58 -3134.12 -191.839 
284 1 1.22593 2.03441 6.79478 -60 0 0 -303.378 6.27741 10.3965 518.402 -14.4217 -676.551 0 0 0 0.5 -48243 -637.403 4.57236 955.057 1695.4 312.498 
506 2 1.06188 2.75966 6.63658 -24 0 -1 -264.422 39.1977 -16.0801 5316.69 569.173 1038.72 0 0 0 0.5 -37966.9 -1061.55 -1565.55 5852.89 -1948.96 543.749 
738 2 1.55391 3.17465 7.35106 78 1 0 -172.74 15.5901 -4.58076 725.726 -1441.86 -653.387 0 0 0 0.5 -15894.8 312.166 906.481 1473.27 151.324 140.377 
226 1 4.40732 2.86306 7.28683 -23 0 0 -195.138 1.95202 19.7914 -2351.99 2739.65 415.534 0 0 0 0.5 -20647.5 -821.657 -1193.29 691.042 1903.5 -430.074 
824 2 0.806118 3.00301 7.46779 -4 0 0 -178.536 -22.0227 -11.1871 306.138 17.547 2249.39 0 0 0 0.5 -18408.7 -520.094 -1536.66 -2148.81 -718.036 -655.958 
495 1 0.131207 1.87748 6.56655 -22 0 0 -307.494 13.3776 -1.68852 567.638 301.052 -1394.48 0 0 0 0.5 -49737.9 -432.345 -543.543 2120.1 -353.889 207.157 
956 2 1.26325 0.732305 7.21506 -50 0 0 -417.031 -13.3273 21.3515 -2689.79 1776.75 875.584 0 0 0 0.5 -92276.6 -2228.91 -558.478 -1397.31 4595.14 338.134 
789 2 1.62122 0.310707 6.64165 -54 0 0 -455.215 -7.73372 -30.0588 -885.965 1250.89 -505.197 0 0 0 0.5 -108795 -812.709 -1964.45 -1586.96 -6978.19 -289.457 
581 2 2.30732 3.22872 6.35446 2 0 0 -190.767 7.40642 19.547 -340.371 -824.524 -228.904 0 0 0 0.5 -18974.4 576.395 -120.573 959.293 2029.71 140.669 
729 2 1.01921 1.34793 7.06783 65 1 0 -385.782 5.89295 1.19183 -671.7 1116.7 -291.992 0 0 0 0.5 -78345.2 -1172.62 -177.36 1407.46 325.068 320.29 
34 1 1.59949 2.37299 7.89753 80 1 1 -255.35 -2.06724 20.6161 -319.654 1261.85 625.793 0 0 0 0.5 -33801.3 1218.14 200.797 187.38 2668.9 -155.239 
161 1 4.04074 2.24238 6.0922 -15 0 0 -270.562 -10.4454 -12.8887 -1412.01 -2958.38 917.604 0 0 0 0.5 -38852.9 -1190.16 -198.771 -524.388 -2081.05 -813.552 
979 2 4.28935 1.20788 6.79699 30 1 0 -416.593 2.95794 21.7391 876.81 -282.118 -263.212 0 0 0 0.5 -91226.8 -58.2927 -6.27363 794.033 4659.1 -46.0193 
5 1 0.859429 3.83042 6.2031 -14 0 0 -182.533 24.127 10.7359 1241.42 108.653 755.546 0 0 0 0.5 -17904.2 -308.308 -230.281 2265.76 746.867 -160.063 
57 1 0.214775 2.77491 6.44649 67 1 0 -217.988 10.532 -30.8287 -2186.23 636.475 -1187.27 0 0 0 0.5 -26928.2 -267.574 -720.106 1119.24 -3796.7 178.388 
268 1 1.52272 4.55672 6.81699 -8 0 0 -45.323 1.15995 2.24976 250.132 381.671 -507.075 0 0 0 0.5 -1244.48 -211.102 -673.408 168.938 -86.3021 284.041 
304 1 3.71136 2.84762 6.17676 -29 0 0 -214.118 11.4011 -5.48982 -429.74 2131.88 320.226 0 0 0 0.5 -24425.4 -1276.38 -1089.58 1866 -643.951 -146.06 
173 1 1.89917 0.0232986 7.31233 49 1 0 -510.153 11.6213 7.25269 2519.16 -3221.37 544.248 0 0 0 0.5 -137507 -1543.35 -882.037 4705.29 1353.19 812.767 
846 2 0.413545 4.03281 7.54591 -10 0 0 -59.6484 -18.5567 -3.55525 1335.08 -1725.91 -2514.87 0 0 0 0.5 -2292.57 -1342.42 -1279.84 116.264 -156.916 46.9766 
1 1 4.06181 0.309238 6.38207 -57 0 0 -473.364 -5.3323 31.6129 1965.69 -655.434 235.224 0 0 0 0.5 -118300 -125.329 -602.997 -993.385 7894.15 67.2288 
544 2 4.80842 3.9552 7.7473 -6 0 0 -86.0233 1.16824 -2.84333 1289.25 -321.004 172.528 0 0 0 0.5 -6020.21 -294.572 -665.09 398.335 -450.03 361.76 
505 2 3.43446 2.82461 7.03299 -8 0 0 -185.332 -13.9249 2.11046 -819.118 138.442 1468.05 0 0 0 0.5 -17840.7 384.54 -167.886 -1183.57 137.748 -263.455 
238 1 3.27488 1.7048 7.30588 -40 0 0 -363.887 10.9506 -1.76992 587.742 -1179.65 65.3716 0 0 0 0.5 -69546.7 -1123.01 -750.408 2465.76 25.7146 -483.875 
339 1 2.21263 4.96584 6.0601 2 0 0 -6.23541 -10.0647 3.98675 1505.97 -1373.48 -854.753 0 0 0 0.5 -363.75 -479.766 -166.291 400.587 265.355 -240.007 
322 1 -0.0397668 4.76756 7.59427 1 0 0 8.51867 6.01322 -1.67038 -1477.13 70.6898 1293.08 0 0 0 0.5 -1477.87 -1297.2 -1527.92 655.284 158.598 482.688 
287 1 3.32291 0.887931 7.30705 57 1 1 -440.998 -11.2402 -8.67852 -803.701 69.9126 347.584 0 0 0 0.5 -102125 -660.814 -313.765 -2339.11 -2102.95 -75.9066 
518 2 2.62743 3.14717 7.45672 -25 0 0 -194.326 -6.40108 3.1412 -1445.65 3952.62 -597.62 0 0 0 0.5 -20008.1 -1766.07 65.7088 83.7512 187.951 365.734 
936 2 3.80383 4.66538 6.41381 4 0 0 -36.9945 5.19321 15.7113 -17.262 -1048.7 -865.634 0 0 0 0.5 -1379.82 -105.473 -593.751 438.584 -275.314 311.279 