ITEM: TIMESTEP
189000
ITEM: NUMBER OF ATOMS
1000
ITEM: BOX BOUNDS xy xz yz pp pp pp
0.0000000000000000e+00 1.0000000000000000e+01 0.0000000000000000e+00
0.0000000000000000e+00 1.0000000000000000e+01 0.0000000000000000e+00
0.0000000000000000e+00 1.0000000000000000e+01 0.0000000000000000e+00
ITEM: ATOMS id type x y z ix iy iz vx vy vz fx fy fz omegax omegay omegaz radius c_2[1] c_2[2] c_2[3] c_2[4] c_2[5] c_2[6] 
120 1 3.15852 1.54146 0.0722925 0 1 0 -8.05689e-09 2.19742e-08 1.46514e-08 7.31277e-09 -1.88245e-08 -1.2853e-08 1.31667e-08 1.74056e-09 -7.96062e-09 0.5 -1.10305e-08 -5.79325e-08 -5.31137e-09 -6.3845e-09 -2.75636e-09 -1.38428e-08 
525 2 2.11627 1.23431 1.69988 0 0 0 -1.89731e-08 -5.10102e-08 -3.61345e-08 1.57215e-08 4.34764e-08 3.18274e-08 -5.30447e-09 3.04979e-09 1.55846e-08 0.5 8.16899e-10 -3.54787e-09 2.07171e-09 4.44836e-09 2.20965e-09 -1.39802e-09 
371 1 4.95931 3.68326 1.58374 0 0 1 1.13735e-08 -2.09749e-08 3.20615e-08 -9.75154e-09 1.86824e-08 -2.81531e-08 2.56051e-09 -1.66944e-09 1.60089e-09 0.5 -6.8408e-09 -2.97538e-08 1.97784e-08 -3.50146e-09 -3.52673e-09 3.9019e-09 
18 1 1.98117 2.69195 0.532518 0 0 0 -9.46175e-09 -7.33556e-10 3.48689e-08 7.79831e-09 5.51988e-10 -2.99991e-08 2.17926e-08 -7.39448e-09 6.88122e-09 0.5 -1.7352e-08 -4.26797e-08 -2.52579e-08 3.43124e-08 1.59626e-08 -1.96989e-08 
868 2 2.87004 3.00634 0.028912 0 0 1 5.69849e-09 -4.4049e-09 3.05383e-08 -4.4517e-09 3.75787e-09 -2.6612e-08 1.85673e-08 -3.46102e-09 7.72053e-09 0.5 -2.78901e-08 -4.43242e-08 -9.80413e-09 3.29268e-08 -7.10541e-10 1.95634e-09 
25 1 1.41548 0.708705 1.0832 0 0 0 -7.75021e-09 -1.71859e-08 -3.7093e-08 6.56662e-09 1.42223e-08 3.28887e-08 1.55274e-08 -4.05416e-09 9.17634e-09 0.5 -1.34756e-08 -9.31413e-08 -5.14158e-08 3.3139e-08 2.59555e-08 -4.0795e-08 
378 1 4.61919 2.40719 0.0725815 0 0 1 1.84766e-09 1.38705e-08 2.40236e-08 -1.41182e-09 -1.14675e-08 -2.1188e-08 2.08594e-08 5.34997e-09 -4.01049e-09 0.5 -1.17681e-08 -3.10556e-08 -1.76694e-08 -3.65736e-09 -4.054e-09 -2.43529e-08 
8 1 3.44143 2.06796 1.74253 0 0 0 -7.51852e-10 -2.38494e-08 9.98227e-09 4.24173e-10 2.07382e-08 -8.96157e-09 1.75901e-08 -4.73011e-09 3.46939e-09 0.5 5.95948e-09 1.48443e-09 7.86627e-09 7.11338e-09 1.79121e-11 5.95988e-09 
629 2 4.07713 2.6156 1.19812 0 0 1 6.14623e-09 -1.19863e-08 2.97896e-08 -5.47899e-09 1.06669e-08 -2.58533e-08 2.01232e-08 -5.11938e-09 4.70201e-10 0.5 -3.21662e-08 -8.72789e-09 -2.86746e-08 4.39676e-09 -2.0584e-08 -1.10861e-08 
5 1 2.34651 3.9005 1.05345 0 0 0 -3.9418e-09 -3.9893e-08 4.01807e-08 3.64114e-09 3.45185e-08 -3.46369e-08 1.30477e-09 2.81869e-09 8.22734e-09 0.5 -2.86683e-09 -4.6576e-09 -6.75066e-09 5.6238e-09 1.75427e-09 -1.51403e-09 
650 2 0.459129 3.43666 1.12967 0 0 0 -2.37325e-08 -4.03368e-08 5.95296e-09 2.03424e-08 3.41077e-08 -4.26834e-09 2.32555e-08 2.56685e-09 2.99164e-10 0.5 -3.25925e-08 -3.71749e-08 -3.95037e-08 2.62759e-08 2.7403e-08 -1.77134e-08 
14 1 3.29515 3.13364 1.54473 0 0 0 1.74193e-09 -2.08509e-08 3.31177e-08 -1.54594e-09 1.85266e-08 -2.87401e-08 6.05592e-09 4.0969e-09 2.62323e-09 0.5 -2.56332e-09 -8.78121e-09 -1.62454e-08 1.26268e-08 -1.78543e-09 -8.25152e-09 
264 1 3.99643 3.86789 1.37953 0 0 0 1.08989e-08 -2.39067e-08 3.22977e-08 -9.3596e-09 2.11895e-08 -2.82742e-08 9.38734e-09 2.16474e-09 1.39927e-09 0.5 -8.65058e-09 -1.80274e-10 -1.69367e-08 1.09401e-08 1.38996e-09 -2.84715e-09 
223 1 0.747634 2.47805 1.14565 0 0 1 -2.40255e-08 -3.98143e-08 5.96294e-09 2.03694e-08 3.35824e-08 -4.51062e-09 2.36122e-08 -9.32791e-09 3.49009e-09 0.5 -1.67011e-08 -4.1083e-08 -9.68924e-08 1.37199e-08 3.88047e-08 -2.4164e-08 
364 1 4.4227 4.23693 0.53984 0 0 1 3.23985e-09 9.92748e-09 4.31515e-08 -2.06122e-09 -8.31068e-09 -3.75331e-08 1.21642e-08 -1.24643e-09 5.71406e-09 0.5 5.56169e-10 3.81699e-09 2.77566e-10 1.44062e-09 6.86308e-09 -5.73097e-09 
107 1 1.66076 1.61825 0.747451 0 0 1 -1.80378e-08 -7.38392e-09 -1.7472e-08 1.51844e-08 5.83797e-09 1.59426e-08 2.39046e-08 -1.74342e-09 2.6857e-09 0.5 1.71036e-08 -2.14568e-08 -2.11875e-08 -1.1233e-09 1.94913e-10 -1.36956e-08 
529 2 2.67265 2.1996 1.06195 0 0 0 3.04689e-10 -1.38e-08 9.69658e-09 -7.52437e-10 1.1727e-08 -8.23938e-09 2.17273e-08 3.08336e-10 5.72884e-09 0.5 -6.57676e-09 -1.53981e-08 -1.81237e-08 1.11913e-08 -6.13624e-09 3.69154e-09 
515 2 4.38643 0.435908 1.64385 0 0 0 2.68537e-09 -2.51297e-08 -1.5569e-08 -2.20515e-09 2.19204e-08 1.28871e-08 1.31465e-08 -1.02859e-09 2.86824e-09 0.5 -4.62896e-09 -1.39415e-08 -2.84504e-08 -2.50321e-08 2.30391e-09 5.66885e-09 
244 1 4.11373 0.570462 0.682724 0 1 1 3.21066e-09 6.34441e-09 -1.03992e-08 -2.65919e-09 -4.99747e-09 8.47428e-09 1.90569e-08 5.8006e-09 2.21811e-10 0.5 -9.76028e-09 -8.60316e-09 -2.70411e-08 -2.09053e-09 6.18056e-09 3.88887e-09 
20 1 2.90179 0.570818 1.78382 0 0 0 1.48671e-09 -2.28979e-08 -1.97617e-08 -1.371e-09 1.9745e-08 1.68212e-08 8.65985e-09 -5.65669e-09 4.57565e-09 0.5 -1.58812e-08 -3.63171e-08 -5.34872e-08 1.23039e-08 2.40561e-08 -3.13966e-08 
280 1 4.09077 1.582 1.14626 0 0 0 2.93202e-09 -7.58406e-09 1.2161e-09 -2.71394e-09 6.86937e-09 -1.56879e-09 2.01735e-08 -2.08099e-09 3.64483e-10 0.5 -9.25882e-09 -1.2641e-08 -3.63922e-08 2.7869e-09 2.1268e-08 7.5176e-09 
620 2 1.3946 4.37082 0.857654 0 0 1 -1.61523e-10 -2.64254e-08 3.05577e-08 1.06627e-09 2.27064e-08 -2.57038e-08 1.63536e-08 1.04004e-08 -8.01951e-09 0.5 -8.66673e-09 -4.04018e-08 -5.95921e-08 4.34247e-10 -4.37602e-09 6.56037e-09 
1000 2 3.60332 2.39824 0.339819 0 1 1 1.65286e-08 5.84192e-09 2.20107e-08 -1.36411e-08 -4.95806e-09 -1.94685e-08 1.48511e-08 -9.02439e-10 -6.21815e-10 0.5 -2.42789e-08 -4.38967e-08 -2.62984e-08 -2.8564e-09 -2.08757e-08 -6.814e-09 
103 1 3.28431 3.68319 0.698947 0 0 1 7.46214e-10 -1.17997e-08 3.98912e-08 -4.81597e-10 1.02756e-08 -3.48053e-08 1.21146e-08 7.96255e-10 6.26157e-09 0.5 -8.59023e-09 -7.29122e-09 -1.22643e-08 8.49624e-09 1.72037e-09 -2.04091e-09 
622 2 0.930663 4.80385 0.0848388 0 0 1 -6.79628e-10 -1.30127e-09 4.49372e-08 1.43835e-09 9.3461e-10 -3.81756e-08 2.18664e-08 -2.0324e-09 -2.51712e-09 0.5 -4.6651e-10 4.20771e-09 -2.74696e-08 -2.67273e-09 -1.17149e-08 6.21947e-09 
506 2 0.74356 1.4513 1.18235 0 0 0 -2.61544e-08 -4.05834e-08 -3.21335e-08 2.22846e-08 3.4284e-08 2.86291e-08 1.87377e-08 -3.50572e-09 1.22128e-08 0.5 7.80818e-09 -5.47092e-08 -8.66201e-09 6.33387e-08 1.35268e-08 -3.37833e-08 
626 2 1.28815 3.41645 0.566227 0 0 1 -2.32742e-08 -1.54573e-08 7.54426e-09 1.98676e-08 1.33501e-08 -5.7886e-09 1.14849e-08 -7.4868e-09 3.04733e-09 0.5 -3.11461e-08 -4.53279e-08 -8.60231e-09 2.45441e-08 2.09124e-08 -1.34107e-08 
553 2 0.744043 0.0774004 1.56305 0 0 0 -4.60052e-09 -3.05583e-08 -4.81213e-08 3.70407e-09 2.59047e-08 4.27445e-08 1.73295e-09 -9.86234e-09 1.509e-08 0.5 5.70968e-09 2.98194e-09 4.55898e-09 3.68022e-10 2.5638e-09 -7.36189e-09 
135 1 1.54769 3.20472 1.67709 0 0 0 9.13439e-09 -3.92118e-08 3.2903e-09 -8.16818e-09 3.35176e-08 -2.23473e-09 1.31795e-08 -1.85316e-08 -4.27374e-09 0.5 2.14736e-09 -8.3304e-08 -1.62838e-08 2.07087e-08 8.59032e-09 -5.24691e-10 
624 2 4.32461 4.92098 1.47156 0 0 1 1.59614e-08 -7.68394e-09 3.32824e-08 -1.29561e-08 7.51625e-09 -2.9276e-08 8.50719e-09 3.4785e-10 4.92114e-09 0.5 7.53216e-09 5.89862e-09 -2.15898e-08 7.22433e-09 -1.40515e-08 -1.69164e-08 
256 1 4.58719 1.36786 0.305 0 0 0 4.26947e-09 9.47864e-09 -2.34829e-09 -3.73918e-09 -7.56732e-09 1.54019e-09 2.01479e-08 3.97366e-09 -6.30623e-09 0.5 -5.24035e-09 -1.85191e-08 -2.58223e-08 -1.18382e-08 3.57429e-09 -2.62549e-08 
260 1 3.31854 0.0700552 1.02517 0 0 0 7.34241e-09 -1.019e-08 -2.4953e-08 -5.89429e-09 9.0382e-09 2.14074e-08 8.72915e-09 9.76218e-09 -3.42229e-10 0.5 -1.13265e-08 -3.44822e-08 -3.84468e-08 -9.08273e-10 6.48051e-09 -2.31381e-08 
616 2 3.19106 4.4806 1.50664 0 0 1 8.73635e-09 -3.2821e-08 3.16714e-08 -7.7746e-09 2.85651e-08 -2.78414e-08 -1.86585e-09 3.39698e-09 5.22283e-09 0.5 -1.5194e-08 -6.02934e-09 -6.77738e-09 9.1989e-09 1.71871e-09 -3.96713e-09 
106 1 1.74522 2.23558 1.52961 0 0 1 5.91428e-10 -4.16122e-08 7.54149e-09 -1.01246e-09 3.55261e-08 -5.75341e-09 1.71522e-08 -6.56018e-09 -4.0974e-09 0.5 9.83261e-09 -4.40954e-08 -1.39169e-08 1.28946e-08 1.37239e-08 -1.64089e-08 
157 1 1.3897 4.17879 1.83903 0 0 0 1.16573e-08 -4.27985e-08 2.74244e-08 -9.91983e-09 3.66846e-08 -2.30729e-08 1.62789e-08 2.9055e-09 1.99267e-09 0.5 -1.85057e-08 -6.27222e-08 -6.63451e-08 1.39955e-08 2.18318e-08 -1.24774e-08 
516 2 2.34691 0.89043 0.68796 0 0 0 -3.91464e-09 5.45884e-09 -1.10456e-08 3.10395e-09 -5.06451e-09 9.93093e-09 1.94299e-09 -6.55645e-09 1.07061e-10 0.5 3.90938e-09 -1.71077e-08 -5.05609e-09 3.9325e-09 1.18398e-08 -1.63341e-08 
183 1 0.415258 4.58221 1.00381 0 0 0 2.37143e-09 -3.74162e-08 6.45455e-08 -1.02782e-09 3.21601e-08 -5.4505e-08 3.21283e-08 1.62064e-08 1.89345e-09 0.5 7.52859e-10 -2.11006e-09 3.5269e-09 2.77306e-09 -4.61201e-09 3.39652e-09 
625 2 0.399951 3.91216 0.210014 0 0 1 -9.26638e-09 1.66297e-09 3.08422e-08 8.69251e-09 -1.57046e-09 -2.55037e-08 3.105e-08 -2.54378e-09 -1.31133e-08 0.5 -1.36819e-09 1.25225e-10 -6.12644e-09 -1.49525e-09 -2.4593e-09 5.72369e-09 
91 1 2.22066 4.71676 1.69645 0 0 1 1.05452e-08 -3.89804e-08 3.68357e-08 -9.24935e-09 3.37134e-08 -3.16667e-08 1.11471e-09 4.86691e-10 9.97153e-10 0.5 -1.71308e-08 -1.13348e-08 -4.80543e-09 -4.10984e-09 3.56979e-09 -3.79446e-09 
257 1 4.94043 2.69123 1.70827 0 0 0 6.64032e-09 -2.17313e-08 2.53584e-08 -5.82276e-09 1.93581e-08 -2.22623e-08 8.4536e-09 2.78339e-10 -2.90065e-09 0.5 -3.66421e-08 -2.55685e-08 -6.39131e-08 2.72709e-09 -2.10439e-08 -1.21556e-08 
4 1 3.72174 1.12777 1.95711 0 0 0 2.16721e-09 -2.74467e-08 -1.02481e-08 -1.90751e-09 2.38213e-08 8.30332e-09 1.32184e-08 -1.16433e-09 9.98713e-10 0.5 -5.69303e-09 -9.99205e-09 -4.61048e-08 -8.79145e-09 8.41034e-09 2.27878e-08 
609 2 1.99624 4.76004 0.136921 0 0 1 1.69436e-09 -1.44913e-08 4.46158e-08 -9.23961e-10 1.24562e-08 -3.84402e-08 6.83491e-09 -5.13586e-09 6.97698e-09 0.5 -7.36724e-08 -2.2618e-07 -3.20962e-08 6.32174e-08 1.66417e-08 -4.80388e-08 
117 1 3.12746 1.31374 1.15363 0 1 0 4.46932e-09 -1.34539e-08 -7.56327e-09 -3.96558e-09 1.16082e-08 6.28606e-09 1.72629e-08 -9.30278e-10 8.81862e-10 0.5 2.62484e-09 -1.24105e-08 -1.6623e-09 6.46793e-09 1.53768e-09 9.3267e-09 
511 2 1.08079 2.25054 0.230642 0 0 0 -8.9263e-09 1.40634e-08 -1.96239e-09 7.53346e-09 -1.26574e-08 2.33714e-09 3.01375e-08 -6.42411e-09 -6.10314e-09 0.5 -1.25518e-08 -3.78072e-08 -8.77853e-08 7.94955e-09 3.70539e-08 -2.40415e-08 
911 2 0.492018 0.563612 0.697612 1 0 0 -6.10874e-09 -2.20159e-08 -4.53302e-08 5.15658e-09 1.81101e-08 4.01363e-08 3.61051e-09 -6.06017e-09 1.25138e-09 0.5 9.66234e-09 -4.11512e-08 4.69725e-12 -4.16251e-09 3.44666e-09 -1.64197e-08 
668 2 0.00216515 3.81975 1.93315 0 0 0 -4.83838e-09 -7.25314e-08 3.10127e-08 3.69864e-09 6.16973e-08 -2.59951e-08 7.70343e-09 6.15669e-09 -6.31844e-09 0.5 -5.72324e-08 -1.40031e-07 -5.88409e-08 4.23017e-08 -1.56194e-08 -1.77302e-09 
90 1 2.93989 4.58015 0.420403 0 0 1 9.25257e-10 -9.0754e-09 4.85333e-08 -1.22944e-11 8.07459e-09 -4.2494e-08 7.27369e-09 -2.01304e-09 8.33823e-09 0.5 -1.60871e-08 1.77341e-08 -2.84272e-09 3.05585e-08 1.67251e-08 6.60111e-09 
734 2 4.13742 3.24508 0.37494 0 1 1 9.88326e-09 9.01701e-09 4.23109e-08 -8.33666e-09 -7.41945e-09 -3.69596e-08 1.89925e-08 2.43903e-09 2.64168e-09 0.5 -1.49813e-08 -1.05779e-08 -1.36085e-09 9.17424e-09 6.01992e-09 -7.99598e-09 
672 2 0.0675425 1.98557 1.68985 0 0 0 -3.10795e-08 -5.82123e-08 -2.00931e-08 2.65707e-08 4.9555e-08 1.82279e-08 1.98101e-08 -3.78694e-09 6.88217e-09 0.5 -6.81176e-08 -1.3876e-07 -5.2309e-08 5.39021e-08 3.77433e-08 3.07982e-10 
759 2 4.95866 2.03867 0.950748 0 0 0 6.01859e-09 -8.13626e-09 1.36246e-08 -5.47532e-09 7.563e-09 -1.2092e-08 1.75551e-08 -2.64061e-09 -4.69751e-09 0.5 -4.03246e-09 -4.62181e-08 -2.1432e-08 -7.64692e-09 -3.59698e-09 -5.52886e-09 
21 1 1.84566 0.35675 2.43115 0 0 0 -9.07826e-09 -4.18003e-08 -3.46456e-08 7.92005e-09 3.59516e-08 3.02531e-08 8.24919e-09 -8.26141e-09 1.25217e-08 0.5 6.65209e-10 -9.2812e-10 -6.03966e-10 1.92292e-09 1.55587e-09 -4.29716e-09 
682 2 2.73058 4.0836 2.7725 0 0 0 7.90747e-09 -2.71582e-08 2.88389e-08 -6.95877e-09 2.35953e-08 -2.50339e-08 -3.56112e-10 1.20637e-09 3.32115e-09 0.5 -4.10879e-08 -2.63172e-08 -5.77585e-09 2.50865e-08 1.86967e-08 3.13381e-08 
907 2 0.982097 4.62503 2.63573 1 0 0 5.56033e-09 -5.98722e-08 3.38921e-08 -5.17242e-09 5.0852e-08 -2.85732e-08 2.73324e-09 -6.01282e-09 3.31547e-09 0.5 -4.48404e-08 -5.47955e-08 -6.16604e-08 2.09959e-08 2.68856e-08 -1.94765e-08 
144 1 1.68507 3.60062 2.81087 0 0 0 9.71464e-09 -5.17734e-08 6.06272e-09 -8.75441e-09 4.42368e-08 -5.03121e-09 -1.20904e-09 3.52224e-09 7.02011e-10 0.5 -2.7739e-08 -7.78148e-09 -1.16511e-08 1.67173e-08 -5.94598e-09 1.29329e-11 
675 2 2.83107 4.7385 3.54541 0 0 0 7.75325e-10 -1.83799e-08 2.92021e-08 -1.65037e-09 1.63982e-08 -2.54552e-08 -6.65265e-09 4.53431e-09 -9.82019e-10 0.5 1.96602e-09 9.25935e-09 1.83764e-08 8.84256e-09 -3.58834e-09 1.62049e-08 
502 2 4.38953 1.31124 3.26921 0 0 0 -2.7544e-09 -1.97395e-08 -8.14765e-09 1.63044e-09 1.77079e-08 6.49928e-09 3.23513e-09 6.67415e-10 -1.88844e-09 0.5 -3.16317e-08 -1.60301e-08 -2.02632e-08 -1.62996e-08 1.55829e-08 3.32848e-08 
27 1 2.60908 0.300739 3.21066 0 0 0 -1.24703e-09 -3.33928e-08 -2.34963e-08 4.49077e-10 2.86172e-08 2.00717e-08 -1.96169e-10 -4.97828e-09 5.99741e-09 0.5 -2.89501e-08 -3.64905e-08 -6.88782e-08 1.44084e-08 2.34419e-08 5.78871e-09 
965 2 1.35576 3.65812 3.79896 1 0 0 1.38391e-08 -6.18205e-08 1.26532e-09 -1.21946e-08 5.24664e-08 -7.02483e-10 -3.73361e-09 1.00973e-08 -8.38667e-09 0.5 -1.19144e-08 -3.59913e-08 -3.97714e-08 2.08692e-08 -1.34025e-08 2.45438e-08 
61 1 1.66165 0.448609 3.51352 0 0 0 -1.00738e-08 -5.27797e-08 -4.5599e-08 8.19408e-09 4.46748e-08 3.9942e-08 1.37124e-09 -2.04096e-09 9.82737e-09 0.5 -2.04297e-08 -8.80436e-10 -4.10401e-09 4.92382e-09 1.36119e-08 -1.54396e-09 
680 2 1.1901 2.78151 3.34693 0 0 0 -1.20068e-08 -5.60184e-08 -3.4544e-10 9.88585e-09 4.74929e-08 7.06227e-10 2.3932e-09 5.439e-09 -1.39079e-09 0.5 6.96705e-10 -1.20208e-08 -1.83556e-08 2.75044e-09 7.80662e-09 5.4721e-09 
251 1 4.71421 3.03382 3.89556 0 0 0 1.57551e-08 -2.51785e-08 2.50357e-08 -1.42396e-08 2.2353e-08 -2.20718e-08 1.03867e-08 7.72319e-09 -1.14053e-08 0.5 -3.61262e-08 -7.25879e-09 1.3529e-09 -2.53e-08 1.15004e-08 2.14991e-08 
517 2 4.0089 2.89361 2.21821 0 0 0 8.96577e-09 -2.34213e-08 2.36966e-08 -7.67531e-09 2.10484e-08 -2.06929e-08 4.23671e-09 9.3885e-10 -1.80922e-09 0.5 -3.3568e-10 -3.62743e-10 -1.19794e-08 -3.82619e-10 -2.49898e-09 6.10046e-09 
6 1 3.42179 1.77987 2.73262 0 0 0 -4.2835e-09 -2.19871e-08 1.21721e-08 3.09111e-09 1.91366e-08 -1.08607e-08 1.24553e-08 -1.88008e-09 7.98084e-09 0.5 -3.88309e-08 7.81155e-09 5.56526e-09 1.56884e-08 1.8308e-08 1.15001e-08 
519 2 4.43345 3.61408 3.03093 0 0 0 5.64654e-09 -1.56288e-08 3.58858e-08 -5.09453e-09 1.43649e-08 -3.14625e-08 4.28349e-09 2.95284e-09 -1.40267e-09 0.5 2.02924e-09 2.00212e-08 1.36537e-08 -1.40547e-08 -5.27286e-09 1.05227e-08 
509 2 1.93621 1.51608 3.62332 0 0 0 1.12349e-08 -4.85156e-08 -3.86227e-08 -1.0264e-08 4.09174e-08 3.39863e-08 -3.26743e-09 1.6504e-08 -1.82304e-10 0.5 4.79851e-09 -5.4517e-09 -4.28216e-08 -5.34952e-09 9.21748e-09 1.21229e-08 
142 1 1.03537 1.94217 2.17003 0 0 0 -1.8221e-08 -4.65711e-08 -1.55739e-08 1.52105e-08 3.95586e-08 1.40849e-08 1.72098e-08 2.21209e-10 3.22287e-09 0.5 -8.73405e-10 -8.42264e-09 -1.08968e-08 1.29826e-08 -5.27228e-09 1.3011e-08 
941 2 0.192203 2.2584 2.77344 1 0 0 -2.55491e-08 -6.78938e-08 -1.29954e-08 2.16445e-08 5.79671e-08 1.19202e-08 1.03601e-08 1.31479e-09 2.67787e-09 0.5 -8.66868e-09 -2.78775e-08 -3.90022e-08 1.18882e-09 5.22499e-09 3.17988e-09 
919 2 0.650389 4.31552 3.53385 1 0 0 2.12107e-10 -6.61493e-08 2.6744e-08 -5.10473e-10 5.62448e-08 -2.23944e-08 8.98624e-09 3.40047e-09 -1.05741e-08 0.5 -2.72971e-08 -4.79306e-08 -2.79953e-08 2.69215e-08 -3.26588e-10 1.72339e-08 
95 1 3.53903 3.77814 2.2694 0 0 1 1.12755e-08 -2.25954e-08 3.14664e-08 -9.7744e-09 2.02829e-08 -2.75568e-08 6.87564e-10 4.09889e-10 1.50763e-09 0.5 -1.98324e-08 -6.57469e-09 -3.53784e-08 3.71868e-09 1.17655e-08 -4.53755e-09 
458 1 1.5569 4.7536 3.86468 1 0 0 4.11086e-09 -4.52933e-08 3.95998e-08 -4.13533e-09 3.83495e-08 -3.39973e-08 -8.66338e-09 1.86799e-09 2.74197e-09 0.5 -1.79411e-08 -1.10351e-08 -1.06395e-08 1.47762e-08 -3.00324e-09 -5.95828e-10 
41 1 1.14045 0.960462 2.01108 0 0 0 -1.27029e-08 -4.32894e-08 -3.14651e-08 1.05269e-08 3.6713e-08 2.79596e-08 1.5074e-08 -2.1926e-09 7.58531e-09 0.5 -1.43505e-08 -1.21743e-08 -3.46076e-08 8.22609e-09 2.23305e-08 -1.22459e-08 
814 2 0.27112 1.22753 3.40348 1 0 0 -3.07175e-09 -5.54753e-08 -2.68955e-08 2.07665e-09 4.70716e-08 2.41214e-08 8.17395e-09 -5.12256e-09 1.5537e-08 0.5 -3.00246e-08 -3.09429e-08 -3.61778e-08 1.20721e-08 2.60794e-08 3.8221e-08 
130 1 1.70518 2.6475 2.50033 0 0 0 -1.38288e-08 -4.93023e-08 -2.5237e-09 1.1612e-08 4.20113e-08 2.64335e-09 1.37699e-08 -5.52649e-09 -6.20806e-09 0.5 -9.91732e-09 -3.86741e-08 -3.41455e-08 1.89984e-08 1.31939e-08 2.46414e-08 
12 1 2.70258 1.09575 2.61132 0 0 0 6.15619e-09 -2.8091e-08 -1.53278e-08 -5.61107e-09 2.40268e-08 1.30612e-08 8.15453e-09 -1.0461e-08 8.49013e-09 0.5 -4.46102e-08 -5.5225e-08 -3.86e-08 2.90244e-08 1.88822e-08 1.29309e-09 
512 2 3.18635 2.03167 3.78747 0 0 0 5.91767e-09 -6.77082e-09 1.46765e-08 -5.97828e-09 5.68987e-09 -1.24076e-08 9.86813e-09 -2.58476e-09 6.69575e-09 0.5 -1.04636e-08 -2.0801e-08 -1.7878e-08 3.69744e-09 -3.57559e-09 2.18093e-08 
151 1 2.47925 3.30049 3.34132 0 0 0 6.61121e-09 -3.22348e-08 2.12972e-08 -5.7409e-09 2.80337e-08 -1.83369e-08 -3.18008e-09 -3.48634e-09 2.25405e-09 0.5 -1.27827e-08 -5.18128e-08 -4.73633e-08 1.0724e-08 1.20474e-08 1.43931e-08 
667 2 0.284319 1.3208 2.4071 0 0 0 -1.28173e-08 -5.75166e-08 -2.66348e-08 1.06687e-08 4.89421e-08 2.3907e-08 1.00697e-08 3.00325e-09 8.86038e-09 0.5 -1.72879e-08 -7.95283e-08 -6.11964e-08 4.28781e-09 -2.10145e-10 8.52435e-09 
38 1 3.79042 0.738149 3.87284 0 0 0 3.11616e-09 -4.70897e-09 -1.15485e-08 -3.56815e-09 4.43473e-09 9.54312e-09 -1.0645e-08 -2.76048e-09 4.73512e-10 0.5 -3.05447e-08 -1.00566e-08 -7.58404e-08 -3.42882e-08 1.82244e-08 5.50079e-08 
936 2 0.319906 3.36948 3.50683 1 0 0 -2.35083e-08 -5.70617e-08 9.45816e-09 1.98123e-08 4.84591e-08 -7.36479e-09 9.89178e-09 -8.57263e-09 -5.85526e-09 0.5 2.51114e-09 -5.81259e-08 -2.37087e-08 8.46335e-10 2.78712e-08 3.7891e-08 
531 2 4.80013 0.808197 2.48028 0 0 0 -1.05732e-08 -3.32754e-08 -7.31233e-09 8.64123e-09 2.94279e-08 5.83231e-09 1.02722e-09 -8.92461e-10 -5.35451e-09 0.5 -1.05291e-08 8.04027e-10 -2.18899e-08 -1.30382e-08 -2.04073e-08 -1.08577e-08 
527 2 4.03024 4.31517 3.61908 0 0 0 1.05672e-08 -1.65059e-08 4.07511e-08 -9.67276e-09 1.48683e-08 -3.55772e-08 -5.16889e-09 -4.86027e-11 1.83767e-09 0.5 -6.78754e-09 2.64232e-09 1.44434e-08 -1.25975e-08 -3.95672e-09 2.10318e-08 
383 1 4.36293 4.34454 2.28892 0 0 1 3.9701e-09 -1.19504e-08 3.101e-08 -3.40869e-09 1.10407e-08 -2.73876e-08 1.67963e-09 -2.68255e-09 5.70995e-10 0.5 -1.95141e-08 -3.8459e-09 1.00451e-08 1.59826e-08 -4.38732e-09 -8.31213e-09 
992 2 0.695682 0.439322 3.85269 1 1 0 -1.04663e-09 -5.86792e-08 -3.6977e-08 3.2712e-10 4.96766e-08 3.25551e-08 1.78812e-09 9.12956e-09 5.89775e-09 0.5 -2.45685e-08 -6.00208e-08 -1.32194e-08 1.77012e-08 -8.39436e-09 3.09097e-08 
521 2 4.93615 4.52796 3.25037 0 0 0 6.70776e-09 -1.23846e-08 3.37764e-08 -6.36574e-09 1.11953e-08 -2.97229e-08 -3.80515e-09 2.61519e-09 2.11618e-09 0.5 2.9782e-09 -1.48344e-08 -1.66691e-08 -1.30782e-09 -2.37592e-09 2.09612e-08 
136 1 1.88498 1.67143 2.62265 0 0 0 -1.13228e-08 -5.25579e-08 -3.20893e-08 9.25421e-09 4.48133e-08 2.83998e-08 5.65457e-09 8.3491e-09 6.15993e-09 0.5 -5.16652e-08 -5.43896e-08 -3.59058e-08 3.70239e-08 -4.14998e-09 1.60002e-08 
540 2 4.51129 0.178592 3.415 0 0 0 -2.32254e-09 -2.07074e-08 -1.34292e-08 1.28773e-09 1.86614e-08 1.08527e-08 -9.60529e-09 4.69988e-09 -6.41637e-09 0.5 1.59931e-08 1.0398e-08 2.2121e-09 -1.00738e-08 -6.84171e-09 9.75198e-09 
510 2 3.85504 2.56842 3.17077 0 0 0 -5.58998e-09 -2.41223e-08 1.81604e-08 4.01711e-09 2.12085e-08 -1.62442e-08 2.10794e-09 -9.46022e-10 3.24644e-10 0.5 1.53696e-08 2.1762e-08 -1.32624e-08 3.40395e-09 2.47259e-09 1.83074e-08 
19 1 4.3655 1.84749 2.40882 0 0 0 -7.57438e-09 -3.58298e-09 6.39077e-09 5.78295e-09 3.5434e-09 -6.18273e-09 5.41877e-09 1.45601e-09 6.78263e-10 0.5 -5.56888e-08 -2.22782e-09 -2.8846e-08 2.80273e-09 2.48804e-08 5.26091e-09 
543 2 1.07326 1.78713 3.19513 0 0 0 -1.322e-09 -5.44824e-08 -1.75127e-08 5.66167e-10 4.61322e-08 1.58174e-08 1.19234e-08 1.07507e-08 4.03634e-09 0.5 -5.22236e-09 -7.27402e-09 -3.1675e-09 -1.06527e-08 8.95029e-09 5.48491e-09 
773 2 4.78774 2.22773 3.30763 0 0 0 -3.43029e-09 -2.04371e-08 1.55579e-08 2.23345e-09 1.83019e-08 -1.39577e-08 4.81913e-09 5.37289e-09 -3.94908e-09 0.5 1.6396e-09 -4.37011e-08 -8.44568e-08 -8.32553e-09 1.82176e-08 8.49448e-08 
555 2 2.23907 2.5056 3.89852 0 0 0 5.19386e-09 -2.85754e-08 2.5915e-08 -5.20282e-09 2.51029e-08 -2.23211e-08 -3.33634e-09 -8.96867e-10 3.106e-09 0.5 1.0062e-08 1.34142e-08 1.39761e-08 5.4033e-09 1.73099e-09 1.73353e-08 
429 1 0.306925 2.40106 3.75655 1 0 0 -1.85e-08 -6.24404e-08 -1.46014e-08 1.54728e-08 5.3093e-08 1.33267e-08 6.47353e-09 2.56187e-09 1.169e-08 0.5 -1.17203e-08 -9.45213e-08 -5.46353e-08 2.20182e-08 -1.41491e-08 5.26235e-08 
316 1 0.889712 0.512877 2.86992 1 0 0 -1.57473e-08 -5.74614e-08 -3.99436e-08 1.30577e-08 4.87517e-08 3.51446e-08 6.54905e-09 9.40171e-10 8.96755e-09 0.5 5.08e-09 -1.14122e-08 -8.30738e-09 4.02129e-09 3.07698e-09 1.13084e-08 
503 2 3.61689 0.768796 2.88623 0 0 0 3.34797e-09 -2.77627e-08 -1.10893e-08 -3.08129e-09 2.41052e-08 9.01252e-09 -1.51808e-09 -1.8824e-09 4.5454e-09 0.5 -9.43299e-09 1.69932e-09 -5.75441e-08 2.60541e-09 -4.51261e-09 1.60913e-08 
896 2 0.702247 3.66501 2.63024 1 0 0 6.62594e-09 -6.01186e-08 2.22784e-08 -6.2018e-09 5.10834e-08 -1.84317e-08 7.17945e-09 3.03715e-09 -3.36787e-09 0.5 -3.82172e-08 -2.12192e-08 -6.12512e-08 1.02556e-08 -2.04972e-08 1.75675e-08 
690 2 1.93672 4.67095 2.92999 0 0 0 2.67027e-09 -3.714e-08 3.9743e-08 -2.58307e-09 3.18532e-08 -3.40086e-08 -1.02039e-09 2.00163e-09 9.50675e-09 0.5 -4.25572e-08 -2.16782e-08 -8.63336e-09 2.81648e-08 -2.13567e-10 -4.87524e-09 
641 2 3.45948 3.5005 3.22725 0 0 0 5.12163e-09 -1.71175e-08 3.23222e-08 -4.59967e-09 1.53717e-08 -2.83549e-08 -3.35736e-09 -6.20818e-10 3.87184e-09 0.5 -3.56304e-09 6.21943e-09 -2.709e-08 6.61959e-09 -1.35288e-08 3.4037e-08 
528 2 3.34275 4.80215 2.44243 0 0 0 1.03609e-08 -2.8763e-08 2.98864e-08 -9.35504e-09 2.5029e-08 -2.62607e-08 -3.01206e-10 1.02516e-09 1.66668e-09 0.5 -3.81876e-09 -7.12772e-09 -1.34791e-08 -6.70587e-09 -2.01991e-09 -2.80796e-09 
225 1 2.66658 2.37982 2.99794 0 0 1 -1.15859e-08 -3.39968e-08 1.74407e-08 9.50095e-09 2.9415e-08 -1.48748e-08 -2.72616e-09 6.91461e-09 3.73494e-09 0.5 -1.41982e-08 -3.63268e-08 -3.05839e-09 2.20736e-08 -1.06696e-08 -7.146e-10 
119 1 0.614476 2.84343 2.06694 0 0 0 -2.56282e-08 -4.74047e-08 8.75487e-09 2.1645e-08 4.02727e-08 -6.99584e-09 1.64554e-08 1.67521e-09 -6.07848e-10 0.5 8.31787e-09 -2.4201e-08 -4.47865e-08 7.63674e-09 1.73191e-08 4.8526e-10 
94 1 2.46189 3.50067 2.00487 0 0 1 -1.59e-09 -3.59797e-08 3.85072e-08 1.20429e-09 3.09439e-08 -3.3174e-08 6.48476e-09 -1.83449e-09 1.8823e-09 0.5 8.95393e-09 1.18904e-08 4.48263e-09 1.08589e-08 9.33932e-09 1.46701e-08 
522 2 2.58373 2.50801 2.00903 0 0 0 -5.26165e-09 -3.65878e-08 1.65994e-08 4.30436e-09 3.14554e-08 -1.4189e-08 1.27761e-08 -5.09757e-09 4.72139e-09 0.5 6.13402e-10 2.51057e-09 -1.35569e-08 1.21551e-08 1.30638e-08 3.88355e-09 
200 1 2.46549 0.208501 4.19599 0 1 0 1.38571e-08 -1.97476e-08 -2.00049e-08 -1.30816e-08 1.67976e-08 1.70106e-08 -1.25825e-08 -8.71556e-09 1.97272e-08 0.5 -2.99927e-08 -1.63487e-08 -5.37022e-08 8.23286e-09 1.97177e-08 1.41421e-08 
114 1 4.70709 1.00384 4.17137 0 0 0 1.32991e-09 -6.01472e-09 -4.88271e-09 -2.10441e-09 5.89221e-09 3.72247e-09 -4.41903e-09 -2.71117e-09 -4.94565e-09 0.5 -1.85923e-08 5.40104e-10 -3.5617e-09 -2.43009e-09 -1.18855e-08 -1.45532e-09 
820 2 1.30996 2.29325 4.21136 1 0 0 1.05599e-09 -4.22858e-08 5.60441e-09 -1.28295e-09 3.58248e-08 -4.3373e-09 -7.49748e-09 -5.38035e-09 1.18338e-08 0.5 3.15212e-09 1.14635e-08 -1.27672e-08 3.63854e-08 1.06207e-08 2.11149e-08 
47 1 4.65574 1.582 5.43553 0 0 0 1.40465e-08 1.94385e-09 4.6768e-09 -1.32873e-08 -8.0618e-10 -4.47528e-09 1.61664e-09 7.62046e-09 3.31758e-09 0.5 -2.07044e-08 -3.39385e-08 -1.39065e-08 -8.49809e-09 -1.66088e-08 2.76818e-08 
824 2 1.64908 3.83184 5.79238 1 0 0 4.29376e-09 1.24777e-08 3.98776e-08 -3.76537e-09 -1.0695e-08 -3.3969e-08 -1.08897e-08 9.57392e-10 -3.80911e-09 0.5 -6.61374e-09 -5.44506e-09 -2.3689e-08 -1.70015e-09 6.62576e-11 8.42951e-09 
172 1 3.44268 0.338821 4.72114 0 1 0 2.57922e-10 1.58138e-08 -3.03011e-09 -1.55153e-09 -1.35686e-08 1.85032e-09 -1.40367e-08 -3.69897e-09 6.13414e-09 0.5 -2.76316e-08 -2.89027e-08 -9.90997e-08 -2.43645e-08 2.43963e-08 4.1522e-08 
718 2 0.202285 2.03673 5.5128 0 1 0 -3.4614e-09 -1.6468e-08 9.71743e-09 2.29846e-09 1.34305e-08 -7.6386e-09 -1.06096e-08 -4.88889e-09 -1.06702e-09 0.5 -4.57831e-08 -1.05456e-08 -3.00761e-08 2.21253e-08 -2.31245e-08 6.31476e-08 
505 2 0.484433 3.5018 5.83385 0 0 -1 -4.79129e-09 1.8106e-08 3.02884e-08 4.09303e-09 -1.65796e-08 -2.55531e-08 2.33404e-09 -5.57175e-09 1.42798e-08 0.5 -4.10363e-10 -8.18533e-08 -4.19713e-08 4.52735e-09 -1.04329e-09 6.76007e-08 
524 2 3.99535 2.7352 5.70679 0 0 0 3.59002e-08 4.00128e-08 4.78272e-08 -3.24487e-08 -3.35206e-08 -4.22561e-08 -1.14133e-08 3.18617e-08 1.62814e-08 0.5 7.56135e-10 7.64404e-09 8.81912e-09 -6.33109e-09 -7.16993e-09 7.38697e-09 
839 2 0.579387 1.61472 4.31101 1 0 0 9.82732e-09 -5.67527e-08 -2.04082e-08 -8.84181e-09 4.83027e-08 1.84466e-08 -3.78043e-09 1.49221e-10 1.24785e-08 0.5 -4.58011e-09 -6.21793e-08 -3.7127e-08 4.18092e-08 -3.13163e-09 6.57956e-08 
937 2 2.44361 3.38654 4.3372 1 0 0 8.53051e-09 -2.38539e-08 2.01508e-08 -7.69222e-09 2.09736e-08 -1.73793e-08 -8.26488e-09 -5.39735e-09 9.522e-09 0.5 1.46027e-08 1.78796e-08 -4.2755e-08 2.54828e-08 4.09748e-09 2.0674e-08 
811 2 2.60623 3.94632 5.52498 1 0 0 3.45269e-10 1.12212e-08 2.53952e-08 -4.81617e-10 -9.21057e-09 -2.17431e-08 -1.01486e-08 -6.11931e-09 4.86758e-11 0.5 -4.55489e-09 -1.93019e-08 -6.45114e-09 -8.16799e-09 -7.0842e-09 1.99382e-08 
827 2 1.52088 3.18133 4.66349 1 0 0 9.7104e-09 -4.26449e-08 1.19281e-08 -8.34141e-09 3.61382e-08 -9.84989e-09 -1.41596e-08 -7.28787e-09 -3.50165e-10 0.5 7.97543e-09 -3.50002e-09 -3.55216e-08 2.34707e-09 4.05644e-09 2.81072e-08 
149 1 4.05563 3.93275 4.61881 0 0 0 3.10053e-09 5.5831e-09 3.49349e-08 -3.39713e-09 -4.1073e-09 -3.05919e-08 -4.86775e-09 1.95948e-09 8.4217e-09 0.5 -1.52004e-08 -1.53548e-08 1.23038e-08 4.86596e-08 -2.97541e-08 1.43008e-08 
925 2 0.623246 3.59905 4.52293 1 0 0 1.53951e-08 -3.26198e-08 4.42763e-09 -1.34763e-08 2.7043e-08 -3.29314e-09 -1.29158e-08 5.20761e-09 -2.47379e-09 0.5 1.04478e-08 -2.15222e-08 -6.17484e-09 -4.89867e-09 -4.15915e-09 1.12226e-08 
168 1 3.33522 4.60361 5.33159 0 0 0 4.202e-09 9.67097e-09 3.59934e-08 -4.05528e-09 -7.77334e-09 -3.15275e-08 -8.37437e-09 -5.43915e-09 7.80862e-09 0.5 -2.73952e-08 -2.1871e-08 -2.31781e-08 7.27822e-09 -1.37313e-08 1.8443e-08 
928 2 1.57471 4.4088 4.9787 1 0 0 7.18625e-09 7.89366e-09 3.67541e-08 -6.23597e-09 -6.51118e-09 -3.11158e-08 -6.62716e-09 1.58686e-09 -6.56962e-09 0.5 -1.21474e-08 -1.52037e-08 -1.52889e-08 -7.97288e-09 1.62024e-09 1.31308e-08 
148 1 3.93983 3.74234 5.7457 0 0 0 -1.97355e-09 3.86482e-08 4.96154e-08 1.06456e-09 -3.23382e-08 -4.32435e-08 -1.17565e-08 -4.44222e-09 2.16645e-08 0.5 1.17228e-08 2.432e-08 2.85238e-08 1.72615e-08 1.98004e-08 1.72224e-08 
914 2 4.69244 4.38506 5.24423 0 0 0 -1.16015e-08 2.16302e-08 3.86264e-08 9.3738e-09 -1.74179e-08 -3.42525e-08 -1.7676e-08 -5.19273e-09 -2.19125e-09 0.5 -7.00358e-10 6.27436e-09 1.11098e-08 1.76737e-09 3.91549e-09 7.04235e-09 
23 1 2.87773 1.11847 4.05716 0 0 0 -1.28235e-09 -1.3563e-08 -1.78124e-08 7.91673e-11 1.15342e-08 1.5403e-08 4.64261e-09 -8.49283e-10 4.7938e-09 0.5 -2.3702e-08 -2.26307e-08 -1.86095e-08 -8.74808e-09 1.20859e-08 1.71221e-08 
594 2 2.05586 1.97089 4.80241 0 0 0 1.00523e-08 6.13248e-09 1.80726e-08 -9.20673e-09 -5.68749e-09 -1.47944e-08 4.88158e-09 -5.96699e-09 1.66393e-08 0.5 -4.87539e-12 -2.9079e-08 -5.99097e-09 2.1594e-08 -1.02948e-08 1.7271e-08 
539 2 3.78455 1.04074 5.46912 0 0 0 6.14586e-09 3.16147e-08 1.18199e-08 -6.36741e-09 -2.68494e-08 -1.08718e-08 -5.83831e-09 1.0513e-08 -2.44569e-09 0.5 -1.00417e-08 -9.52316e-08 -4.09405e-08 -3.08291e-08 -2.55398e-08 7.94176e-08 
730 2 0.461765 1.11568 5.16957 0 1 0 7.17957e-10 -1.80389e-08 8.65951e-10 -1.47488e-09 1.47552e-08 -4.01886e-12 -4.82772e-09 -2.66411e-09 1.60709e-08 0.5 2.61339e-08 -5.12907e-09 -2.19918e-08 4.44574e-09 -5.8164e-09 4.5533e-08 
689 2 3.51933 0.103669 5.69619 0 1 0 -1.33338e-09 2.97629e-08 -4.43841e-09 1.74436e-10 -2.52858e-08 3.16352e-09 -3.43535e-09 -4.26011e-09 -1.04481e-09 0.5 -3.94449e-08 -1.16878e-07 -1.01525e-07 -1.33547e-08 3.07774e-09 8.75527e-08 
450 1 0.619288 4.79871 4.46892 1 0 0 3.54545e-08 -2.44177e-08 2.49173e-08 -3.06252e-08 2.04622e-08 -2.06707e-08 -2.53988e-08 -6.36585e-09 4.42032e-09 0.5 -1.26101e-08 -3.51567e-08 -7.52616e-08 2.84186e-09 -1.31086e-08 4.18468e-08 
549 2 4.49944 0.500888 5.01435 0 0 0 -1.31678e-08 9.45013e-09 1.39631e-09 1.03811e-08 -7.64456e-09 -1.8449e-09 -4.13544e-09 4.38422e-09 -1.07825e-08 0.5 2.94979e-08 3.9417e-08 1.97978e-08 -1.7719e-08 -1.13003e-08 1.84227e-08 
591 2 1.44655 1.12499 4.40334 0 0 0 1.89691e-08 -4.16735e-08 -3.09073e-08 -1.68979e-08 3.49816e-08 2.73327e-08 -7.74274e-09 7.99225e-09 1.9329e-09 0.5 -2.34039e-08 -3.65988e-08 -2.84434e-08 9.434e-09 3.34699e-09 2.8033e-08 
243 1 1.20287 1.83742 5.34381 0 1 0 -5.3583e-09 5.65279e-10 -2.69882e-09 3.84282e-09 -1.21785e-09 2.86856e-09 -4.044e-09 -3.34196e-09 8.98659e-09 0.5 -1.33443e-08 -1.45544e-08 -6.24269e-09 1.7846e-08 -5.7578e-09 2.14301e-08 