ITEM: TIMESTEP
234000
ITEM: NUMBER OF ATOMS
1000
ITEM: BOX BOUNDS xy xz yz pp pp pp
0.0000000000000000e+00 1.0000000000000000e+01 0.0000000000000000e+00
0.0000000000000000e+00 1.0000000000000000e+01 0.0000000000000000e+00
0.0000000000000000e+00 1.0000000000000000e+01 0.0000000000000000e+00
ITEM: ATOMS id type x y z ix iy iz vx vy vz fx fy fz omegax omegay omegaz radius c_2[1] c_2[2] c_2[3] c_2[4] c_2[5] c_2[6] 
120 1 3.15852 1.54146 0.0722925 0 1 0 -2.92434e-12 1.29556e-11 8.26402e-12 6.1037e-12 -1.67448e-11 -6.66351e-12 6.3001e-12 2.42416e-12 -4.84111e-12 0.5 -5.04731e-12 -2.4449e-11 -2.94599e-12 -2.50245e-12 -1.71581e-12 -7.76407e-12 
525 2 2.11627 1.23431 1.69988 0 0 0 -1.45824e-11 -3.30235e-11 -1.91309e-11 1.25353e-11 2.82029e-11 1.67546e-11 -2.68363e-12 3.63407e-12 1.13896e-11 0.5 1.12896e-12 -1.93217e-12 1.41437e-12 2.5478e-12 7.42382e-13 -2.8641e-13 
371 1 4.95931 3.68326 1.58374 0 0 1 7.36995e-12 -9.60009e-12 1.69771e-11 -4.17083e-12 7.50705e-12 -1.61244e-11 7.25955e-13 -1.42499e-12 5.44607e-13 0.5 -6.00749e-12 -2.04271e-11 1.27232e-11 -2.29358e-12 -3.08691e-12 1.98957e-12 
18 1 1.98117 2.69195 0.532518 0 0 0 -7.33525e-12 -3.48572e-13 2.18068e-11 9.73096e-12 -2.93057e-12 -2.28174e-11 1.46312e-11 -5.05978e-12 4.97581e-12 0.5 -1.31568e-11 -2.63991e-11 -1.51646e-11 2.16283e-11 7.06948e-12 -1.03107e-11 
868 2 2.87004 3.00634 0.0289121 0 0 1 6.06885e-12 -4.18247e-12 1.71462e-11 -4.02236e-12 -5.09522e-12 -1.63594e-11 1.1689e-11 -2.11379e-12 5.30174e-12 0.5 -2.40824e-11 -3.74422e-11 -8.73325e-12 2.73275e-11 -2.22443e-12 3.43281e-12 
25 1 1.41548 0.708705 1.0832 0 0 0 -5.72011e-12 -1.2374e-11 -1.84561e-11 2.95392e-12 4.98852e-11 4.57398e-11 9.31751e-12 -2.11879e-12 7.20188e-12 0.5 -8.65565e-12 -1.00163e-10 -4.80171e-11 2.30827e-11 1.86673e-11 -4.14782e-11 
378 1 4.61919 2.40719 0.0725816 0 0 1 2.232e-12 1.06333e-11 1.25597e-11 -2.10802e-12 -1.11473e-11 -1.10246e-11 1.25837e-11 2.96674e-12 -2.37018e-12 0.5 -7.96736e-12 -2.19605e-11 -1.16767e-11 7.79132e-13 -1.17043e-12 -1.55087e-11 
8 1 3.44143 2.06796 1.74253 0 0 0 -1.06028e-12 -1.35467e-11 4.38195e-12 3.43899e-12 1.21093e-11 -2.70326e-12 1.14154e-11 -2.49431e-12 2.851e-12 0.5 7.73101e-12 3.45774e-12 7.01421e-12 3.53898e-12 -4.30719e-12 3.85175e-12 
629 2 4.07713 2.6156 1.19812 0 0 1 3.15032e-12 -5.59214e-12 1.71042e-11 -2.15277e-12 4.81542e-12 -1.61008e-11 1.20071e-11 -4.19023e-12 1.06926e-12 0.5 -2.25397e-11 -4.8274e-12 -1.84507e-11 4.41837e-12 -1.56847e-11 -8.97534e-12 
5 1 2.34651 3.9005 1.05345 0 0 0 -1.12499e-12 -2.36628e-11 2.41839e-11 1.15241e-12 2.05153e-11 -2.13639e-11 1.214e-12 1.5125e-12 4.85285e-12 0.5 -1.12167e-12 -2.28093e-12 -3.36677e-12 3.0636e-12 2.34581e-13 -4.05884e-13 
650 2 0.459129 3.43666 1.12967 0 0 0 -1.53433e-11 -2.77311e-11 6.66439e-12 1.60644e-11 1.74044e-11 -1.35875e-11 1.54742e-11 8.68751e-13 -4.0299e-14 0.5 -2.43605e-11 -2.52699e-11 -3.13446e-11 1.96385e-11 2.13764e-11 -1.36947e-11 
14 1 3.29515 3.13364 1.54473 0 0 0 4.97323e-13 -1.08789e-11 1.84678e-11 -1.07159e-12 9.77529e-12 -1.81399e-11 2.55162e-12 2.51528e-12 2.0627e-12 0.5 -2.19074e-12 -6.29234e-12 -1.52045e-11 1.05897e-11 -3.0533e-12 -5.17207e-12 
264 1 3.99643 3.86789 1.37953 0 0 0 7.06766e-12 -1.20786e-11 1.67844e-11 -3.40308e-12 1.07746e-11 -2.2419e-11 4.72376e-12 6.76978e-13 1.40521e-12 0.5 -7.42532e-12 1.51756e-12 -1.82539e-11 7.96836e-12 9.48726e-13 -1.80033e-12 
223 1 0.747634 2.47805 1.14565 0 0 1 -1.7206e-11 -2.78888e-11 7.12661e-12 1.4061e-11 1.73777e-11 -7.93613e-12 1.43754e-11 -5.95166e-12 2.06971e-12 0.5 -4.53083e-12 -2.07268e-11 -3.06268e-11 9.56737e-12 1.34246e-11 -9.58922e-12 
364 1 4.4227 4.23693 0.53984 0 0 1 5.45532e-12 7.63975e-12 2.45291e-11 -2.18119e-12 -4.06291e-12 -2.39711e-11 7.11487e-12 -1.64776e-12 2.72597e-12 0.5 5.14466e-13 5.41208e-12 4.61938e-13 9.75207e-13 2.15918e-12 -3.24292e-12 
107 1 1.66076 1.61825 0.747451 0 0 1 -1.43495e-11 -6.12941e-12 -6.9504e-12 1.80573e-11 2.33616e-11 4.1949e-12 1.49112e-11 -1.29679e-12 2.49773e-12 0.5 -6.9338e-13 -3.73053e-11 -3.20636e-11 5.35479e-12 -3.10924e-12 -1.12275e-11 
529 2 2.67265 2.1996 1.06195 0 0 0 -1.84866e-12 -9.06007e-12 6.27629e-12 3.47593e-12 7.73467e-12 -4.81034e-12 1.34584e-11 1.33071e-12 4.15292e-12 0.5 -4.87917e-12 -1.11295e-11 -1.29476e-11 8.66067e-12 -6.55575e-12 3.20179e-12 
515 2 4.38643 0.435908 1.64385 0 0 0 3.22158e-12 -1.39469e-11 -1.26801e-11 -2.10604e-12 1.13213e-11 1.19216e-11 8.2862e-12 -1.57509e-12 2.80807e-12 0.5 -1.38707e-11 -1.51457e-11 -3.2448e-11 -2.57862e-11 6.46249e-12 1.07231e-11 
244 1 4.11373 0.570462 0.682724 0 1 1 4.44075e-12 6.58351e-12 -8.7204e-12 1.10777e-13 -7.8404e-12 7.29338e-12 1.13746e-11 4.47177e-12 1.4064e-12 0.5 -1.12004e-11 -7.56601e-12 -3.03078e-11 -4.22432e-12 3.14563e-12 6.38844e-12 
20 1 2.90179 0.570818 1.78382 0 0 0 5.1176e-13 -1.37584e-11 -1.35603e-11 9.41174e-13 1.21245e-11 1.34011e-11 5.53919e-12 -3.35043e-12 3.68006e-12 0.5 -5.87244e-12 -1.53909e-11 -3.42805e-11 1.44141e-11 1.35934e-11 -2.94251e-11 
280 1 4.09077 1.582 1.14626 0 0 0 1.37675e-12 -2.52929e-12 -2.15805e-12 2.8397e-13 1.13902e-12 -1.13192e-12 1.32779e-11 -1.18763e-12 1.09156e-12 0.5 4.8365e-13 -6.47477e-12 -1.6802e-11 2.49581e-12 8.81054e-12 6.25338e-12 
620 2 1.3946 4.37082 0.857654 0 0 1 3.63784e-12 -1.63698e-11 2.08131e-11 -5.22591e-12 1.22605e-11 -9.3137e-12 9.67023e-12 6.89305e-12 -6.64391e-12 0.5 -6.75655e-12 -2.37486e-11 -3.65846e-11 1.75987e-13 -3.32687e-12 4.71479e-12 
1000 2 3.60332 2.39824 0.339819 0 1 1 1.3576e-11 3.02323e-12 1.09238e-11 -7.74212e-12 -7.88817e-12 -1.0252e-11 8.43067e-12 -1.02649e-12 5.59192e-13 0.5 -1.77004e-11 -2.33883e-11 -1.85441e-11 4.87452e-12 -1.53071e-11 -2.28618e-12 
103 1 3.28431 3.68319 0.698947 0 0 1 1.19937e-12 -7.26734e-12 2.19711e-11 -2.24606e-12 2.35132e-12 -2.24879e-11 6.46156e-12 1.74666e-13 3.5816e-12 0.5 -1.02218e-11 -1.21563e-11 -1.28398e-11 8.47184e-12 -2.16471e-12 1.54103e-12 
622 2 0.930663 4.80385 0.0848388 0 0 1 3.74049e-12 -1.73946e-12 2.92775e-11 1.02774e-13 -2.40619e-12 -2.48323e-11 1.26925e-11 -5.99086e-13 -2.90689e-12 0.5 2.37652e-13 4.66138e-12 -1.88225e-11 -2.55989e-12 -8.62763e-12 4.56681e-12 
506 2 0.74356 1.4513 1.18235 0 0 0 -1.83152e-11 -2.85812e-11 -1.54724e-11 -1.82816e-12 3.34652e-11 1.78972e-11 1.09078e-11 -1.53361e-12 8.21637e-12 0.5 5.37816e-12 -3.62179e-11 -6.43334e-12 4.31432e-11 6.82414e-12 -2.13953e-11 
626 2 1.28815 3.41645 0.566227 0 0 1 -1.54369e-11 -9.23928e-12 7.195e-12 1.80471e-11 7.19774e-12 -9.51121e-12 8.23862e-12 -3.47592e-12 1.07159e-12 0.5 -2.18489e-11 -2.87772e-11 -6.21495e-12 1.68358e-11 1.37808e-11 -8.32885e-12 
553 2 0.744043 0.0774004 1.56305 0 0 0 -4.2311e-12 -2.01299e-11 -2.35491e-11 3.97593e-12 1.73856e-11 2.1317e-11 1.30018e-12 -5.03543e-12 9.21252e-12 0.5 3.43954e-12 6.58707e-13 2.70735e-12 1.80781e-12 6.05351e-13 -4.36314e-12 
135 1 1.54769 3.20472 1.67709 0 0 0 4.20212e-12 -2.43548e-11 3.87787e-12 6.11192e-13 -2.67411e-13 -6.02989e-12 7.99908e-12 -1.02235e-11 -3.32462e-12 0.5 7.95609e-13 -5.27346e-11 -1.07861e-11 1.26973e-11 4.76295e-12 -9.26492e-13 
624 2 4.32461 4.92098 1.47156 0 0 1 1.34661e-11 -4.37082e-13 1.73024e-11 -1.19461e-11 2.79213e-12 -1.73936e-11 4.99598e-12 -1.29202e-12 3.81868e-12 0.5 3.35293e-12 1.53818e-12 -1.59587e-11 5.86218e-12 -1.03563e-11 -7.49718e-12 
256 1 4.58719 1.36786 0.305 0 0 0 3.05655e-12 9.52517e-12 -4.04668e-12 -4.15331e-12 -3.78227e-12 1.95097e-12 1.22911e-11 2.36765e-12 -2.52984e-12 0.5 -6.31585e-12 -1.69143e-11 -2.11384e-11 -9.19974e-12 -6.66726e-12 -1.59076e-11 
260 1 3.31854 0.0700552 1.02517 0 0 0 7.64285e-12 -5.49845e-12 -1.44148e-11 -4.2514e-12 1.26089e-12 1.84617e-11 5.04019e-12 7.34889e-12 1.36915e-12 0.5 -1.57582e-11 -2.44347e-11 -3.00114e-11 -3.97446e-12 1.43686e-12 -1.61388e-11 
616 2 3.19106 4.4806 1.50664 0 0 1 4.31881e-12 -1.88359e-11 1.63019e-11 -1.64168e-12 1.46834e-11 -1.64313e-11 -9.35682e-13 2.55625e-12 4.21118e-12 0.5 -9.31468e-12 -3.62812e-12 -4.82841e-12 5.20527e-12 3.75854e-13 -2.48825e-12 
106 1 1.74522 2.23558 1.52961 0 0 1 -1.35685e-12 -2.74182e-11 7.86842e-12 -6.57931e-12 4.59889e-11 8.48764e-12 9.91068e-12 -3.05622e-12 -2.43893e-12 0.5 6.65478e-12 -2.79809e-11 -1.69569e-11 6.52876e-12 4.18841e-12 -1.72052e-11 
157 1 1.3897 4.17879 1.83903 0 0 0 8.19486e-12 -2.68964e-11 1.94281e-11 -1.51623e-11 3.17591e-11 -1.73594e-11 1.03324e-11 1.41202e-12 1.68583e-12 0.5 -1.30299e-11 -4.51501e-11 -3.96626e-11 9.28603e-12 1.30308e-11 -8.79474e-12 
516 2 2.34691 0.89043 0.68796 0 0 0 -4.0448e-12 4.0357e-12 -4.51838e-12 2.30324e-12 -1.40864e-12 6.15509e-12 3.26648e-13 -1.76276e-12 1.82435e-12 0.5 -7.09349e-12 -3.48083e-11 -5.73275e-12 8.57627e-12 3.89806e-12 -1.70446e-11 
183 1 0.415258 4.58221 1.00381 0 0 0 5.74932e-12 -2.29096e-11 4.41235e-11 -4.78777e-12 1.97521e-11 -3.77516e-11 1.96297e-11 1.12016e-11 9.22513e-13 0.5 -2.46305e-13 -1.14202e-12 2.57681e-12 2.06684e-12 -3.19417e-12 2.46582e-12 
625 2 0.399951 3.91216 0.210014 0 0 1 -2.43762e-12 7.30296e-13 2.33343e-11 2.32794e-12 -9.16587e-13 -2.01505e-11 1.84769e-11 -2.18739e-12 -8.94971e-12 0.5 -7.45501e-13 5.14263e-13 -3.63955e-12 -6.28475e-13 -1.62216e-12 3.53791e-12 
91 1 2.22066 4.71676 1.69645 0 0 1 6.09916e-12 -2.31231e-11 2.26222e-11 -1.45643e-12 2.1339e-11 -2.19016e-11 -1.02394e-13 2.39573e-12 1.88898e-12 0.5 -1.30349e-11 -6.81974e-12 -2.85295e-12 -3.19858e-12 9.93859e-13 -2.82553e-12 
257 1 4.94043 2.69123 1.70827 0 0 0 3.38204e-12 -9.76006e-12 1.3788e-11 -2.37637e-12 5.90127e-12 -1.60296e-11 4.69236e-12 -6.13078e-13 -2.06409e-12 0.5 -2.4683e-11 -1.7819e-11 -4.59323e-11 1.69989e-12 -1.53014e-11 -9.97982e-12 
4 1 3.72174 1.12777 1.95711 0 0 0 1.592e-12 -1.6011e-11 -9.91163e-12 1.67681e-12 1.25102e-11 5.3842e-12 8.65989e-12 -6.11272e-13 1.25644e-12 0.5 -1.61149e-12 -3.545e-12 -3.79622e-11 -3.69131e-12 1.57383e-12 1.73568e-11 
609 2 1.99624 4.76004 0.136921 0 0 1 3.94389e-12 -1.32918e-11 2.69394e-11 -4.42089e-12 6.19595e-12 -2.49704e-11 3.53523e-12 -1.43364e-12 5.28481e-12 0.5 -6.46335e-11 -1.9385e-10 -2.37722e-11 5.75734e-11 7.33166e-12 -3.83681e-11 
117 1 3.12746 1.31374 1.15363 0 1 0 2.74559e-12 -7.74727e-12 -5.75775e-12 -9.66006e-13 6.77459e-12 7.1088e-12 1.079e-11 8.46245e-13 1.41836e-12 0.5 -3.00514e-12 -7.33078e-12 -6.07884e-12 3.93321e-12 -8.02675e-12 1.73756e-12 
511 2 1.08079 2.25054 0.230642 0 0 0 -6.44082e-12 7.8469e-12 1.35305e-12 1.18362e-11 1.57143e-11 6.11002e-12 1.86589e-11 -5.52454e-12 -3.47431e-12 0.5 -1.22171e-11 -2.55849e-11 -3.15243e-11 -2.11198e-12 8.96072e-12 -1.09435e-11 
911 2 0.492018 0.563612 0.697612 1 0 0 -4.964e-12 -1.72085e-11 -2.27247e-11 5.74953e-12 -2.64875e-13 1.94817e-11 1.93811e-12 -3.52265e-12 2.33685e-12 0.5 6.71464e-12 -1.93704e-11 -6.44922e-13 -2.17097e-12 2.07514e-12 -9.96468e-12 
668 2 0.00216515 3.81975 1.93315 0 0 0 -4.06495e-12 -5.02404e-11 2.29748e-11 1.91541e-11 5.22107e-12 -6.79136e-12 4.35202e-12 3.0831e-12 -4.78092e-12 0.5 -6.65951e-11 -1.62002e-10 -5.75317e-11 4.6945e-11 -2.82491e-11 1.02863e-11 
90 1 2.93989 4.58015 0.420403 0 0 1 4.95098e-12 -4.51246e-12 2.67401e-11 -4.1595e-12 1.60794e-12 -2.31906e-11 3.44415e-12 -6.37836e-13 5.76308e-12 0.5 -2.23502e-11 8.53818e-12 -3.81495e-12 2.90507e-11 1.01616e-11 8.35489e-12 
734 2 4.13742 3.24508 0.37494 0 1 1 6.81129e-12 6.83065e-12 2.33683e-11 -6.16453e-12 -8.21924e-12 -2.18961e-11 1.1518e-11 1.12649e-12 2.39332e-12 0.5 -1.12174e-11 -3.78949e-12 7.62129e-13 1.20245e-11 3.15934e-12 -6.3856e-12 
672 2 0.0675425 1.98557 1.68985 0 0 0 -2.10472e-11 -3.88589e-11 -7.71428e-12 3.62789e-11 -6.5066e-12 1.30717e-12 1.11897e-11 -1.81827e-12 4.71669e-12 0.5 -3.48889e-11 -1.24474e-10 -3.08574e-11 4.92729e-11 1.48606e-11 -6.16811e-12 
759 2 4.95866 2.03867 0.950748 0 0 0 3.28226e-12 -2.21943e-12 6.94334e-12 -1.68209e-12 3.31982e-13 -8.62889e-12 1.06977e-11 -2.64943e-12 -2.87484e-12 0.5 -1.741e-12 -3.29244e-11 -1.78201e-11 -5.01867e-12 -3.39521e-12 -4.89817e-12 
21 1 1.84566 0.35675 2.43115 0 0 0 -5.36915e-12 -2.54056e-11 -1.97167e-11 4.07219e-12 2.26916e-11 1.73273e-11 5.10595e-12 -2.92958e-12 8.26658e-12 0.5 -1.20496e-12 -3.37097e-12 -1.97131e-13 2.70792e-12 -2.05207e-13 -1.14478e-12 
682 2 2.73058 4.0836 2.7725 0 0 0 4.75381e-12 -1.62882e-11 1.64729e-11 -3.43926e-11 3.63561e-11 -1.3653e-11 -5.40478e-13 1.92824e-12 3.17117e-12 0.5 -1.14212e-11 -3.65613e-12 2.55722e-12 1.304e-11 -7.1823e-13 1.98333e-11 
907 2 0.982097 4.62503 2.63573 1 0 0 1.24303e-12 -3.959e-11 2.41749e-11 1.3831e-11 2.54027e-11 -2.3373e-11 1.63146e-12 -3.5758e-12 2.67093e-12 0.5 -1.46463e-11 -2.89467e-11 -4.13044e-11 1.71332e-11 1.92105e-11 -1.12432e-11 
144 1 1.68507 3.60062 2.81087 0 0 0 4.57838e-12 -3.30245e-11 3.95441e-12 8.49607e-12 3.17365e-11 -3.31642e-12 -1.30589e-12 3.93785e-12 1.81588e-12 0.5 -4.07234e-11 -5.46151e-12 -9.42429e-12 1.54165e-11 -1.35114e-11 2.33448e-12 
675 2 2.83107 4.7385 3.54541 0 0 0 -3.56659e-12 -8.75314e-12 1.60839e-11 1.93508e-12 5.52793e-12 -1.46368e-11 -4.41101e-12 4.12304e-12 -1.45677e-13 0.5 1.70582e-12 6.09629e-12 1.38309e-11 6.49586e-12 -3.90156e-12 1.08673e-11 
502 2 4.38953 1.31124 3.26921 0 0 0 -6.18278e-12 -8.95472e-12 -8.52988e-12 3.12819e-12 3.17009e-12 4.02737e-12 1.94027e-12 -7.02951e-13 -4.54703e-13 0.5 -1.9805e-11 -1.46955e-11 -2.1846e-11 -1.09561e-11 6.93086e-12 2.28995e-11 
27 1 2.60908 0.300739 3.21066 0 0 0 -3.94831e-12 -2.19391e-11 -1.46099e-11 1.67807e-12 2.85697e-11 3.36015e-12 6.05476e-13 -2.87891e-12 4.64273e-12 0.5 -2.29627e-11 -2.0633e-11 -3.38486e-11 1.21683e-11 1.19844e-11 2.80787e-12 
965 2 1.35576 3.65812 3.79896 1 0 0 7.74321e-12 -4.13621e-11 2.5823e-12 -8.57926e-12 3.82902e-11 -3.78862e-13 -2.28925e-12 7.41168e-12 -5.60993e-12 0.5 -6.41566e-12 -2.44397e-11 -2.26778e-11 1.31542e-11 -9.61034e-12 1.40356e-11 
61 1 1.66165 0.448609 3.51352 0 0 0 -8.40777e-12 -3.55269e-11 -2.49949e-11 5.71599e-12 3.19548e-11 2.25683e-11 1.77061e-12 -4.00737e-13 6.54386e-12 0.5 -1.63684e-11 -6.34321e-13 -2.93847e-12 2.79266e-12 8.00886e-12 -8.63979e-13 
680 2 1.1901 2.78151 3.34693 0 0 0 -1.07589e-11 -3.75678e-11 2.19996e-12 1.33058e-11 3.51086e-11 -5.67034e-12 1.41517e-12 3.92664e-12 -9.80514e-13 0.5 1.53921e-12 -1.28271e-11 -1.08987e-11 1.43863e-12 3.29571e-12 1.86584e-12 
251 1 4.71421 3.03382 3.89556 0 0 0 6.96718e-12 -1.28721e-11 1.27607e-11 -2.28201e-11 -1.32849e-11 8.53627e-12 7.20474e-12 5.46618e-12 -7.42598e-12 0.5 -4.38405e-11 -1.29652e-11 -4.40727e-12 -2.29226e-11 1.50587e-11 1.68265e-11 
517 2 4.0089 2.89361 2.21821 0 0 0 5.07018e-12 -1.06688e-11 1.26775e-11 -7.29376e-12 1.66339e-11 -1.03183e-11 2.59756e-12 -9.1756e-13 -4.08338e-13 0.5 -9.54518e-14 3.27102e-12 -8.80797e-12 -1.536e-12 -2.34292e-12 3.8883e-12 
6 1 3.42179 1.77987 2.73262 0 0 0 -6.66022e-12 -1.2419e-11 6.20558e-12 -2.60469e-13 9.18841e-12 -1.78443e-12 7.76695e-12 -4.78562e-13 6.40505e-12 0.5 -3.85131e-11 6.16456e-12 3.38754e-12 1.24409e-11 1.48153e-11 7.20366e-12 
519 2 4.43345 3.61408 3.03093 0 0 0 2.00603e-12 -5.02742e-12 1.8748e-11 2.01536e-12 7.36962e-12 -1.93578e-11 2.55692e-12 9.24241e-13 -1.21999e-12 0.5 1.169e-11 1.58777e-11 1.21631e-11 -8.24668e-12 -8.70344e-12 7.71339e-12 
509 2 1.93621 1.51608 3.62332 0 0 0 4.08287e-12 -3.31048e-11 -2.09829e-11 -3.83142e-12 2.85833e-11 1.78643e-11 -1.08136e-12 1.02331e-11 6.01114e-14 0.5 2.74217e-12 -3.2588e-12 -2.69741e-11 -3.55798e-12 6.01961e-12 7.76608e-12 
142 1 1.03537 1.94217 2.17003 0 0 0 -1.37903e-11 -3.02002e-11 -7.13615e-12 2.71021e-12 2.40647e-11 1.40854e-11 9.99422e-12 4.07302e-13 2.18457e-12 0.5 2.99059e-12 -1.83213e-12 -4.72278e-12 1.21793e-11 -5.53401e-12 5.8711e-12 
941 2 0.192203 2.2584 2.77344 1 0 0 -1.7853e-11 -4.30972e-11 -4.0452e-12 1.71593e-11 3.2488e-11 5.42718e-12 6.39981e-12 8.49005e-13 2.56639e-12 0.5 -4.87772e-12 -1.49162e-11 -1.92496e-11 1.4879e-12 2.42535e-12 1.72801e-12 
919 2 0.650389 4.31552 3.53385 1 0 0 -7.29445e-13 -4.41775e-11 1.95275e-11 -5.42651e-12 3.87894e-11 -7.10586e-12 5.5366e-12 3.39374e-12 -7.3841e-12 0.5 -1.67705e-11 -2.81949e-11 -2.07405e-11 1.54967e-11 6.86179e-13 1.20534e-11 
95 1 3.53903 3.77814 2.2694 0 0 1 6.39873e-12 -9.84952e-12 1.53451e-11 -1.5105e-11 1.24696e-11 -7.29098e-12 -2.76244e-14 2.44643e-13 1.46003e-12 0.5 -5.57862e-12 -7.73549e-13 -3.73515e-11 -1.45087e-13 6.46614e-12 7.02077e-13 
458 1 1.5569 4.7536 3.86468 1 0 0 -2.72318e-14 -3.05761e-11 2.4899e-11 -3.04378e-14 2.68236e-11 -2.02041e-11 -4.35356e-12 1.29514e-12 2.31225e-12 0.5 -1.36681e-11 -8.66703e-12 -8.66193e-12 1.14909e-11 -2.19577e-12 -1.14954e-13 
41 1 1.14045 0.960462 2.01108 0 0 0 -9.88875e-12 -2.83585e-11 -1.53997e-11 5.17456e-12 2.65927e-11 2.58675e-11 9.03892e-12 -1.00197e-12 5.32684e-12 0.5 -1.06712e-11 -1.01134e-11 -3.1367e-11 7.33591e-12 1.47457e-11 -7.85834e-12 
814 2 0.27112 1.22753 3.40348 1 0 0 -5.7577e-12 -3.46286e-11 -1.12437e-11 7.55014e-12 2.47371e-11 7.74503e-12 5.00624e-12 -3.01659e-12 9.89121e-12 0.5 -3.51285e-11 -3.24128e-11 -2.77369e-11 1.43542e-11 7.77806e-12 3.05336e-11 
130 1 1.70518 2.6475 2.50033 0 0 0 -9.61914e-12 -3.17685e-11 -6.14007e-13 2.84111e-12 3.25603e-11 4.51889e-12 8.3567e-12 -3.51006e-12 -3.68444e-12 0.5 -3.05509e-12 -2.56048e-11 -1.93987e-11 1.31601e-11 6.43517e-12 1.52489e-11 
12 1 2.70258 1.09575 2.61132 0 0 0 2.21856e-12 -1.88334e-11 -1.05059e-11 4.02527e-13 9.91361e-13 2.01742e-11 5.73373e-12 -5.54176e-12 6.45487e-12 0.5 -4.66104e-11 -3.95351e-11 -2.58219e-11 2.84715e-11 7.88781e-12 -2.49639e-12 
512 2 3.18635 2.03167 3.78747 0 0 0 -9.71794e-13 -4.37314e-12 9.53599e-12 -1.97887e-12 2.98819e-12 -8.83648e-12 6.46348e-12 -8.43172e-13 4.18445e-12 0.5 -7.03192e-12 -1.19005e-11 -1.20918e-11 3.45827e-12 -3.80863e-12 1.36423e-11 
151 1 2.47925 3.30049 3.34132 0 0 0 3.65049e-12 -1.82548e-11 1.29948e-11 4.3957e-12 1.87271e-11 -9.30124e-12 -2.89075e-12 -1.60974e-12 9.61045e-13 0.5 -1.6616e-11 -2.60336e-11 -2.99922e-11 1.41314e-11 -5.39434e-13 2.00569e-12 
667 2 0.284319 1.3208 2.4071 0 0 0 -9.51454e-12 -3.75698e-11 -1.12249e-11 1.92246e-12 2.65641e-12 7.61397e-12 5.02949e-12 2.15977e-12 5.91457e-12 0.5 -6.14428e-12 -3.00847e-11 -3.73447e-11 1.19419e-11 -1.34131e-12 1.09984e-11 
38 1 3.79042 0.738149 3.87284 0 0 0 -2.83409e-12 -5.00706e-13 -1.09986e-11 6.17587e-12 7.37454e-12 4.60052e-12 -6.19851e-12 -2.12623e-12 1.30893e-12 0.5 -1.96459e-11 -8.21032e-12 -6.60162e-11 -2.28786e-11 1.14653e-11 3.79943e-11 
936 2 0.319906 3.36948 3.50683 1 0 0 -1.70278e-11 -3.80322e-11 9.72298e-12 1.34164e-11 2.59631e-11 -8.61123e-13 6.03851e-12 -4.67347e-12 -4.37962e-12 0.5 8.30292e-13 -3.55293e-11 -1.93714e-11 6.24159e-13 1.98813e-11 2.36278e-11 
531 2 4.80013 0.808197 2.48028 0 0 0 -9.02648e-12 -1.71727e-11 -6.70151e-12 7.35429e-12 1.74669e-11 4.87929e-12 5.93511e-13 -2.15421e-12 -2.61032e-12 0.5 -9.01868e-12 -1.24546e-12 -1.73642e-11 -7.91557e-12 -1.46352e-11 -8.16353e-12 
527 2 4.03024 4.31517 3.61908 0 0 0 3.78277e-12 -6.8531e-12 2.25307e-11 -1.94927e-12 7.07171e-12 -1.96113e-11 -3.21634e-12 -1.6883e-13 1.1284e-12 0.5 4.84915e-12 8.25078e-12 1.21254e-11 -2.38919e-12 -5.78423e-12 1.47092e-11 
383 1 4.36293 4.34454 2.28892 0 0 1 2.11413e-12 -3.61652e-12 1.56083e-11 -8.54398e-12 1.16511e-11 -1.06147e-11 1.11055e-12 -3.0037e-12 -3.62588e-13 0.5 -1.27325e-11 -3.22859e-12 2.30842e-12 1.63323e-11 -4.01252e-12 -1.07001e-12 
992 2 0.695682 0.439322 3.85269 1 1 0 -2.39946e-12 -3.60517e-11 -1.93742e-11 5.43544e-12 2.19823e-11 2.51463e-11 1.90941e-12 6.21409e-12 3.17227e-12 0.5 -1.85368e-11 -5.51559e-11 -1.46927e-11 1.62237e-11 -8.34768e-12 2.968e-11 
521 2 4.93615 4.52796 3.25037 0 0 0 1.36195e-12 -4.57018e-12 1.7912e-11 5.0115e-13 7.44002e-12 -1.17541e-11 -2.24277e-12 7.49763e-13 6.00198e-13 0.5 1.16571e-12 -1.6372e-11 -2.15497e-11 3.27688e-12 2.02996e-12 7.28129e-12 
136 1 1.88498 1.67143 2.62265 0 0 0 -9.87542e-12 -3.33948e-11 -1.66276e-11 -1.80442e-12 3.39487e-11 4.92209e-12 3.96951e-12 5.44606e-12 3.91386e-12 0.5 -4.87923e-11 -4.2167e-11 -2.41386e-11 3.26317e-11 -1.31416e-12 9.79066e-12 
540 2 4.51129 0.178592 3.415 0 0 0 -4.91512e-12 -9.36784e-12 -1.13431e-11 3.89329e-12 6.87425e-12 9.62713e-12 -3.42512e-12 2.70023e-12 -3.33306e-12 0.5 1.05653e-11 7.15303e-12 2.9961e-12 -6.47357e-12 -3.52263e-12 5.31572e-12 
510 2 3.85504 2.56842 3.17077 0 0 0 -7.92352e-12 -1.24331e-11 8.1122e-12 2.77314e-12 1.05358e-11 -6.88439e-12 9.01146e-13 -9.88502e-13 3.04924e-15 0.5 8.4731e-12 1.67046e-11 -7.23652e-12 3.54018e-12 1.77036e-12 1.11992e-11 
19 1 4.3655 1.84749 2.40882 0 0 0 -9.70485e-12 1.90925e-12 1.94228e-12 1.65483e-12 8.26778e-12 3.77489e-12 3.05526e-12 4.7312e-13 1.6736e-12 0.5 -5.61476e-11 -2.69251e-12 -2.70674e-11 4.16261e-12 2.6644e-11 3.40538e-12 
543 2 1.07326 1.78713 3.19513 0 0 0 -3.62445e-12 -3.61306e-11 -7.62352e-12 2.08412e-12 3.72906e-11 9.37471e-12 7.23591e-12 7.02361e-12 2.34031e-12 0.5 -1.1586e-11 -1.06293e-11 -2.6719e-12 -1.02217e-11 8.86044e-12 2.44658e-12 
773 2 4.78774 2.22773 3.30763 0 0 0 -6.45061e-12 -9.6056e-12 6.34522e-12 4.28933e-13 3.47871e-12 -3.44287e-12 3.30393e-12 2.88072e-12 -2.79069e-12 0.5 5.6862e-13 -3.73358e-11 -5.9198e-11 -5.32186e-12 7.79936e-12 5.66977e-11 
555 2 2.23907 2.5056 3.89852 0 0 0 -9.84223e-13 -1.48839e-11 1.57664e-11 -1.09958e-12 1.60576e-11 -1.31525e-11 -2.42172e-12 -3.58772e-13 1.78312e-12 0.5 1.12858e-11 1.26033e-11 1.04551e-11 7.13153e-12 -1.63309e-12 7.56953e-12 
429 1 0.306925 2.40106 3.75655 1 0 0 -1.43502e-11 -4.1307e-11 -4.9066e-12 1.78537e-11 2.42727e-11 8.55648e-12 4.01502e-12 1.64393e-12 7.1824e-12 0.5 -6.67975e-12 -5.25536e-11 -2.76751e-11 1.2101e-11 -7.28576e-12 2.83912e-11 
316 1 0.889712 0.512877 2.86992 1 0 0 -1.18263e-11 -3.84911e-11 -2.14008e-11 8.93324e-12 3.2211e-11 2.19535e-11 3.97083e-12 1.01185e-12 6.19459e-12 0.5 2.28078e-12 -5.92163e-12 -8.01596e-12 2.06596e-12 1.74424e-12 6.76141e-12 
503 2 3.61689 0.768796 2.88623 0 0 0 7.41948e-13 -1.67805e-11 -1.10066e-11 1.3313e-12 1.02636e-11 6.00446e-12 -6.50693e-13 -2.30024e-12 4.29624e-12 0.5 -1.43389e-11 -9.82123e-14 -5.17199e-11 3.38046e-12 -7.40915e-12 1.3162e-11 
896 2 0.702247 3.66501 2.63024 1 0 0 2.21274e-12 -3.98879e-11 1.80178e-11 1.2584e-11 2.24844e-11 -2.31789e-12 4.38451e-12 2.63398e-12 -1.56913e-12 0.5 -5.55715e-11 -2.06931e-12 -5.3916e-11 1.39903e-11 -3.00836e-11 2.1125e-11 
690 2 1.93672 4.67095 2.92999 0 0 0 6.74962e-13 -2.22097e-11 2.56568e-11 9.37007e-12 -8.69302e-12 -3.6471e-11 9.945e-14 2.16097e-12 7.2746e-12 0.5 -6.77785e-12 -7.93866e-12 -5.98785e-12 1.0806e-11 -4.60959e-13 -1.57365e-12 
641 2 3.45948 3.5005 3.22725 0 0 0 1.49197e-12 -6.59517e-12 1.55424e-11 8.17215e-12 3.48532e-12 -3.62835e-12 -2.1284e-12 -5.50284e-13 2.62279e-12 0.5 -6.46058e-12 -6.90944e-14 -3.77994e-11 9.2146e-12 -1.58869e-11 3.19375e-11 
528 2 3.34275 4.80215 2.44243 0 0 0 4.53672e-12 -1.6632e-11 1.54113e-11 -4.06475e-12 1.36514e-11 -1.52298e-11 -7.66947e-13 7.34057e-13 1.26827e-12 0.5 -1.25371e-12 -1.81166e-12 -8.73861e-12 -2.36664e-12 -3.21433e-12 -4.69532e-12 
225 1 2.66658 2.37982 2.99794 0 0 1 -1.06881e-11 -2.01274e-11 1.11782e-11 4.99886e-12 1.82109e-11 -8.82587e-12 -1.88866e-12 4.01165e-12 1.0939e-12 0.5 -1.27348e-11 -2.67973e-11 -6.50432e-12 1.64021e-11 -6.28075e-12 -1.23803e-12 
119 1 0.614476 2.84343 2.06694 0 0 0 -1.86882e-11 -3.08396e-11 7.92671e-12 6.53597e-12 2.54344e-11 -1.16374e-11 9.96545e-12 1.76917e-12 3.75889e-14 0.5 1.29838e-11 -4.54256e-12 -1.13931e-11 5.06524e-12 9.53025e-12 8.67762e-12 
94 1 2.46189 3.50067 2.00487 0 0 1 -1.6854e-12 -2.2305e-11 2.30868e-11 2.22019e-12 2.06511e-11 -2.01242e-11 3.68118e-12 -5.08506e-13 1.35506e-12 0.5 4.98643e-12 7.12213e-12 2.47852e-12 7.02323e-12 4.91053e-12 8.36639e-12 
522 2 2.58373 2.50801 2.00903 0 0 0 -3.96967e-12 -2.26799e-11 1.03478e-11 5.77563e-12 2.02433e-11 -8.2862e-12 7.47883e-12 -2.46437e-12 3.39664e-12 0.5 1.85676e-12 1.75634e-12 -1.21215e-11 6.36309e-12 3.58443e-12 2.3213e-12 
200 1 2.46549 0.208501 4.19599 0 1 0 3.07885e-12 -1.28201e-11 -1.30611e-11 -2.47948e-13 9.29504e-12 8.24289e-12 -7.20094e-12 -5.13505e-12 1.36684e-11 0.5 -1.6981e-11 -7.50432e-12 -2.8392e-11 6.87983e-12 1.05603e-11 7.48141e-12 
114 1 4.70709 1.00384 4.17137 0 0 0 -4.4249e-12 -4.5626e-13 -6.8445e-12 3.40932e-12 3.48271e-12 6.66338e-12 -2.66417e-12 -1.87196e-12 -2.44811e-12 0.5 -1.69556e-11 2.02077e-12 -1.28888e-11 -3.19453e-13 -1.39405e-11 5.14509e-13 
820 2 1.30996 2.29325 4.21136 1 0 0 -1.75659e-12 -2.85557e-11 5.89102e-12 2.05278e-12 2.67463e-11 -5.83701e-12 -4.94292e-12 -2.32366e-12 8.43687e-12 0.5 6.66566e-12 8.61844e-12 -7.34984e-12 2.79078e-11 2.59512e-12 1.25686e-11 
47 1 4.65574 1.582 5.43553 0 0 0 3.16124e-12 4.49935e-12 -9.80681e-14 -2.46503e-12 -1.02651e-12 -1.9527e-12 1.13879e-12 4.67749e-12 2.26129e-12 0.5 -9.38777e-12 -1.7544e-11 -6.69341e-12 -3.9281e-12 -9.94476e-12 1.71414e-11 
824 2 1.64908 3.83184 5.79238 1 0 0 1.79595e-12 8.32535e-12 2.57679e-11 -3.33716e-12 -4.71321e-12 -1.86889e-11 -5.0133e-12 1.02656e-12 -1.64257e-12 0.5 -1.47769e-12 -2.32638e-12 -8.59406e-12 -3.20944e-14 -3.00716e-12 3.79274e-12 
172 1 3.44268 0.338821 4.72114 0 1 0 -6.73309e-12 9.57386e-12 -4.44244e-12 2.87298e-12 -7.13237e-12 8.69115e-12 -8.94623e-12 -1.83917e-12 5.27755e-12 0.5 -2.07012e-11 -2.19644e-11 -7.76903e-11 -1.83835e-11 1.92933e-11 3.2501e-11 
718 2 0.202285 2.03673 5.5128 0 1 0 -4.64537e-12 -1.36405e-11 1.00228e-11 4.30429e-12 1.38781e-11 -8.20201e-12 -6.13627e-12 -1.56503e-12 -1.62878e-12 0.5 -3.84176e-11 -1.23605e-11 -2.43551e-11 2.11583e-11 -2.21248e-11 4.42398e-11 
505 2 0.484433 3.5018 5.83385 0 0 -1 -3.32201e-12 7.37511e-12 2.12664e-11 3.84944e-12 -7.58527e-12 -1.76429e-11 9.92628e-13 -3.06089e-12 8.5741e-12 0.5 1.10461e-12 -3.76828e-11 -2.16481e-11 4.48663e-12 -1.04901e-12 3.43446e-11 
524 2 3.99535 2.7352 5.70679 0 0 0 1.52392e-11 2.93441e-11 2.43215e-11 -1.28296e-11 -2.38169e-11 -2.24758e-11 -6.04349e-12 1.74391e-11 7.57559e-12 0.5 9.95515e-13 5.02581e-12 5.75949e-12 -4.16199e-12 -4.69481e-12 5.32844e-12 
839 2 0.579387 1.61472 4.31101 1 0 0 3.90264e-12 -3.75113e-11 -7.56949e-12 -5.76848e-12 4.20832e-11 2.3331e-12 -2.12168e-12 1.15042e-12 6.96619e-12 0.5 7.36023e-13 -3.07526e-11 -1.8496e-11 2.44135e-11 -2.42202e-12 3.43779e-11 
937 2 2.44361 3.38654 4.3372 1 0 0 3.48815e-12 -1.24923e-11 1.21472e-11 -1.93564e-12 1.38244e-11 -8.91078e-12 -4.99325e-12 -2.25502e-12 6.99764e-12 0.5 1.67516e-11 1.39212e-11 -2.79586e-11 2.12013e-11 -1.8951e-12 1.0847e-11 
811 2 2.60623 3.94632 5.52498 1 0 0 -1.2281e-12 8.91457e-12 1.52223e-11 -2.28224e-12 -8.20561e-12 -1.41562e-11 -6.06706e-12 -2.30486e-12 -5.00083e-14 0.5 -1.44275e-12 -1.08426e-11 -3.19356e-12 -4.24453e-12 -6.17817e-12 1.13125e-11 
827 2 1.52088 3.18133 4.66349 1 0 0 6.00693e-12 -2.89279e-11 9.34202e-12 -4.15996e-12 2.52722e-11 -8.70908e-12 -8.78901e-12 -4.05139e-12 1.34981e-12 0.5 9.8198e-12 -9.82571e-13 -1.87475e-11 4.59531e-12 2.98653e-14 1.6e-11 
149 1 4.05563 3.93275 4.61881 0 0 0 -1.43597e-12 7.3808e-12 1.88559e-11 1.29522e-12 -2.5262e-12 -1.25112e-11 -3.79743e-12 1.72617e-12 5.62303e-12 0.5 -1.15437e-11 -1.78246e-11 4.09123e-12 3.42321e-11 -2.68612e-11 3.65692e-12 
925 2 0.623246 3.59905 4.52293 1 0 0 8.5461e-12 -2.4719e-11 4.93469e-12 -7.13107e-12 2.07468e-11 -3.06366e-12 -8.31895e-12 3.72474e-12 -1.20192e-12 0.5 8.54565e-12 -1.26374e-11 -3.24311e-12 -3.15245e-12 -2.95306e-12 6.37244e-12 
168 1 3.33522 4.60361 5.33159 0 0 0 6.6586e-13 7.65939e-12 1.88127e-11 -3.5532e-12 -7.96714e-12 -1.78329e-11 -5.47113e-12 -2.60138e-12 5.06843e-12 0.5 -1.97177e-11 -1.4537e-11 -1.57314e-11 6.98133e-12 -1.27041e-11 1.16573e-11 
928 2 1.57471 4.4088 4.9787 1 0 0 4.48858e-12 6.63453e-12 2.45059e-11 -1.93825e-12 -6.31809e-12 -1.95603e-11 -3.19075e-12 1.97997e-12 -2.75706e-12 0.5 -1.95781e-12 -5.02349e-12 -5.00643e-12 -1.91695e-12 -3.03526e-12 6.06687e-12 
148 1 3.93983 3.74234 5.7457 0 0 0 -4.42405e-12 2.86487e-11 2.76285e-11 2.38706e-12 -2.2951e-11 -2.66448e-11 -7.9128e-12 -2.29881e-12 1.26101e-11 0.5 7.20842e-12 1.58883e-11 1.83551e-11 1.1834e-11 1.2687e-11 1.14538e-11 
914 2 4.69244 4.38506 5.24423 0 0 0 -9.77153e-12 1.89699e-11 1.90756e-11 1.23024e-11 -1.28384e-11 -1.46879e-11 -1.15026e-11 -1.47137e-12 1.57628e-13 0.5 -1.994e-12 3.15192e-12 4.75059e-12 6.843e-13 1.22324e-12 2.95082e-12 
23 1 2.87773 1.11847 4.05716 0 0 0 -6.24755e-12 -8.59381e-12 -1.14917e-11 7.28577e-12 4.90319e-12 8.76918e-12 3.72098e-12 1.3478e-12 3.48817e-12 0.5 -1.11258e-11 -1.07449e-11 -1.04746e-11 -3.89207e-12 4.86778e-12 1.04855e-11 
594 2 2.05586 1.97089 4.80241 0 0 0 3.20536e-12 2.61163e-12 1.47394e-11 -1.0787e-12 -2.15788e-12 -1.38802e-11 3.33922e-12 -3.13207e-12 1.05146e-11 0.5 -8.92689e-13 -1.78155e-11 -4.58726e-12 1.52506e-11 -7.4817e-12 1.11905e-11 
539 2 3.78455 1.04074 5.46912 0 0 0 -1.72462e-12 2.11051e-11 3.67641e-12 4.64914e-12 -2.11444e-11 -3.37417e-12 -3.41443e-12 6.64936e-12 -9.85439e-13 0.5 -7.8326e-12 -5.95819e-11 -2.43217e-11 -1.33353e-11 -1.50977e-11 4.75101e-11 
730 2 0.461765 1.11568 5.16957 0 1 0 -3.58919e-12 -1.45407e-11 4.29206e-12 5.80223e-12 1.46588e-11 -9.76653e-12 -2.54001e-12 -9.79454e-13 1.00897e-11 0.5 1.77397e-11 -2.05431e-12 -1.15614e-11 4.06726e-12 -4.85786e-12 2.65499e-11 
689 2 3.51933 0.103669 5.69619 0 1 0 -4.737e-12 2.05155e-11 -5.69841e-12 4.14911e-12 -1.7237e-11 1.23039e-11 -2.19136e-12 -1.06671e-12 7.10671e-13 0.5 -2.78249e-11 -7.08223e-11 -6.9889e-11 -8.75272e-12 1.19719e-12 5.5092e-11 
450 1 0.619288 4.79871 4.46892 1 0 0 2.36387e-11 -1.74904e-11 1.87384e-11 -2.54611e-11 1.36891e-11 -1.46478e-11 -1.53548e-11 -3.98881e-12 3.1932e-12 0.5 -6.12997e-12 -1.8887e-11 -3.84044e-11 1.30104e-12 -6.18567e-12 2.16737e-11 
549 2 4.49944 0.500888 5.01435 0 0 0 -1.3747e-11 8.33152e-12 -3.55643e-12 1.49109e-11 -7.87198e-12 2.04745e-12 -2.44955e-12 2.91674e-12 -5.86818e-12 0.5 1.66045e-11 2.25737e-11 1.15344e-11 -1.03868e-11 -6.84739e-12 1.09104e-11 
591 2 1.44655 1.12499 4.40334 0 0 0 8.954e-12 -2.97989e-11 -1.66346e-11 -1.23581e-11 1.55634e-11 1.31163e-11 -4.02087e-12 5.85853e-12 2.55367e-13 0.5 -1.34204e-11 -1.56129e-11 -2.12967e-11 3.97358e-12 2.20899e-12 1.80936e-11 
243 1 1.20287 1.83742 5.34381 0 1 0 -6.85129e-12 -2.61423e-12 9.30779e-13 1.4748e-11 6.10027e-12 -1.72325e-11 -2.85201e-12 -1.20112e-12 5.56944e-12 0.5 -1.13699e-11 -1.01654e-11 -1.07457e-11 1.21017e-11 -7.48124e-13 1.50069e-11 