ITEM: TIMESTEP
199500
ITEM: NUMBER OF ATOMS
1000
ITEM: BOX BOUNDS xy xz yz pp pp pp
0.0000000000000000e+00 1.0000000000000000e+01 0.0000000000000000e+00
0.0000000000000000e+00 1.0000000000000000e+01 0.0000000000000000e+00
0.0000000000000000e+00 1.0000000000000000e+01 0.0000000000000000e+00
ITEM: ATOMS id type x y z ix iy iz vx vy vz fx fy fz omegax omegay omegaz radius c_2[1] c_2[2] c_2[3] c_2[4] c_2[5] c_2[6] 
120 1 3.15852 1.54146 0.0722925 0 1 0 -1.30596e-09 3.95957e-09 2.52065e-09 1.18264e-09 -3.35174e-09 -2.20698e-09 2.35535e-09 4.27604e-10 -1.38581e-09 0.5 -1.96469e-09 -1.04195e-08 -9.73621e-10 -1.1374e-09 -5.37767e-10 -2.51574e-09 
525 2 2.11627 1.23431 1.69988 0 0 0 -3.58745e-09 -9.22645e-09 -6.18721e-09 2.98552e-09 7.87113e-09 5.43997e-09 -9.00445e-10 6.75598e-10 2.90746e-09 0.5 1.72564e-10 -6.30418e-10 3.71513e-10 7.9479e-10 3.53685e-10 -2.1359e-10 
371 1 4.95931 3.68326 1.58374 0 0 1 2.04246e-09 -3.51637e-09 5.51242e-09 -1.74735e-09 3.12747e-09 -4.84174e-09 4.41292e-10 -3.23592e-10 2.64125e-10 0.5 -1.28206e-09 -5.33711e-09 3.43096e-09 -6.34792e-10 -6.68701e-10 6.96082e-10 
18 1 1.98117 2.69195 0.532518 0 0 0 -1.80612e-09 -1.48685e-10 6.21343e-09 1.49638e-09 1.22948e-10 -5.34039e-09 3.91087e-09 -1.30597e-09 1.25284e-09 0.5 -3.33126e-09 -7.66773e-09 -4.56406e-09 6.20326e-09 2.67447e-09 -3.43876e-09 
868 2 2.87004 3.00634 0.0289121 0 0 1 1.17294e-09 -7.83241e-10 5.32122e-09 -9.31856e-10 6.80174e-10 -4.63562e-09 3.3193e-09 -6.09793e-10 1.39929e-09 0.5 -5.18487e-09 -8.06807e-09 -1.92954e-09 6.00324e-09 -2.55984e-10 4.22222e-10 
25 1 1.41548 0.708705 1.0832 0 0 0 -1.415e-09 -3.25051e-09 -6.27484e-09 1.19936e-09 2.71889e-09 5.5658e-09 2.73827e-09 -7.15742e-10 1.7253e-09 0.5 -2.27546e-09 -1.63785e-08 -9.08241e-09 5.91616e-09 4.48723e-09 -7.299e-09 
378 1 4.61919 2.40719 0.0725816 0 0 1 3.94035e-10 2.64039e-09 4.09945e-09 -3.06563e-10 -2.18549e-09 -3.61403e-09 3.69351e-09 9.25692e-10 -7.40808e-10 0.5 -2.15629e-09 -5.67506e-09 -3.22178e-09 -4.47041e-10 -6.49648e-10 -4.29826e-09 
8 1 3.44143 2.06796 1.74253 0 0 0 -2.09707e-10 -4.1711e-09 1.64738e-09 1.46905e-10 3.62689e-09 -1.48002e-09 3.15812e-09 -8.02317e-10 6.69263e-10 0.5 1.46791e-09 6.3114e-10 1.51892e-09 1.21793e-09 -3.0794e-10 1.1061e-09 
629 2 4.07713 2.6156 1.19812 0 0 1 1.03217e-09 -2.01036e-09 5.23015e-09 -9.15055e-10 1.78985e-09 -4.5382e-09 3.5698e-09 -9.6875e-10 1.03825e-10 0.5 -5.77841e-09 -1.3805e-09 -5.06665e-09 8.91793e-10 -3.88736e-09 -2.14909e-09 
5 1 2.34651 3.9005 1.05345 0 0 0 -6.14516e-10 -7.03865e-09 7.13164e-09 5.71585e-10 6.0879e-09 -6.14896e-09 2.58792e-10 4.87276e-10 1.46195e-09 0.5 -4.63368e-10 -7.91944e-10 -1.13202e-09 9.82998e-10 2.56135e-10 -2.42483e-10 
650 2 0.459129 3.43666 1.12967 0 0 0 -4.26136e-09 -7.39601e-09 1.34258e-09 3.64656e-09 6.25863e-09 -1.02532e-09 4.22743e-09 3.89694e-10 5.07215e-11 0.5 -5.76727e-09 -6.52638e-09 -7.02379e-09 4.72703e-09 4.84517e-09 -3.1303e-09 
14 1 3.29515 3.13364 1.54473 0 0 0 2.94316e-10 -3.50951e-09 5.80899e-09 -2.61302e-10 3.1226e-09 -5.03973e-09 9.99226e-10 7.4094e-10 4.86246e-10 0.5 -5.05493e-10 -1.56517e-09 -3.02391e-09 2.37553e-09 -3.93367e-10 -1.39971e-09 
264 1 3.99643 3.86789 1.37953 0 0 0 1.95232e-09 -4.04185e-09 5.58501e-09 -1.67254e-09 3.58263e-09 -4.88614e-09 1.58647e-09 3.51757e-10 2.72501e-10 0.5 -1.49105e-09 3.18765e-11 -2.87001e-09 2.03217e-09 3.58823e-11 -5.84376e-10 
223 1 0.747634 2.47805 1.14565 0 0 1 -4.3934e-09 -7.32983e-09 1.27251e-09 3.71901e-09 6.19032e-09 -9.90049e-10 4.18716e-09 -1.65107e-09 6.18064e-10 0.5 -2.75116e-09 -7.10261e-09 -1.61581e-08 2.44407e-09 6.48544e-09 -4.10518e-09 
364 1 4.4227 4.23693 0.53984 0 0 1 8.29839e-10 1.85983e-09 7.54761e-09 -5.9506e-10 -1.54405e-09 -6.56023e-09 2.12894e-09 -2.75768e-10 9.57637e-10 0.5 1.34054e-10 7.48472e-10 2.18554e-10 3.16373e-10 1.09562e-09 -1.08123e-09 
107 1 1.66076 1.61825 0.747451 0 0 1 -3.33458e-09 -1.48873e-09 -2.80582e-09 2.81313e-09 1.18714e-09 2.55732e-09 4.24906e-09 -3.21379e-10 5.31918e-10 0.5 2.9048e-09 -3.78116e-09 -3.78651e-09 -1.29631e-10 1.52641e-11 -2.47395e-09 
529 2 2.67265 2.1996 1.06195 0 0 0 -1.15386e-10 -2.50333e-09 1.75991e-09 1.77041e-11 2.13034e-09 -1.4965e-09 3.86503e-09 1.3563e-10 1.06353e-09 0.5 -1.23899e-09 -2.88812e-09 -3.37309e-09 2.13566e-09 -1.3408e-09 7.41041e-10 
515 2 4.38643 0.435908 1.64385 0 0 0 5.17311e-10 -4.37498e-09 -2.95565e-09 -4.24753e-10 3.81144e-09 2.45042e-09 2.35781e-09 -2.3162e-10 6.07218e-10 0.5 -1.33888e-10 -2.25549e-09 -4.95852e-09 -4.39404e-09 8.27724e-11 9.15083e-10 
244 1 4.11373 0.570462 0.682724 0 1 1 6.11289e-10 1.29875e-09 -2.02275e-09 -4.98323e-10 -1.03485e-09 1.65589e-09 3.40748e-09 1.06648e-09 1.31898e-10 0.5 -1.65771e-09 -1.48471e-09 -4.79782e-09 -3.19634e-10 1.00305e-09 6.6053e-10 
20 1 2.90179 0.570818 1.78382 0 0 0 2.34035e-10 -4.06146e-09 -3.58634e-09 -2.21526e-10 3.50989e-09 3.05913e-09 1.56013e-09 -9.68738e-10 8.94442e-10 0.5 -2.56335e-09 -6.07729e-09 -9.24287e-09 2.50112e-09 4.041e-09 -5.67292e-09 
280 1 4.09077 1.582 1.14626 0 0 0 4.54527e-10 -1.2297e-09 3.55712e-11 -4.11197e-10 1.12687e-09 -1.26373e-10 3.6293e-09 -3.4816e-10 1.26009e-10 0.5 -1.15493e-09 -2.07042e-09 -6.08548e-09 6.52755e-10 3.50409e-09 1.35333e-09 
620 2 1.3946 4.37082 0.857654 0 0 1 2.83772e-10 -4.71055e-09 5.63076e-09 -8.78189e-11 4.04673e-09 -4.74799e-09 2.90062e-09 1.88053e-09 -1.51255e-09 0.5 -1.49852e-09 -7.10255e-09 -1.03504e-08 1.93525e-10 -9.54422e-10 1.05296e-09 
1000 2 3.60332 2.39824 0.339819 0 1 1 3.14683e-09 1.07569e-09 3.73633e-09 -2.60655e-09 -8.97881e-10 -3.30262e-09 2.61963e-09 -2.02981e-10 -5.96467e-11 0.5 -4.51189e-09 -7.87292e-09 -4.83963e-09 -3.83622e-10 -3.87814e-09 -1.21446e-09 
103 1 3.28431 3.68319 0.698947 0 0 1 1.91988e-10 -2.05091e-09 6.93808e-09 -1.35368e-10 1.79365e-09 -6.05029e-09 2.07466e-09 1.24366e-10 1.09932e-09 0.5 -1.71396e-09 -1.62496e-09 -2.35899e-09 1.65244e-09 1.67605e-10 -2.77647e-10 
622 2 0.930663 4.80385 0.0848388 0 0 1 1.70131e-10 -2.90143e-10 8.17438e-09 -1.52283e-11 2.31767e-10 -6.96457e-09 3.83927e-09 -3.04858e-10 -5.07697e-10 0.5 -8.79516e-11 7.62288e-10 -4.87761e-09 -4.2827e-10 -2.11451e-09 1.1024e-09 
506 2 0.74356 1.4513 1.18235 0 0 0 -4.73872e-09 -7.45142e-09 -5.39035e-09 4.03531e-09 6.30006e-09 4.79507e-09 3.28143e-09 -5.9412e-10 2.20877e-09 0.5 1.28068e-09 -9.7292e-09 -1.58748e-09 1.121e-08 2.33806e-09 -5.96247e-09 
626 2 1.28815 3.41645 0.566227 0 0 1 -4.20587e-09 -2.73099e-09 1.57628e-09 3.58714e-09 2.36233e-09 -1.24863e-09 2.14334e-09 -1.23353e-09 4.76779e-10 0.5 -5.57287e-09 -8.08903e-09 -1.51664e-09 4.48548e-09 3.65537e-09 -2.36842e-09 
553 2 0.744043 0.0774004 1.56305 0 0 0 -9.03937e-10 -5.57516e-09 -8.1125e-09 7.38185e-10 4.73358e-09 7.19853e-09 3.2298e-10 -1.70776e-09 2.68757e-09 0.5 1.02091e-09 4.6542e-10 8.16867e-10 1.59356e-10 3.71674e-10 -1.28775e-09 
135 1 1.54769 3.20472 1.67709 0 0 0 1.52171e-09 -7.06145e-09 7.85885e-10 -1.359e-09 6.03546e-09 -5.82824e-10 2.31315e-09 -3.20681e-09 -8.06513e-10 0.5 3.63334e-10 -1.45397e-08 -2.91476e-09 3.64408e-09 1.48417e-09 -8.77498e-11 
624 2 4.32461 4.92098 1.47156 0 0 1 3.11591e-09 -1.05516e-09 5.70822e-09 -2.54584e-09 1.0594e-09 -5.01681e-09 1.49798e-09 -4.69437e-11 9.35868e-10 0.5 1.41478e-09 1.1144e-09 -3.63636e-09 1.43009e-09 -2.62126e-09 -3.03839e-09 
256 1 4.58719 1.36786 0.305 0 0 0 7.37668e-10 1.89322e-09 -5.93981e-10 -6.15156e-10 -1.49164e-09 4.50376e-10 3.58419e-09 6.89098e-10 -1.04835e-09 0.5 -8.64946e-10 -3.27893e-09 -4.2052e-09 -2.06164e-09 3.15992e-10 -4.73736e-09 
260 1 3.31854 0.0700552 1.02517 0 0 0 1.45013e-09 -1.71217e-09 -4.47229e-09 -1.17781e-09 1.54138e-09 3.83237e-09 1.50965e-09 1.76851e-09 1.06907e-10 0.5 -1.9281e-09 -5.98633e-09 -6.74109e-09 -1.17138e-10 1.02531e-09 -4.08609e-09 
616 2 3.19106 4.4806 1.50664 0 0 1 1.47098e-09 -5.73292e-09 5.43575e-09 -1.30434e-09 4.98696e-09 -4.77651e-09 -3.21733e-10 6.33571e-10 1.00981e-09 0.5 -2.6849e-09 -1.08022e-09 -1.2061e-09 1.62896e-09 2.68351e-10 -6.99689e-10 
106 1 1.74522 2.23558 1.52961 0 0 1 -6.90424e-11 -7.51126e-09 1.59668e-09 -2.52346e-11 6.41278e-09 -1.24996e-09 3.01202e-09 -1.10095e-09 -6.91457e-10 0.5 2.00679e-09 -7.69578e-09 -2.4209e-09 2.35255e-09 2.21374e-09 -2.98517e-09 
157 1 1.3897 4.17879 1.83903 0 0 0 2.11606e-09 -7.67292e-09 5.06216e-09 -1.80416e-09 6.58298e-09 -4.26434e-09 2.91204e-09 4.71819e-10 3.80741e-10 0.5 -3.17277e-09 -1.09447e-08 -1.15261e-08 2.54106e-09 3.74299e-09 -2.18483e-09 
516 2 2.34691 0.89043 0.68796 0 0 0 -7.88692e-10 8.46503e-10 -1.82594e-09 6.37695e-10 -8.58853e-10 1.6231e-09 3.67052e-10 -1.00433e-09 1.53307e-10 0.5 6.49999e-10 -3.19635e-09 -9.15661e-10 7.56083e-10 1.95548e-09 -2.89946e-09 
183 1 0.415258 4.58221 1.00381 0 0 0 7.65499e-10 -6.67862e-09 1.18437e-08 -4.95844e-10 5.73857e-09 -1.00258e-08 5.70651e-09 2.98275e-09 3.29755e-10 0.5 9.0821e-11 -3.64916e-10 6.58282e-10 5.19059e-10 -8.43928e-10 6.32433e-10 
625 2 0.399951 3.91216 0.210014 0 0 1 -1.40266e-09 2.49934e-10 5.83908e-09 1.32612e-09 -2.35615e-10 -4.86174e-09 5.46828e-09 -4.92179e-10 -2.38766e-09 0.5 -2.22867e-10 8.08612e-11 -1.02479e-09 -2.34858e-10 -4.28744e-10 9.93015e-10 
91 1 2.22066 4.71676 1.69645 0 0 1 1.8206e-09 -6.8839e-09 6.5674e-09 -1.59186e-09 5.95078e-09 -5.64888e-09 1.36941e-10 2.23008e-10 2.64409e-10 0.5 -2.97245e-09 -1.83638e-09 -8.21055e-10 -6.18225e-10 5.2876e-10 -6.89064e-10 
257 1 4.94043 2.69123 1.70827 0 0 0 1.14808e-09 -3.64443e-09 4.36383e-09 -1.00286e-09 3.2463e-09 -3.82992e-09 1.46504e-09 1.79351e-11 -5.47516e-10 0.5 -6.58257e-09 -4.56567e-09 -1.13776e-08 4.99083e-10 -3.82118e-09 -2.20963e-09 
4 1 3.72174 1.12777 1.95711 0 0 0 3.74689e-10 -4.81629e-09 -2.00807e-09 -3.27745e-10 4.17842e-09 1.63759e-09 2.36024e-09 -1.86015e-10 2.30292e-10 0.5 -8.5486e-10 -1.48079e-09 -8.24509e-09 -1.46562e-09 1.28466e-09 4.02683e-09 
609 2 1.99624 4.76004 0.136921 0 0 1 4.86624e-10 -2.58052e-09 7.92967e-09 -3.35689e-10 2.23858e-09 -6.82622e-09 1.18551e-09 -7.74627e-10 1.28379e-09 0.5 -1.30167e-08 -4.0053e-08 -5.4999e-09 1.1347e-08 2.62411e-09 -8.57774e-09 
117 1 3.12746 1.31374 1.15363 0 1 0 7.56681e-10 -2.38659e-09 -1.42513e-09 -6.7261e-10 2.06339e-09 1.18653e-09 3.06291e-09 -7.21681e-11 2.37864e-10 0.5 5.1716e-10 -2.15279e-09 -4.52553e-10 1.33639e-09 -7.45261e-12 1.6389e-09 
511 2 1.08079 2.25054 0.230642 0 0 0 -1.64278e-09 2.32281e-09 -1.30529e-10 1.38987e-09 -2.0943e-09 2.06338e-10 5.30924e-09 -1.19121e-09 -1.04205e-09 0.5 -2.11065e-09 -6.38296e-09 -1.44706e-08 1.35456e-09 6.11231e-09 -4.31217e-09 
911 2 0.492018 0.563612 0.697612 1 0 0 -1.12267e-09 -4.2082e-09 -7.68682e-09 9.48907e-10 3.48382e-09 6.7979e-09 5.95942e-10 -1.08434e-09 3.2923e-10 0.5 1.68431e-09 -7.30054e-09 -3.68433e-11 -7.25512e-10 5.80515e-10 -2.89421e-09 
668 2 0.00216515 3.81975 1.93315 0 0 0 -1.02239e-09 -1.31745e-08 5.75574e-09 8.00748e-10 1.12098e-08 -4.8439e-09 1.36229e-09 1.04452e-09 -1.1803e-09 0.5 -1.04184e-08 -2.51631e-08 -1.06048e-08 7.62637e-09 -2.98556e-09 -2.26165e-10 
90 1 2.93989 4.58015 0.420403 0 0 1 4.33751e-10 -1.51605e-09 8.39663e-09 -2.51523e-10 1.35795e-09 -7.3357e-09 1.2295e-09 -3.10531e-10 1.46575e-09 0.5 -3.07379e-09 2.57667e-09 -8.13234e-10 5.62236e-09 2.9252e-09 9.67612e-10 
734 2 4.13742 3.24508 0.37494 0 1 1 1.82442e-09 1.73207e-09 7.34956e-09 -1.53603e-09 -1.42548e-09 -6.41092e-09 3.37624e-09 4.188e-10 4.99061e-10 0.5 -2.81265e-09 -1.88259e-09 -8.71135e-11 1.89992e-09 9.88584e-10 -1.54801e-09 
672 2 0.0675425 1.98557 1.68985 0 0 0 -5.59961e-09 -1.05617e-08 -3.25538e-09 4.78512e-09 8.99305e-09 2.9576e-09 3.47428e-09 -6.57199e-10 1.24842e-09 0.5 -1.18279e-08 -2.4619e-08 -9.13321e-09 9.65945e-09 6.46616e-09 -7.47489e-11 
759 2 4.95866 2.03867 0.950748 0 0 0 9.75897e-10 -1.25226e-09 2.29758e-09 -8.97155e-10 1.15888e-09 -2.04463e-09 3.10661e-09 -5.30831e-10 -8.5612e-10 0.5 -5.98609e-10 -8.27795e-09 -3.98633e-09 -1.2418e-09 -7.22593e-10 -9.62869e-10 
21 1 1.84566 0.35675 2.43115 0 0 0 -1.57884e-09 -7.4516e-09 -6.02312e-09 1.37715e-09 6.40712e-09 5.25081e-09 1.46781e-09 -1.31688e-09 2.27225e-09 0.5 9.54231e-12 -3.7666e-10 -1.06254e-10 4.56016e-10 1.85252e-10 -6.36165e-10 
682 2 2.73058 4.0836 2.7725 0 0 0 1.35882e-09 -4.76879e-09 5.06018e-09 -1.18458e-09 4.12859e-09 -4.39415e-09 -9.3238e-11 2.73312e-10 7.00258e-10 0.5 -7.26734e-09 -4.36361e-09 -7.83862e-10 4.8538e-09 2.96662e-09 5.44212e-09 
907 2 0.982097 4.62503 2.63573 1 0 0 8.59724e-10 -1.09015e-08 6.23171e-09 -8.039e-10 9.24689e-09 -5.2728e-09 4.97556e-10 -1.05032e-09 6.18944e-10 0.5 -7.89847e-09 -9.37606e-09 -1.08475e-08 3.86871e-09 4.54544e-09 -3.32436e-09 
144 1 1.68507 3.60062 2.81087 0 0 0 1.5947e-09 -9.33157e-09 1.13547e-09 -1.43728e-09 7.97316e-09 -9.5459e-10 -2.6752e-10 7.41178e-10 2.3101e-10 0.5 -5.40511e-09 -1.35312e-09 -2.12936e-09 3.15859e-09 -1.34177e-09 6.9267e-11 
675 2 2.83107 4.7385 3.54541 0 0 0 -1.95859e-10 -3.07364e-09 5.08508e-09 9.95811e-12 2.74015e-09 -4.4319e-09 -1.20279e-09 9.05033e-10 -1.17281e-10 0.5 3.83875e-10 1.6938e-09 3.41277e-09 1.65e-09 -7.33999e-10 2.95595e-09 
502 2 4.38953 1.31124 3.26921 0 0 0 -7.45268e-10 -3.27361e-09 -1.63057e-09 5.13775e-10 2.90932e-09 1.32274e-09 5.47012e-10 5.25816e-11 -2.84465e-10 0.5 -5.56884e-09 -2.74252e-09 -3.60411e-09 -2.81476e-09 2.55069e-09 5.82845e-09 
27 1 2.60908 0.300739 3.21066 0 0 0 -4.32746e-10 -5.98699e-09 -4.23208e-09 2.7928e-10 5.12394e-09 3.62387e-09 3.24751e-11 -8.7807e-10 1.14776e-09 0.5 -5.05361e-09 -6.45743e-09 -1.19967e-08 2.60913e-09 3.94147e-09 1.06344e-09 
965 2 1.35576 3.65812 3.79896 1 0 0 2.36912e-09 -1.12661e-08 3.5037e-10 -2.08094e-09 9.56588e-09 -2.43791e-10 -6.56052e-10 1.87719e-09 -1.48132e-09 0.5 -2.11605e-09 -6.48394e-09 -7.02766e-09 3.77463e-09 -2.46304e-09 4.40053e-09 
61 1 1.66165 0.448609 3.51352 0 0 0 -1.95488e-09 -9.65804e-09 -7.88175e-09 1.60609e-09 8.18391e-09 6.89413e-09 3.4101e-10 -2.84981e-10 1.82425e-09 0.5 -3.54382e-09 -1.61459e-10 -7.17501e-10 9.00372e-10 2.26823e-09 -2.56879e-10 
680 2 1.1901 2.78151 3.34693 0 0 0 -2.29866e-09 -1.02252e-08 7.32829e-11 1.89398e-09 8.67859e-09 -3.85684e-12 4.08922e-10 9.87485e-10 -2.45192e-10 0.5 2.06869e-10 -2.17576e-09 -3.23766e-09 5.27301e-10 1.31504e-09 9.43836e-10 
251 1 4.71421 3.03382 3.89556 0 0 0 2.57142e-09 -4.25487e-09 4.27557e-09 -2.34465e-09 3.76629e-09 -3.76078e-09 1.87365e-09 1.37201e-09 -2.03223e-09 0.5 -6.4651e-09 -1.23777e-09 2.36892e-10 -4.41185e-09 2.02144e-09 3.79116e-09 
517 2 4.0089 2.89361 2.21821 0 0 0 1.60908e-09 -3.86592e-09 4.11196e-09 -1.37917e-09 3.47158e-09 -3.59213e-09 7.86417e-10 6.57701e-11 -2.7009e-10 0.5 -8.88838e-11 -4.96367e-11 -2.23965e-09 -4.30523e-11 -4.88678e-10 1.10851e-09 
6 1 3.42179 1.77987 2.73262 0 0 0 -9.72608e-10 -3.84312e-09 2.03321e-09 7.39894e-10 3.33937e-09 -1.81846e-09 2.21676e-09 -2.59345e-10 1.4979e-09 0.5 -6.62994e-09 1.63505e-09 1.04465e-09 2.89407e-09 3.08373e-09 2.10667e-09 
519 2 4.43345 3.61408 3.03093 0 0 0 9.2573e-10 -2.47139e-09 6.18844e-09 -8.36961e-10 2.26975e-09 -5.42056e-09 7.48181e-10 4.86467e-10 -2.50514e-10 0.5 4.18959e-10 3.55392e-09 2.4965e-09 -2.45885e-09 -1.02818e-09 1.88133e-09 
509 2 1.93621 1.51608 3.62332 0 0 0 1.79213e-09 -8.92493e-09 -6.62173e-09 -1.64375e-09 7.54242e-09 5.81892e-09 -5.33987e-10 2.93378e-09 -3.92238e-11 0.5 8.43216e-10 -9.66931e-10 -7.59559e-09 -9.62786e-10 1.6502e-09 2.15428e-09 
142 1 1.03537 1.94217 2.17003 0 0 0 -3.40986e-09 -8.47721e-09 -2.5419e-09 2.85189e-09 7.20103e-09 2.29704e-09 3.03609e-09 4.85529e-11 5.98451e-10 0.5 -2.16994e-10 -1.64161e-09 -1.85198e-09 2.63502e-09 -1.12658e-09 2.2553e-09 
941 2 0.192203 2.2584 2.77344 1 0 0 -4.67256e-09 -1.22555e-08 -2.06447e-09 3.95876e-09 1.04617e-08 1.89582e-09 1.84654e-09 2.4974e-10 5.21361e-10 0.5 -1.50632e-09 -4.95368e-09 -6.84563e-09 2.59459e-10 8.6759e-10 4.99841e-10 
919 2 0.650389 4.31552 3.53385 1 0 0 -7.33971e-11 -1.20206e-08 4.9695e-09 6.74159e-12 1.02267e-08 -4.17891e-09 1.60298e-09 6.70612e-10 -1.91075e-09 0.5 -4.91763e-09 -8.63526e-09 -4.96519e-09 4.84555e-09 -1.03999e-10 3.07917e-09 
95 1 3.53903 3.77814 2.2694 0 0 1 1.98722e-09 -3.7322e-09 5.43827e-09 -1.74755e-09 3.33498e-09 -4.76234e-09 1.0761e-10 8.22246e-11 3.11022e-10 0.5 -3.22199e-09 -1.06795e-09 -6.1082e-09 7.51525e-10 1.90453e-09 -8.13531e-10 
458 1 1.5569 4.7536 3.86468 1 0 0 5.28994e-10 -8.28632e-09 7.07594e-09 -5.51402e-10 7.02138e-09 -6.07821e-09 -1.48982e-09 3.51957e-10 5.41118e-10 0.5 -3.39508e-09 -2.11846e-09 -2.0039e-09 2.8152e-09 -5.82456e-10 -7.79814e-11 
41 1 1.14045 0.960462 2.01108 0 0 0 -2.40312e-09 -7.90015e-09 -5.30375e-09 2.00037e-09 6.70113e-09 4.70032e-09 2.68077e-09 -3.98312e-10 1.40866e-09 0.5 -2.62048e-09 -2.32011e-09 -6.30285e-09 1.57474e-09 3.87944e-09 -2.10143e-09 
814 2 0.27112 1.22753 3.40348 1 0 0 -7.4589e-10 -1.01127e-08 -4.4526e-09 5.45822e-10 8.5881e-09 3.99322e-09 1.46659e-09 -8.97361e-10 2.71705e-09 0.5 -5.18656e-09 -5.41981e-09 -6.35641e-09 2.11927e-09 4.61899e-09 6.75702e-09 
130 1 1.70518 2.6475 2.50033 0 0 0 -2.56406e-09 -8.92712e-09 -2.94435e-10 2.15794e-09 7.61125e-09 3.20004e-10 2.43878e-09 -9.76291e-10 -1.07847e-09 0.5 -1.49892e-09 -6.73518e-09 -5.9546e-09 3.44097e-09 2.22297e-09 4.36447e-09 
12 1 2.70258 1.09575 2.61132 0 0 0 9.87426e-10 -5.0521e-09 -2.77383e-09 -9.01806e-10 4.31748e-09 2.37382e-09 1.49654e-09 -1.79169e-09 1.59213e-09 0.5 -8.26401e-09 -9.82574e-09 -6.81979e-09 5.52986e-09 3.13727e-09 3.05978e-10 
512 2 3.18635 2.03167 3.78747 0 0 0 7.47124e-10 -1.25325e-09 2.68612e-09 -7.91518e-10 1.05559e-09 -2.27834e-09 1.78044e-09 -4.18778e-10 1.21664e-09 0.5 -1.8923e-09 -3.65201e-09 -3.27803e-09 7.52444e-10 -7.71529e-10 3.89948e-09 
151 1 2.47925 3.30049 3.34132 0 0 0 1.16054e-09 -5.63629e-09 3.78135e-09 -1.00599e-09 4.90062e-09 -3.263e-09 -6.28145e-10 -5.90869e-10 3.96635e-10 0.5 -2.44801e-09 -8.79061e-09 -8.30118e-09 2.20405e-09 1.83839e-09 2.28129e-09 
667 2 0.284319 1.3208 2.4071 0 0 0 -2.40771e-09 -1.04407e-08 -4.40261e-09 2.01105e-09 8.88427e-09 3.95258e-09 1.75495e-09 5.36638e-10 1.58538e-09 0.5 -3.04267e-09 -1.40412e-08 -1.08323e-08 8.09419e-10 -9.50229e-11 1.40116e-09 
38 1 3.79042 0.738149 3.87284 0 0 0 2.45937e-10 -7.08586e-10 -2.20181e-09 -3.83067e-10 6.59095e-10 1.8239e-09 -1.85884e-09 -5.33906e-10 1.6451e-10 0.5 -5.18995e-09 -1.63502e-09 -1.31823e-08 -5.88424e-09 2.97544e-09 9.57588e-09 
936 2 0.319906 3.36948 3.50683 1 0 0 -4.33418e-09 -1.03896e-08 1.94528e-09 3.65634e-09 8.82215e-09 -1.55029e-09 1.75557e-09 -1.47115e-09 -1.05827e-09 0.5 4.4055e-10 -1.0496e-08 -4.29596e-09 1.6075e-10 4.96346e-09 6.73212e-09 
531 2 4.80013 0.808197 2.48028 0 0 0 -2.04115e-09 -5.66149e-09 -1.46495e-09 1.67613e-09 4.99122e-09 1.17681e-09 1.72132e-10 -2.48081e-10 -9.1196e-10 0.5 -1.90106e-09 1.62684e-10 -3.92188e-09 -2.33182e-09 -3.70307e-09 -1.91775e-09 
527 2 4.03024 4.31517 3.61908 0 0 0 1.68499e-09 -2.71497e-09 7.08077e-09 -1.55152e-09 2.43741e-09 -6.17631e-09 -9.29103e-10 -1.77435e-11 3.20542e-10 0.5 -3.6156e-10 6.70277e-10 2.77764e-09 -1.87577e-09 -1.08781e-09 3.66561e-09 
383 1 4.36293 4.34454 2.28892 0 0 1 7.10999e-10 -1.86977e-09 5.27858e-09 -5.96925e-10 1.75548e-09 -4.66356e-09 2.93761e-10 -5.43839e-10 3.70327e-11 0.5 -3.30723e-09 -6.48058e-10 1.80546e-09 2.92959e-09 -8.14215e-10 -1.48984e-09 
992 2 0.695682 0.439322 3.85269 1 1 0 -3.80357e-10 -1.07326e-08 -6.33359e-09 2.38397e-10 9.08265e-09 5.57515e-09 4.02298e-10 1.62795e-09 1.024e-09 0.5 -4.26088e-09 -1.061e-08 -2.40564e-09 3.10832e-09 -1.50647e-09 5.53535e-09 
521 2 4.93615 4.52796 3.25037 0 0 0 9.9411e-10 -2.02423e-09 5.78711e-09 -9.491e-10 1.82714e-09 -5.08772e-09 -6.74193e-10 4.02172e-10 3.20101e-10 0.5 8.72091e-10 -2.74919e-09 -2.94266e-09 -3.19657e-11 -4.8532e-10 3.49363e-09 
136 1 1.88498 1.67143 2.62265 0 0 0 -2.18895e-09 -9.5057e-09 -5.44624e-09 1.79887e-09 8.10364e-09 4.81337e-09 1.05186e-09 1.51248e-09 1.13593e-09 0.5 -9.56271e-09 -9.8097e-09 -6.38805e-09 6.84406e-09 -9.20079e-10 2.88195e-09 
540 2 4.51129 0.178592 3.415 0 0 0 -6.58311e-10 -3.40292e-09 -2.6349e-09 4.48087e-10 3.06255e-09 2.15022e-09 -1.51314e-09 8.38204e-10 -1.11043e-09 0.5 2.94196e-09 1.87342e-09 4.83648e-10 -1.77593e-09 -1.21922e-09 1.74203e-09 
510 2 3.85504 2.56842 3.17077 0 0 0 -1.26751e-09 -4.14276e-09 3.01863e-09 9.60834e-10 3.63749e-09 -2.70186e-09 3.68665e-10 -2.17163e-10 6.36374e-11 0.5 2.62666e-09 3.87259e-09 -2.42116e-09 7.36754e-10 4.16119e-10 3.28781e-09 
19 1 4.3655 1.84749 2.40882 0 0 0 -1.59992e-09 -4.81559e-10 9.01205e-10 1.23788e-09 4.89775e-10 -8.80359e-10 8.93472e-10 2.46892e-10 2.18368e-10 0.5 -9.62992e-09 -3.95519e-10 -5.05303e-09 5.07936e-10 4.29035e-09 9.3248e-10 
543 2 1.07326 1.78713 3.19513 0 0 0 -4.35458e-10 -9.96546e-09 -2.86574e-09 2.72809e-10 8.44384e-09 2.5866e-09 2.11877e-09 1.92384e-09 7.23771e-10 0.5 -8.54818e-10 -1.2732e-09 -4.93064e-10 -1.85037e-09 1.54924e-09 9.10017e-10 
773 2 4.78774 2.22773 3.30763 0 0 0 -8.58868e-10 -3.40006e-09 2.57304e-09 6.2239e-10 3.04415e-09 -2.3085e-09 8.66392e-10 9.04359e-10 -7.06162e-10 0.5 4.83852e-10 -7.67112e-09 -1.47604e-08 -1.3297e-09 2.92413e-09 1.50255e-08 
555 2 2.23907 2.5056 3.89852 0 0 0 6.63249e-10 -4.91066e-09 4.60345e-09 -7.01277e-10 4.31157e-09 -3.96848e-09 -6.22576e-10 -1.63155e-10 5.57335e-10 0.5 2.15863e-09 2.62662e-09 2.68446e-09 1.19668e-09 9.2382e-11 2.96797e-09 
429 1 0.306925 2.40106 3.75655 1 0 0 -3.45254e-09 -1.13451e-08 -2.33749e-09 2.89453e-09 9.64912e-09 2.13874e-09 1.14646e-09 4.74323e-10 2.07458e-09 0.5 -2.00614e-09 -1.6985e-08 -9.70884e-09 3.94452e-09 -2.56954e-09 9.39759e-09 
316 1 0.889712 0.512877 2.86992 1 0 0 -2.97277e-09 -1.04778e-08 -6.85011e-09 2.4777e-09 8.89479e-09 6.01765e-09 1.20966e-09 1.92121e-10 1.64608e-09 0.5 8.34318e-10 -2.04514e-09 -1.58885e-09 6.97676e-10 5.03723e-10 2.02581e-09 
503 2 3.61689 0.768796 2.88623 0 0 0 5.26451e-10 -4.87259e-09 -2.16419e-09 -4.89617e-10 4.22411e-09 1.76362e-09 -2.49684e-10 -4.05756e-10 9.02144e-10 0.5 -2.02435e-09 1.82526e-10 -1.0287e-08 5.09688e-10 -9.55138e-10 2.91356e-09 
896 2 0.702247 3.66501 2.63024 1 0 0 1.00836e-09 -1.09335e-08 4.21809e-09 -9.50405e-10 9.29618e-09 -3.50835e-09 1.28236e-09 5.90232e-10 -5.66236e-10 0.5 -7.23253e-09 -3.52738e-09 -1.10169e-08 1.97421e-09 -3.91227e-09 3.25816e-09 
690 2 1.93672 4.67095 2.92999 0 0 0 3.76588e-10 -6.65016e-09 7.1402e-09 -3.95773e-10 5.7049e-09 -6.12174e-09 -1.40439e-10 4.23461e-10 1.80557e-09 0.5 -7.71971e-09 -3.86772e-09 -1.61732e-09 5.14549e-09 -1.00466e-10 -8.55556e-10 
641 2 3.45948 3.5005 3.22725 0 0 0 8.45953e-10 -2.82912e-09 5.56654e-09 -7.66331e-10 2.54013e-09 -4.88406e-09 -5.80485e-10 -1.3274e-10 7.10265e-10 0.5 -8.98311e-10 9.75e-10 -4.94041e-09 1.39111e-09 -2.58157e-09 6.12784e-09 
528 2 3.34275 4.80215 2.44243 0 0 0 1.70051e-09 -5.02587e-09 5.13258e-09 -1.52938e-09 4.37057e-09 -4.50852e-09 -9.46518e-11 1.74542e-10 3.13574e-10 0.5 -5.80595e-10 -1.08235e-09 -2.31793e-09 -1.06029e-09 -4.48214e-10 -6.43442e-10 
225 1 2.66658 2.37982 2.99794 0 0 1 -2.22923e-09 -6.00146e-09 3.14949e-09 1.83604e-09 5.18778e-09 -2.69029e-09 -4.95457e-10 1.22253e-09 5.8799e-10 0.5 -2.50411e-09 -6.39054e-09 -6.59346e-10 3.85996e-09 -2.06583e-09 -6.49385e-12 
119 1 0.614476 2.84343 2.06694 0 0 0 -4.70942e-09 -8.62629e-09 1.74317e-09 3.97946e-09 7.3266e-09 -1.4182e-09 2.91113e-09 3.34294e-10 -8.15805e-11 0.5 1.35383e-09 -4.28434e-09 -7.48034e-09 1.49316e-09 2.87744e-09 2.79688e-10 
94 1 2.46189 3.50067 2.00487 0 0 1 -3.39543e-10 -6.41446e-09 6.84142e-09 2.65246e-10 5.51519e-09 -5.89538e-09 1.12428e-09 -2.81996e-10 3.70238e-10 0.5 1.56708e-09 2.2009e-09 7.95865e-10 1.98707e-09 1.6164e-09 2.56286e-09 
522 2 2.58373 2.50801 2.00903 0 0 0 -1.01462e-09 -6.52661e-09 2.98642e-09 8.36808e-10 5.6091e-09 -2.55903e-09 2.24543e-09 -8.25697e-10 8.87829e-10 0.5 5.52779e-10 5.86941e-10 -2.54775e-09 2.04837e-09 2.01854e-09 7.37119e-10 
200 1 2.46549 0.208501 4.19599 0 1 0 2.0675e-09 -3.58133e-09 -3.64012e-09 -1.96283e-09 3.0337e-09 3.09988e-09 -2.18409e-09 -1.52828e-09 3.60574e-09 0.5 -5.18133e-09 -2.80007e-09 -9.36375e-09 1.60822e-09 3.3535e-09 2.49603e-09 
114 1 4.70709 1.00384 4.17137 0 0 0 -9.46559e-11 -8.3284e-10 -1.03627e-09 -4.77913e-11 8.29542e-10 8.22865e-10 -7.77702e-10 -5.20682e-10 -8.39076e-10 0.5 -3.32346e-09 4.0509e-11 -8.72739e-10 -4.13665e-10 -2.14465e-09 -1.56768e-10 
820 2 1.30996 2.29325 4.21136 1 0 0 4.95623e-11 -7.72335e-09 1.16199e-09 -1.13943e-10 6.54755e-09 -9.16676e-10 -1.35359e-09 -9.10321e-10 2.18239e-09 0.5 9.45275e-10 2.20924e-09 -2.21618e-09 6.90259e-09 1.63136e-09 3.72843e-09 
47 1 4.65574 1.582 5.43553 0 0 0 2.08561e-09 6.38728e-10 6.74905e-10 -1.99531e-09 -4.12962e-10 -6.56133e-10 2.64136e-10 1.32487e-09 5.93236e-10 0.5 -3.50367e-09 -5.88308e-09 -2.39886e-09 -1.44275e-09 -2.89778e-09 4.91198e-09 
824 2 1.64908 3.83184 5.79238 1 0 0 7.37521e-10 2.24647e-09 7.22142e-09 -6.48915e-10 -1.91578e-09 -6.15615e-09 -1.80757e-09 2.10703e-10 -5.97832e-10 0.5 -1.15145e-09 -9.3464e-10 -4.08872e-09 -2.23722e-10 -3.57982e-11 1.45512e-09 
172 1 3.44268 0.338821 4.72114 0 1 0 -4.13651e-10 2.83311e-09 -8.00082e-10 1.3696e-10 -2.42419e-09 5.57856e-10 -2.51037e-09 -6.74338e-10 1.19864e-09 0.5 -4.72725e-09 -4.96469e-09 -1.72116e-08 -4.15818e-09 4.19034e-09 7.17525e-09 
718 2 0.202285 2.03673 5.5128 0 1 0 -8.63047e-10 -3.17861e-09 1.97897e-09 6.14356e-10 2.62342e-09 -1.58475e-09 -1.88149e-09 -8.2228e-10 -2.80315e-10 0.5 -8.20343e-09 -1.91701e-09 -5.38336e-09 3.95128e-09 -4.16733e-09 1.12293e-08 
505 2 0.484433 3.5018 5.83385 0 0 -1 -8.69561e-10 2.8934e-09 5.57215e-09 7.34094e-10 -2.65481e-09 -4.70178e-09 3.97543e-10 -9.54755e-10 2.52328e-09 0.5 -1.30701e-11 -1.42508e-08 -7.36827e-09 8.76865e-10 -2.03596e-10 1.18474e-08 
524 2 3.99535 2.7352 5.70679 0 0 0 5.86697e-09 7.4452e-09 8.14303e-09 -5.29716e-09 -6.24871e-09 -7.18436e-09 -1.93211e-09 5.48575e-09 2.70997e-09 0.5 1.49501e-10 1.31612e-09 1.55823e-09 -1.12549e-09 -1.26801e-09 1.35315e-09 
839 2 0.579387 1.61472 4.31101 1 0 0 1.61015e-09 -1.02912e-08 -3.32227e-09 -1.45188e-09 8.7871e-09 2.98165e-09 -6.85324e-10 5.20731e-11 2.16679e-09 0.5 -7.35395e-10 -1.09653e-08 -6.55956e-09 7.64422e-09 -6.3836e-10 1.1673e-08 
937 2 2.44361 3.38654 4.3372 1 0 0 1.39649e-09 -4.09327e-09 3.56901e-09 -1.26174e-09 3.59636e-09 -3.08329e-09 -1.45856e-09 -8.9178e-10 1.79021e-09 0.5 3.24326e-09 3.4945e-09 -7.44834e-09 4.97072e-09 3.91605e-10 3.50497e-09 
811 2 2.60623 3.94632 5.52498 1 0 0 -6.63246e-12 2.15802e-09 4.55284e-09 -2.95767e-11 -1.7775e-09 -3.9068e-09 -1.76301e-09 -9.70007e-10 1.13749e-11 0.5 -7.83297e-10 -3.21013e-09 -1.08514e-09 -1.33193e-09 -1.32866e-09 3.39393e-09 
827 2 1.52088 3.18133 4.66349 1 0 0 1.73279e-09 -7.78714e-09 2.26472e-09 -1.49063e-09 6.60427e-09 -1.8759e-09 -2.51847e-09 -1.25285e-09 7.31823e-11 0.5 1.93884e-09 -5.08735e-10 -6.0948e-09 6.20042e-10 5.26034e-10 4.91691e-09 
149 1 4.05563 3.93275 4.61881 0 0 0 3.02628e-10 1.23188e-09 6.03699e-09 -3.84772e-10 -9.50615e-10 -5.27885e-09 -9.24104e-10 3.77024e-10 1.51927e-09 0.5 -3.09476e-09 -2.83381e-09 2.09175e-09 9.03555e-09 -5.64605e-09 2.58416e-09 
925 2 0.623246 3.59905 4.52293 1 0 0 2.66321e-09 -6.16109e-09 9.57772e-10 -2.32815e-09 5.13217e-09 -7.45996e-10 -2.31019e-09 9.75264e-10 -4.02933e-10 0.5 2.21075e-09 -3.8315e-09 -1.05641e-09 -9.32606e-10 -7.02359e-10 1.96651e-09 
168 1 3.33522 4.60361 5.33159 0 0 0 5.98317e-10 1.91255e-09 6.21687e-09 -5.82632e-10 -1.5602e-09 -5.43945e-09 -1.52273e-09 -9.0905e-10 1.40289e-09 0.5 -4.77243e-09 -3.77196e-09 -3.96168e-09 1.47116e-09 -2.56842e-09 3.19103e-09 
928 2 1.57471 4.4088 4.9787 1 0 0 1.26428e-09 1.50777e-09 6.71726e-09 -1.0935e-09 -1.24573e-09 -5.69927e-09 -1.11598e-09 3.61154e-10 -1.05626e-09 0.5 -1.98753e-09 -2.48872e-09 -2.57135e-09 -1.23556e-09 1.49081e-10 2.25587e-09 
148 1 3.93983 3.74234 5.7457 0 0 0 -5.70848e-10 7.20499e-09 8.64661e-09 3.85079e-10 -6.04086e-09 -7.53092e-09 -2.10022e-09 -7.32203e-10 3.77966e-09 0.5 2.15283e-09 4.28455e-09 5.27007e-09 3.15624e-09 3.63855e-09 3.15385e-09 
914 2 4.69244 4.38506 5.24423 0 0 0 -2.27599e-09 4.25918e-09 6.53082e-09 1.85627e-09 -3.47069e-09 -5.7869e-09 -3.17423e-09 -7.6876e-10 -2.41574e-10 0.5 -1.43961e-10 1.1218e-09 1.94226e-09 3.5492e-10 6.62539e-10 1.22823e-09 
23 1 2.87773 1.11847 4.05716 0 0 0 -5.85329e-10 -2.46354e-09 -3.15535e-09 3.24199e-10 2.09771e-09 2.71937e-09 8.83991e-10 -5.07634e-11 9.1194e-10 0.5 -4.05257e-09 -3.85231e-09 -3.24398e-09 -1.40002e-09 2.02953e-09 3.05212e-09 
594 2 2.05586 1.97089 4.80241 0 0 0 1.58856e-09 9.58781e-10 3.47939e-09 -1.4685e-09 -8.84878e-10 -2.86817e-09 8.83422e-10 -1.04657e-09 2.96762e-09 0.5 4.17304e-11 -5.07464e-09 -1.08244e-09 3.97088e-09 -1.9286e-09 3.0942e-09 
539 2 3.78455 1.04074 5.46912 0 0 0 7.16646e-10 5.75596e-09 1.86176e-09 -8.00761e-10 -4.88663e-09 -1.72043e-09 -1.015e-09 1.85365e-09 -4.04007e-10 0.5 -1.74392e-09 -1.67269e-08 -7.26497e-09 -5.30996e-09 -4.55181e-09 1.41036e-08 
730 2 0.461765 1.11568 5.16957 0 1 0 -1.74672e-10 -3.46595e-09 4.03252e-10 -2.28371e-12 2.85025e-09 -2.03948e-10 -8.45779e-10 -4.8589e-10 2.84606e-09 0.5 4.58003e-09 -8.185e-10 -3.8885e-09 8.61611e-10 -1.08053e-09 8.0644e-09 
689 2 3.51933 0.103669 5.69619 0 1 0 -5.77057e-10 5.41938e-09 -1.01701e-09 3.49922e-10 -4.63801e-09 8.00763e-10 -6.14025e-10 -6.51257e-10 -9.9102e-11 0.5 -6.86877e-09 -2.04605e-08 -1.77115e-08 -2.27553e-09 5.39559e-10 1.53448e-08 
450 1 0.619288 4.79871 4.46892 1 0 0 6.28429e-09 -4.53854e-09 4.69725e-09 -5.41611e-09 3.81379e-09 -3.92039e-09 -4.48384e-09 -1.11058e-09 8.05618e-10 0.5 -2.18348e-09 -6.11766e-09 -1.31802e-08 5.37245e-10 -2.32095e-09 7.30073e-09 
549 2 4.49944 0.500888 5.01435 0 0 0 -2.68083e-09 1.8486e-09 2.73624e-11 2.13884e-09 -1.5164e-09 -1.29756e-10 -7.13945e-10 7.29847e-10 -1.84906e-09 0.5 5.29055e-09 6.96457e-09 3.27804e-09 -3.16642e-09 -1.90608e-09 3.35251e-09 
591 2 1.44655 1.12499 4.40334 0 0 0 3.17675e-09 -7.72216e-09 -5.25134e-09 -2.83355e-09 6.50265e-09 4.63875e-09 -1.32595e-09 1.4451e-09 2.66534e-10 0.5 -4.26991e-09 -6.5866e-09 -5.11172e-09 1.69932e-09 5.76923e-10 5.04957e-09 
243 1 1.20287 1.83742 5.34381 0 1 0 -1.23242e-09 -1.40757e-10 -2.91892e-10 9.27754e-10 6.51319e-12 3.47735e-10 -7.21617e-10 -5.45908e-10 1.57441e-09 0.5 -2.35909e-09 -2.57552e-09 -1.02439e-09 3.3583e-09 -1.18995e-09 3.76185e-09 