ITEM: TIMESTEP
0
ITEM: NUMBER OF ATOMS
1000
ITEM: BOX BOUNDS xy xz yz pp pp pp
0.0000000000000000e+00 1.0000000000000000e+01 0.0000000000000000e+00
0.0000000000000000e+00 1.0000000000000000e+01 0.0000000000000000e+00
0.0000000000000000e+00 1.0000000000000000e+01 0.0000000000000000e+00
ITEM: ATOMS id type diameter diameter x y z 
1 1 1 1 3.32196 2.15874 1.97466 
2 1 1 1 1.5024 0.805093 1.20477 
3 1 1 1 0.235061 0.675365 0.853503 
4 1 1 1 1.89094 1.08832 1.31173 
5 1 1 1 3.89083 3.12136 0.708662 
6 1 1 1 2.86558 1.75525 0.442677 
7 1 1 1 2.28476 0.0255955 0.183039 
8 1 1 1 3.82235 2.25212 1.33927 
9 1 1 1 1.68804 0.817017 1.60701 
10 1 1 1 0.257219 3.08688 1.27207 
11 1 1 1 2.89789 4.77481 0.204884 
12 1 1 1 0.78382 3.66405 1.74433 
13 1 1 1 0.411927 3.25344 0.564307 
14 1 1 1 4.31382 2.35978 0.801246 
15 1 1 1 0.721785 1.0407 0.999731 
16 1 1 1 4.27878 3.52066 1.74298 
17 1 1 1 2.3312 0.476069 1.28548 
18 1 1 1 3.36891 1.20312 0.776126 
19 1 1 1 4.04014 2.56746 1.31435 
20 1 1 1 4.0365 1.50362 1.39917 
501 2 1 1 1.83734 0.11246 0.110282 
502 2 1 1 2.3581 2.599 1.44553 
503 2 1 1 1.32156 1.51849 1.26446 
504 2 1 1 2.36456 1.09361 0.341219 
505 2 1 1 0.221388 0.862171 0.503979 
506 2 1 1 0.571986 3.37127 1.00928 
507 2 1 1 0.957584 4.10732 1.68707 
508 2 1 1 4.98623 3.61586 1.72795 
509 2 1 1 0.739808 3.95977 1.88217 
510 2 1 1 3.12087 2.42468 1.67323 
511 2 1 1 1.97369 1.86411 0.0544981 
512 2 1 1 0.732703 4.54581 1.46446 
513 2 1 1 2.39156 4.88669 0.665253 
514 2 1 1 4.64821 2.46216 1.53724 
515 2 1 1 3.31898 2.16945 1.97583 
516 2 1 1 0.741977 0.408269 1.77684 
517 2 1 1 4.90945 3.04757 0.463142 
518 2 1 1 4.98148 3.75864 1.43748 
519 2 1 1 3.88373 3.88115 0.429849 
520 2 1 1 1.26878 4.38639 1.99495 
521 2 1 1 4.07354 4.05131 0.287858 
522 2 1 1 0.984309 3.28855 0.738682 
523 2 1 1 3.76095 0.246405 1.33495 
524 2 1 1 1.70489 4.16266 1.74282 
525 2 1 1 1.01283 2.69711 0.297175 
526 2 1 1 1.59343 0.755723 1.44191 
527 2 1 1 4.99934 3.97104 1.29126 
528 2 1 1 1.61983 4.49161 0.446666 
529 2 1 1 2.32407 0.62125 1.34417 
530 2 1 1 2.0397 1.1823 0.837477 
531 2 1 1 3.69869 3.82765 1.33999 
21 1 1 1 1.34849 4.12995 2.01324 
22 1 1 1 2.11463 0.563053 3.22418 
23 1 1 1 1.3079 1.89704 3.59074 
24 1 1 1 1.24779 1.65185 2.56796 
25 1 1 1 0.702254 2.78234 2.85138 
26 1 1 1 4.46721 0.371996 2.13046 
27 1 1 1 1.08478 1.95529 2.59652 
28 1 1 1 3.18766 4.97484 2.07924 
29 1 1 1 4.91944 0.990886 3.82068 
30 1 1 1 2.37657 3.07632 3.63148 
31 1 1 1 1.6347 4.36504 3.19325 
32 1 1 1 1.35839 0.430902 2.16593 
33 1 1 1 4.60945 0.976557 2.99226 
34 1 1 1 2.43492 3.76225 2.21299 
35 1 1 1 3.70645 4.26928 3.76271 
36 1 1 1 1.80477 2.80374 2.37866 
37 1 1 1 2.33008 1.6495 3.18997 
38 1 1 1 2.61515 2.79005 2.4206 
39 1 1 1 3.78373 3.13219 2.72152 
40 1 1 1 4.46152 4.74042 2.16647 
41 1 1 1 0.434018 4.54829 3.17126 
42 1 1 1 4.86896 2.62412 3.57727 
43 1 1 1 4.50018 4.51854 3.1122 
44 1 1 1 0.311823 0.800996 2.34101 
45 1 1 1 3.03926 0.837271 2.01792 
46 1 1 1 2.34606 0.305985 2.68196 
47 1 1 1 2.72114 4.14785 2.86466 
532 2 1 1 1.74164 1.66851 2.67301 
533 2 1 1 0.795019 1.88808 2.91842 
534 2 1 1 1.66019 2.83888 2.9881 
535 2 1 1 4.67736 2.47114 2.45288 
536 2 1 1 0.883682 2.04749 2.15619 
537 2 1 1 4.04239 0.404747 2.58953 
538 2 1 1 2.73007 4.30973 3.68292 
539 2 1 1 1.54287 0.955088 2.16033 
540 2 1 1 3.07022 1.25678 2.74006 
541 2 1 1 0.378443 0.493428 3.03907 
542 2 1 1 3.50462 2.22786 3.71254 
543 2 1 1 0.365502 2.99714 2.91439 
544 2 1 1 3.6773 4.31978 2.53425 
545 2 1 1 1.71714 0.0209761 2.54577 
546 2 1 1 2.39738 2.76037 3.57479 
547 2 1 1 2.81912 1.00213 2.77397 
548 2 1 1 4.00215 4.14962 2.72962 
549 2 1 1 3.0239 2.60442 2.44444 
550 2 1 1 2.58194 4.59352 3.26425 
551 2 1 1 2.95431 3.04479 3.73706 
552 2 1 1 1.45481 0.98373 3.55365 
553 2 1 1 1.01881 3.19176 3.89658 
554 2 1 1 3.28757 4.25439 3.56785 
555 2 1 1 1.24322 4.77671 2.1209 
48 1 1 1 1.6031 3.33994 4.29901 
49 1 1 1 3.48453 4.5198 4.20802 
50 1 1 1 1.4625 0.169929 5.99977 
51 1 1 1 3.77015 4.89468 4.87489 
52 1 1 1 2.98595 4.7817 5.99312 
53 1 1 1 0.793979 4.41031 4.04532 
54 1 1 1 3.06606 1.33483 4.41012 
55 1 1 1 0.65294 3.95818 5.09571 
56 1 1 1 3.65765 4.07658 5.08745 
57 1 1 1 2.80324 4.12896 5.48238 
58 1 1 1 4.4613 1.0909 4.78048 
59 1 1 1 0.154393 4.87859 4.47031 
60 1 1 1 2.18487 1.0861 4.01133 
61 1 1 1 1.52442 0.995177 5.93754 
62 1 1 1 0.40111 1.44915 5.8917 
63 1 1 1 1.34292 0.380452 4.25654 
64 1 1 1 0.573004 0.4715 4.49949 
65 1 1 1 2.8614 1.5229 5.32406 
66 1 1 1 3.76829 3.73023 4.03325 
67 1 1 1 0.86536 4.09802 5.36043 
68 1 1 1 2.46465 3.2942 5.67849 
69 1 1 1 4.52738 1.68651 5.16124 
70 1 1 1 4.70308 4.6859 5.99509 
556 2 1 1 3.50987 0.466734 4.39722 
557 2 1 1 1.84568 0.387606 4.50229 
558 2 1 1 2.61625 1.27531 4.15317 
559 2 1 1 4.95989 0.932073 5.34805 
560 2 1 1 3.01267 3.91715 5.54868 
561 2 1 1 3.1567 4.70904 4.75926 
562 2 1 1 1.66498 3.32447 4.44759 
563 2 1 1 1.94577 2.52895 4.0985 
564 2 1 1 3.52255 3.48039 4.93836 
565 2 1 1 4.82858 3.9998 4.59813 
566 2 1 1 1.23125 3.58987 4.90831 
567 2 1 1 2.9221 1.80486 4.3525 
568 2 1 1 3.70232 4.90417 4.34639 
569 2 1 1 2.64362 1.24919 5.13001 
570 2 1 1 3.46528 0.980821 4.6613 
571 2 1 1 2.48308 3.12161 4.96652 
572 2 1 1 4.88012 0.235965 5.86556 
573 2 1 1 2.12122 1.36456 4.19831 
574 2 1 1 3.54501 1.05465 5.57425 
575 2 1 1 4.72611 1.76741 4.78988 
576 2 1 1 3.34453 1.50975 4.31921 
577 2 1 1 0.243643 4.91551 4.91974 
578 2 1 1 0.113064 0.260848 4.07496 
579 2 1 1 3.68368 1.66274 5.64442 
580 2 1 1 0.721395 4.48588 4.15603 
581 2 1 1 1.95818 1.09629 5.39144 
582 2 1 1 3.99137 3.02756 4.206 
583 2 1 1 3.81337 1.22659 5.3261 
584 2 1 1 3.11661 0.889165 4.19751 
71 1 1 1 2.36934 1.57898 7.85457 
72 1 1 1 4.80897 4.33011 6.24044 
73 1 1 1 0.886626 1.52126 7.76092 
74 1 1 1 1.47526 4.66332 6.39051 
75 1 1 1 3.49926 2.04242 6.94918 
76 1 1 1 0.249574 4.58487 7.85939 
77 1 1 1 2.69917 4.91509 7.83413 
78 1 1 1 1.66801 4.16183 7.88114 
79 1 1 1 3.11965 1.8818 7.34078 
80 1 1 1 2.47278 0.0456841 7.81214 
81 1 1 1 3.01076 1.76752 6.73027 
82 1 1 1 3.84679 2.92183 7.13526 
83 1 1 1 0.993223 3.09137 6.60322 
84 1 1 1 1.03783 2.77302 6.09922 
85 1 1 1 3.70886 4.76393 7.37847 
86 1 1 1 3.57476 0.926189 6.46438 
87 1 1 1 4.95295 4.15756 6.04939 
88 1 1 1 1.26748 2.49814 6.31671 
89 1 1 1 3.87885 1.75498 6.01921 
585 2 1 1 4.12278 1.49866 7.91583 
586 2 1 1 0.690337 2.48685 6.47748 
587 2 1 1 4.85989 0.115888 7.73013 
588 2 1 1 3.57597 1.29627 6.44247 
589 2 1 1 3.13045 3.4484 7.21076 
590 2 1 1 3.8183 4.20645 7.87866 
591 2 1 1 0.600352 0.121836 7.70417 
592 2 1 1 3.92713 3.24789 7.28917 
593 2 1 1 1.78099 3.1444 7.88917 
594 2 1 1 1.04367 0.895887 7.17193 
595 2 1 1 0.802852 3.5269 6.67659 
596 2 1 1 1.48777 4.98103 6.10977 
597 2 1 1 4.46848 1.72413 7.4702 
598 2 1 1 4.37207 1.42182 6.60709 
599 2 1 1 3.60402 2.84449 7.33882 
600 2 1 1 3.79805 3.84165 6.55659 
601 2 1 1 1.49294 1.83651 6.17503 
602 2 1 1 4.62811 4.6068 6.49155 
603 2 1 1 0.623653 1.73723 7.65501 
604 2 1 1 1.67736 1.45988 6.17 
605 2 1 1 4.80838 4.50153 7.13996 
606 2 1 1 2.99045 0.516299 7.43831 
90 1 1 1 4.27155 1.94381 9.54214 
91 1 1 1 3.0822 2.55781 9.08898 
92 1 1 1 1.34662 2.59109 8.40382 
93 1 1 1 0.238285 4.85505 8.81486 
94 1 1 1 0.721423 4.95147 9.33904 
95 1 1 1 4.71846 3.22782 9.99582 
96 1 1 1 3.28677 0.810333 9.27075 
97 1 1 1 0.430861 1.47432 8.86861 
98 1 1 1 2.1933 2.83323 8.03053 
99 1 1 1 1.98677 1.62128 8.81542 
100 1 1 1 4.82848 2.27518 8.93113 
101 1 1 1 4.95829 3.97571 9.74435 
102 1 1 1 1.12599 4.44512 9.18264 
103 1 1 1 4.86174 1.34279 8.24331 
104 1 1 1 1.91773 1.27978 9.26104 
105 1 1 1 1.83627 2.21207 8.19662 
106 1 1 1 1.02295 2.68452 8.69422 
107 1 1 1 1.04786 1.43331 9.63353 
108 1 1 1 0.445802 2.59355 9.80031 
109 1 1 1 0.712438 3.95247 9.23897 
110 1 1 1 0.517126 1.3381 9.49657 
111 1 1 1 0.437449 2.20915 9.14078 
607 2 1 1 2.75605 0.96377 8.08932 
608 2 1 1 3.61706 1.8706 9.15495 
609 2 1 1 2.32651 1.64152 9.03778 
610 2 1 1 0.983801 4.74858 9.33502 
611 2 1 1 2.57161 1.11672 8.74436 
612 2 1 1 0.922326 1.53322 8.85016 
613 2 1 1 0.628354 0.740673 8.48817 
614 2 1 1 1.65954 1.82412 8.02045 
615 2 1 1 0.14785 4.92045 8.00823 
616 2 1 1 4.32571 2.17051 9.72455 
617 2 1 1 3.1186 4.34102 9.58848 
618 2 1 1 1.4399 0.383073 8.31579 
619 2 1 1 3.22366 0.00287783 8.36767 
620 2 1 1 1.25979 3.29316 8.1799 
621 2 1 1 1.92433 2.21684 8.46965 
622 2 1 1 1.32871 1.64927 9.22818 
623 2 1 1 0.135252 3.17842 9.72691 
624 2 1 1 4.99455 3.37173 8.58771 
625 2 1 1 0.585639 2.8297 8.75087 
626 2 1 1 2.55739 2.13243 9.78393 
627 2 1 1 3.50472 3.89003 9.70798 
628 2 1 1 0.580811 1.69741 8.32395 
629 2 1 1 4.65234 1.87955 9.62597 
630 2 1 1 0.421432 3.01053 8.0262 
112 1 1 1 4.6829 5.5424 1.14486 
113 1 1 1 1.80789 5.21333 0.438473 
114 1 1 1 1.03023 5.10326 0.414932 
115 1 1 1 0.360367 6.69193 1.27102 
116 1 1 1 1.61878 6.81215 1.84476 
117 1 1 1 4.9997 9.91259 0.833884 
118 1 1 1 0.909526 6.40746 0.206135 
119 1 1 1 1.26482 7.78852 1.70976 
120 1 1 1 4.78123 8.11807 0.438803 
121 1 1 1 2.33337 6.9061 0.750975 
122 1 1 1 4.03207 6.94955 1.11394 
123 1 1 1 2.65289 7.16369 0.168688 
124 1 1 1 0.972693 8.05625 1.42145 
125 1 1 1 0.690046 7.59866 0.605763 
126 1 1 1 3.45131 6.22786 1.60603 
127 1 1 1 0.878522 5.31214 1.19599 
128 1 1 1 0.942204 5.61619 1.36658 
129 1 1 1 1.30882 7.38981 0.53464 
130 1 1 1 0.630507 6.92996 1.8513 
131 1 1 1 1.46941 6.37954 0.900876 
132 1 1 1 3.77328 7.50166 0.317714 
133 1 1 1 1.1166 6.70919 1.35453 
134 1 1 1 1.37854 9.12188 1.50126 
135 1 1 1 1.65624 6.38314 1.42915 
136 1 1 1 0.292485 5.78816 1.59803 
137 1 1 1 2.80402 7.20002 0.688492 
138 1 1 1 4.6528 9.58594 0.939825 
139 1 1 1 3.10464 9.69716 0.16998 
631 2 1 1 4.95498 8.31449 1.6797 
632 2 1 1 3.41387 6.87045 1.68788 
633 2 1 1 0.0142507 9.51163 1.97659 
634 2 1 1 4.97113 9.76867 1.98482 
635 2 1 1 4.53973 9.31523 1.12725 
636 2 1 1 3.61865 8.6673 1.38777 
637 2 1 1 4.24882 9.89231 0.0837846 
638 2 1 1 0.0949699 6.15882 1.25585 
639 2 1 1 0.549596 7.06136 0.303069 
640 2 1 1 3.39852 8.85525 0.180292 
641 2 1 1 2.79798 5.71549 0.18964 
642 2 1 1 0.839522 9.8448 1.48592 
643 2 1 1 0.648521 9.7008 1.40803 
644 2 1 1 3.19558 8.13182 1.53756 
645 2 1 1 0.490584 5.24726 0.771358 
646 2 1 1 3.6262 5.46983 1.36975 
647 2 1 1 3.33107 5.21278 1.26714 
648 2 1 1 2.20194 7.94084 1.7452 
649 2 1 1 0.8514 9.47943 0.808984 
650 2 1 1 1.29088 5.75129 1.8651 
651 2 1 1 2.94734 5.86189 0.796613 
652 2 1 1 1.75797 6.15587 1.7633 
653 2 1 1 0.297983 8.20263 1.63882 
654 2 1 1 4.31903 9.98819 1.53846 
655 2 1 1 1.30889 8.47212 0.895362 
656 2 1 1 0.124923 9.5836 1.61717 
140 1 1 1 1.28218 9.54743 3.65244 
141 1 1 1 1.29228 9.3528 2.48054 
142 1 1 1 0.684569 5.55742 3.60208 
143 1 1 1 3.28415 6.69677 2.58175 
144 1 1 1 0.807852 7.57319 2.56817 
145 1 1 1 4.18214 9.2237 2.67742 
146 1 1 1 4.40168 8.97675 2.31193 
147 1 1 1 0.0657773 5.51989 2.86364 
148 1 1 1 3.29784 6.81159 2.39763 
149 1 1 1 3.86131 6.98653 2.53548 
150 1 1 1 3.82514 9.20227 2.58421 
151 1 1 1 2.24237 7.44109 2.43359 
152 1 1 1 4.00701 5.8858 2.61227 
153 1 1 1 0.22605 9.22612 3.38448 
154 1 1 1 1.20824 6.90446 3.24097 
155 1 1 1 4.73405 5.11645 2.18551 
156 1 1 1 0.786877 5.03681 3.67797 
157 1 1 1 0.819794 8.28129 3.61426 
158 1 1 1 4.90792 7.39179 3.80907 
657 2 1 1 1.41588 6.62421 3.01749 
658 2 1 1 4.70908 5.46097 2.59345 
659 2 1 1 0.371759 8.14738 3.08245 
660 2 1 1 1.05543 8.64899 3.49535 
661 2 1 1 0.29142 7.8891 2.04579 
662 2 1 1 2.29937 5.58889 2.43893 
663 2 1 1 1.16373 8.79826 2.30172 
664 2 1 1 3.91898 6.32439 3.95494 
665 2 1 1 2.24645 6.14229 3.49933 
666 2 1 1 2.19881 5.48359 2.62026 
667 2 1 1 0.838673 5.58124 3.86703 
668 2 1 1 2.18534 9.00356 2.89933 
669 2 1 1 2.93207 9.27602 2.03528 
670 2 1 1 3.59704 5.48362 3.22907 
671 2 1 1 2.29411 7.05856 3.28702 
672 2 1 1 0.588902 7.66844 3.50937 
673 2 1 1 3.18974 9.98774 3.99744 
674 2 1 1 0.173704 9.44978 2.53591 
675 2 1 1 3.67102 8.88395 2.5523 
676 2 1 1 4.33034 9.95789 2.21619 
677 2 1 1 3.91122 5.86742 3.71816 
678 2 1 1 2.05854 7.84158 3.40691 
679 2 1 1 3.73331 5.78473 3.95964 
680 2 1 1 0.639441 7.08238 3.50884 
681 2 1 1 4.45095 7.14186 3.27045 
682 2 1 1 3.64961 8.93217 2.92322 
683 2 1 1 1.40577 6.79974 3.23719 
159 1 1 1 3.2998 9.81531 5.93485 
160 1 1 1 3.99593 9.65218 4.12847 
161 1 1 1 4.95365 5.9317 4.12863 
162 1 1 1 3.54197 9.89141 4.9072 
163 1 1 1 4.37435 9.75217 4.76292 
164 1 1 1 4.71875 8.0023 4.62348 
165 1 1 1 3.56862 7.73222 5.48184 
166 1 1 1 3.3206 9.38628 5.15712 
167 1 1 1 4.88423 9.17509 5.68007 
168 1 1 1 0.82855 5.44442 4.41361 
169 1 1 1 4.60224 9.78734 5.85807 
170 1 1 1 0.932063 5.18918 4.49198 
171 1 1 1 1.32791 8.18736 5.02493 
172 1 1 1 1.93907 9.96048 5.83795 
173 1 1 1 1.79067 5.82644 4.96863 
174 1 1 1 3.85543 8.14809 4.9628 
175 1 1 1 1.85798 7.00986 4.70874 
176 1 1 1 2.91063 9.02268 4.25522 
177 1 1 1 4.76523 9.14235 5.52043 
178 1 1 1 3.25798 6.82961 5.33643 
179 1 1 1 4.21526 5.94073 5.9303 
180 1 1 1 0.532911 6.63981 5.31567 
181 1 1 1 2.06144 6.55885 4.56903 
182 1 1 1 1.39698 9.01621 5.43738 
183 1 1 1 1.49333 8.42114 4.1777 
184 1 1 1 3.79243 9.43388 5.15653 
185 1 1 1 1.44376 5.23855 4.3432 
186 1 1 1 4.98114 8.09931 5.14749 
684 2 1 1 2.42517 9.78072 4.59919 
685 2 1 1 2.34102 5.44153 5.83001 
686 2 1 1 2.36922 9.52909 5.4771 
687 2 1 1 3.61866 8.80552 4.34511 
688 2 1 1 4.32592 5.72415 5.77263 
689 2 1 1 3.31405 9.209 5.63698 
690 2 1 1 1.76395 6.7118 5.30359 
691 2 1 1 3.82196 5.72234 5.41649 
692 2 1 1 1.9989 5.47902 5.92896 
693 2 1 1 4.95561 8.95131 4.68756 
694 2 1 1 2.21903 5.2993 5.25112 
695 2 1 1 3.51984 7.87739 5.2929 
696 2 1 1 4.12905 6.89684 5.20102 
697 2 1 1 1.05472 6.754 4.47266 
698 2 1 1 2.09542 7.74583 4.09228 
699 2 1 1 3.78338 7.18415 4.00253 
700 2 1 1 1.25043 5.96264 4.00922 
701 2 1 1 3.25144 6.89206 4.81873 
187 1 1 1 1.76465 8.44807 6.73993 
188 1 1 1 1.98352 7.03321 7.21227 
189 1 1 1 2.63737 6.26087 6.47879 
190 1 1 1 3.70677 9.65061 7.83046 
191 1 1 1 4.86386 6.92913 7.93524 
192 1 1 1 0.377656 7.26945 7.58457 
193 1 1 1 3.94528 8.30583 6.13373 
194 1 1 1 4.90979 8.79557 7.07627 
195 1 1 1 3.98226 9.91114 6.55735 
196 1 1 1 1.2993 7.27122 7.34231 
197 1 1 1 0.564992 5.82891 6.53823 
198 1 1 1 1.99494 8.99902 6.60287 
199 1 1 1 4.05651 7.79183 7.31815 
200 1 1 1 1.0662 9.68684 6.67237 
201 1 1 1 3.0355 7.67941 7.85214 
202 1 1 1 2.83077 6.74815 6.23162 
203 1 1 1 3.48539 8.97768 7.91019 
204 1 1 1 0.752579 8.5992 6.76804 
205 1 1 1 3.16709 9.2834 6.13856 
206 1 1 1 3.10813 8.31189 7.96512 
207 1 1 1 4.81204 5.89204 7.44242 
208 1 1 1 1.94244 6.65415 6.36761 
209 1 1 1 3.99883 8.26003 6.39231 
210 1 1 1 4.79194 8.05953 6.48708 
211 1 1 1 4.35162 7.59369 7.18301 
212 1 1 1 4.79021 8.99255 7.77267 
213 1 1 1 0.273088 9.79037 6.8244 
214 1 1 1 1.46473 7.71443 6.44629 
215 1 1 1 2.15968 7.70668 6.10891 
216 1 1 1 2.35895 6.81427 7.47626 
702 2 1 1 4.25865 5.18875 7.36137 
703 2 1 1 2.59416 9.98672 6.77645 
704 2 1 1 4.66388 5.88906 7.47919 
705 2 1 1 0.0740882 5.2 6.43761 
706 2 1 1 3.67324 6.09247 6.08158 
707 2 1 1 3.49825 5.02155 7.25215 
708 2 1 1 2.40357 6.8755 6.55499 
709 2 1 1 3.23005 7.44969 6.98428 
710 2 1 1 0.902486 8.08215 6.69476 
711 2 1 1 4.80013 5.75988 6.26216 
712 2 1 1 0.253371 8.39991 7.25324 
713 2 1 1 4.69735 8.4416 7.93767 
714 2 1 1 3.58352 8.21666 7.38354 
715 2 1 1 2.57788 6.51201 7.36057 
716 2 1 1 2.54651 9.19833 6.31623 
717 2 1 1 4.03502 6.5703 6.99832 
718 2 1 1 0.922211 9.59228 7.4787 
719 2 1 1 4.55746 7.23842 6.178 
720 2 1 1 1.48789 6.93144 6.64195 
721 2 1 1 2.04733 9.4143 6.19647 
722 2 1 1 4.4034 7.95013 7.83439 
723 2 1 1 1.95446 8.52541 6.55977 
724 2 1 1 3.70836 6.33407 6.71149 
725 2 1 1 0.161118 7.91852 6.56722 
726 2 1 1 1.76686 5.69032 7.19708 
727 2 1 1 3.55252 7.19687 7.71305 
728 2 1 1 0.53047 5.61054 6.3536 
729 2 1 1 1.64431 5.84918 7.09885 
217 1 1 1 3.53179 8.87241 8.5143 
218 1 1 1 0.603641 5.39299 9.92546 
219 1 1 1 3.0532 5.16323 8.37146 
220 1 1 1 0.388337 6.7745 9.08578 
221 1 1 1 4.72277 5.62612 8.19731 
222 1 1 1 4.26049 6.11528 9.45424 
223 1 1 1 0.936841 5.49172 9.2826 
224 1 1 1 3.13003 6.43597 9.35258 
225 1 1 1 0.591132 5.1627 9.48329 
226 1 1 1 3.98393 7.86278 9.82157 
227 1 1 1 2.32692 8.50595 9.51639 
228 1 1 1 0.475846 7.53908 9.26924 
229 1 1 1 2.54893 9.94515 8.07953 
230 1 1 1 2.63144 6.54299 8.00485 
231 1 1 1 4.50459 8.69992 9.56796 
232 1 1 1 4.34694 8.96106 8.61024 
233 1 1 1 2.42095 8.92899 9.58002 
234 1 1 1 2.86295 7.56107 8.91446 
235 1 1 1 3.85668 9.18177 8.02995 
236 1 1 1 4.47007 8.4666 8.14616 
237 1 1 1 2.97848 9.32109 9.48029 
238 1 1 1 2.33286 8.37027 9.06234 
239 1 1 1 2.44337 5.77971 9.54739 
240 1 1 1 2.99511 8.73616 8.70813 
241 1 1 1 0.510236 5.53578 9.82195 
242 1 1 1 2.82964 7.70511 9.80088 
243 1 1 1 1.74444 8.7885 8.28795 
244 1 1 1 4.99371 9.28003 9.53865 
245 1 1 1 4.66632 6.92029 9.32571 
246 1 1 1 3.08423 6.58287 8.30755 
247 1 1 1 2.15847 7.37009 9.11255 
730 2 1 1 0.597936 9.50791 9.45251 
731 2 1 1 2.25652 5.33697 8.43382 
732 2 1 1 3.80893 6.74648 8.07297 
733 2 1 1 0.215884 8.35715 8.57097 
734 2 1 1 3.56576 9.76668 8.52427 
735 2 1 1 0.175849 5.48575 9.07377 
736 2 1 1 4.8163 7.54143 8.79296 
737 2 1 1 0.609861 9.93802 8.27636 
738 2 1 1 1.64265 8.09304 9.64858 
739 2 1 1 0.447756 5.44294 9.41235 
740 2 1 1 3.34618 9.17166 8.05451 
741 2 1 1 0.626333 6.77447 8.43377 
742 2 1 1 3.41735 5.41913 9.30409 
743 2 1 1 3.5526 8.48689 9.08667 
744 2 1 1 0.113987 5.78383 8.75472 
745 2 1 1 0.609609 5.70348 8.44071 
746 2 1 1 4.2182 5.33467 9.84958 
747 2 1 1 1.39973 5.29416 8.90169 
748 2 1 1 0.347284 6.80069 9.26779 
749 2 1 1 2.85452 5.85886 9.92216 
750 2 1 1 3.74704 6.52699 9.15999 
751 2 1 1 0.321052 5.9201 9.19428 
752 2 1 1 4.95184 5.5405 9.22047 
753 2 1 1 3.34901 6.83464 9.76119 
754 2 1 1 3.39082 9.43293 9.23911 
248 1 1 1 6.67884 1.33877 0.725531 
249 1 1 1 7.64747 1.04069 0.836003 
250 1 1 1 6.48803 4.34826 1.16862 
251 1 1 1 5.48899 3.45459 1.2805 
252 1 1 1 9.13788 0.276154 1.31496 
253 1 1 1 9.66445 0.477891 1.91953 
254 1 1 1 9.49633 4.81235 1.1681 
255 1 1 1 8.56083 1.90339 0.227059 
256 1 1 1 6.36826 1.40483 1.01215 
257 1 1 1 6.01309 2.07717 1.078 
258 1 1 1 9.15881 2.13195 1.6791 
259 1 1 1 8.38419 3.14341 1.2262 
260 1 1 1 5.13897 0.667088 1.75411 
261 1 1 1 9.20048 2.42999 0.8857 
262 1 1 1 8.61927 4.1222 1.79975 
263 1 1 1 5.44144 4.21261 1.37183 
264 1 1 1 5.30923 2.27766 0.574304 
265 1 1 1 9.80196 1.49704 0.798247 
266 1 1 1 9.68787 4.06209 1.51636 
267 1 1 1 9.60087 1.88265 1.7096 
268 1 1 1 7.01583 4.97893 0.91545 
269 1 1 1 7.15267 4.86648 0.96733 
270 1 1 1 6.76039 1.94742 0.265057 
271 1 1 1 9.884 0.352257 0.389762 
272 1 1 1 5.87803 2.09089 1.66874 
273 1 1 1 9.40386 0.715258 1.33934 
274 1 1 1 7.22267 1.4239 1.55723 
275 1 1 1 7.11281 4.98367 0.489903 
276 1 1 1 9.49612 1.31263 1.41538 
277 1 1 1 8.29499 3.92646 1.99083 
278 1 1 1 6.47173 0.34754 1.098 
279 1 1 1 6.85378 1.46794 1.61291 
280 1 1 1 5.37704 1.92248 1.07869 
755 2 1 1 8.52948 4.89916 0.186862 
756 2 1 1 8.82971 0.873494 0.8142 
757 2 1 1 7.20301 0.972915 1.78215 
758 2 1 1 7.05383 3.6408 0.848416 
759 2 1 1 5.55551 1.3846 0.984036 
760 2 1 1 9.91501 1.60355 0.948028 
761 2 1 1 5.72688 1.58992 1.75046 
762 2 1 1 7.28043 2.16049 1.41018 
763 2 1 1 9.43795 3.62709 0.475715 
764 2 1 1 9.06246 2.79354 1.00997 
765 2 1 1 8.65359 0.845002 1.94668 
766 2 1 1 5.22247 4.00201 1.81627 
767 2 1 1 6.58137 3.06728 1.7316 
768 2 1 1 9.63847 3.83418 1.14301 
769 2 1 1 5.75298 0.352927 1.64463 
770 2 1 1 6.46648 2.11227 0.920692 
771 2 1 1 9.5082 4.25125 0.731089 
772 2 1 1 6.58726 2.09143 0.69599 
773 2 1 1 5.6008 2.61148 1.07897 
774 2 1 1 9.95905 1.79331 0.099193 
775 2 1 1 7.61612 4.12873 1.62633 
776 2 1 1 8.24364 0.911625 1.67699 
777 2 1 1 5.7115 3.14098 0.41865 
778 2 1 1 7.77777 0.983011 1.46316 
779 2 1 1 7.51261 4.51538 0.0674193 
281 1 1 1 9.36458 0.476173 3.03984 
282 1 1 1 9.19755 3.21911 3.63528 
283 1 1 1 7.60125 4.22048 3.53659 
284 1 1 1 8.67346 4.81246 2.96535 
285 1 1 1 7.19838 3.18992 2.95167 
286 1 1 1 7.74099 2.88767 3.10676 
287 1 1 1 5.09439 1.3615 2.64883 
288 1 1 1 8.71315 1.90533 2.85206 
289 1 1 1 7.9247 0.446382 2.33981 
290 1 1 1 6.67293 1.99577 2.91165 
291 1 1 1 6.06734 3.82712 2.46012 
292 1 1 1 7.71483 3.09651 3.09336 
293 1 1 1 7.70536 4.03119 2.25656 
294 1 1 1 6.01661 1.17534 3.96231 
295 1 1 1 9.31876 0.395796 2.13744 
296 1 1 1 9.79777 1.17946 3.23312 
297 1 1 1 6.54972 1.18237 2.09596 
298 1 1 1 7.74824 4.68578 3.88088 
299 1 1 1 6.55348 4.29186 3.35821 
300 1 1 1 9.91159 4.14728 3.37629 
301 1 1 1 5.78275 0.627911 3.30774 
302 1 1 1 9.59499 3.01917 3.216 
780 2 1 1 7.03834 3.38623 2.43351 
781 2 1 1 9.90251 1.47869 2.31987 
782 2 1 1 8.82433 0.506556 3.68954 
783 2 1 1 7.5268 2.93766 3.29928 
784 2 1 1 8.167 2.80794 2.97705 
785 2 1 1 5.9608 3.21488 2.52771 
786 2 1 1 8.69839 3.82594 2.51266 
787 2 1 1 9.76169 4.67443 3.13332 
788 2 1 1 5.34785 1.31932 3.81417 
789 2 1 1 8.56689 3.7617 2.97067 
790 2 1 1 8.45031 4.33711 3.72473 
791 2 1 1 8.56489 0.124517 2.76488 
792 2 1 1 6.05346 0.543404 2.99382 
793 2 1 1 9.01307 2.73476 3.16823 
794 2 1 1 6.89658 0.801588 2.28935 
795 2 1 1 6.73554 4.22701 3.39111 
796 2 1 1 5.36093 1.17471 3.37433 
797 2 1 1 8.13376 4.03663 3.68554 
798 2 1 1 7.7028 1.03007 2.34876 
799 2 1 1 6.27371 2.25218 2.38425 
800 2 1 1 8.94285 2.41708 3.93264 
801 2 1 1 8.55559 3.71774 3.99933 
802 2 1 1 6.75337 3.83076 3.55111 
803 2 1 1 9.07786 1.54066 3.93151 
804 2 1 1 6.69863 3.85514 3.3229 
805 2 1 1 6.876 4.90346 2.43568 
806 2 1 1 6.37777 1.23948 2.01353 
807 2 1 1 9.44787 0.361937 3.08339 
303 1 1 1 9.24335 2.90802 5.01751 
304 1 1 1 8.14617 2.64858 4.74387 
305 1 1 1 6.49269 2.63786 4.44013 
306 1 1 1 7.12037 2.14221 4.12587 
307 1 1 1 6.55934 2.87586 4.6374 
308 1 1 1 9.66872 2.24108 5.82951 
309 1 1 1 8.67319 0.247179 4.34277 
310 1 1 1 8.86256 3.07166 5.46359 
311 1 1 1 5.32723 4.80072 5.64466 
312 1 1 1 7.53878 4.22233 4.73422 
313 1 1 1 9.06532 0.850577 5.64429 
314 1 1 1 6.57194 4.59895 4.59727 
315 1 1 1 8.44493 3.9153 4.52017 
316 1 1 1 9.32957 2.07259 4.05948 
317 1 1 1 5.5218 4.83342 5.23884 
318 1 1 1 8.37885 3.40422 4.74753 
319 1 1 1 7.58622 1.55319 4.4304 
320 1 1 1 9.81981 1.47113 5.32638 
321 1 1 1 9.35149 0.538761 4.96366 
322 1 1 1 9.34221 4.47587 5.96853 
323 1 1 1 8.65787 2.74437 4.61417 
324 1 1 1 9.74189 1.9156 5.49527 
325 1 1 1 6.40688 0.370971 4.91237 
326 1 1 1 6.84798 4.00874 4.94464 
327 1 1 1 5.25404 4.70255 5.83843 
808 2 1 1 9.94171 0.241251 4.70026 
809 2 1 1 6.75493 0.174004 4.48449 
810 2 1 1 6.91799 0.736936 5.68907 
811 2 1 1 9.80623 3.32926 4.87152 
812 2 1 1 9.0411 3.75408 4.74086 
813 2 1 1 6.36353 1.83108 5.02036 
814 2 1 1 9.10814 0.52804 4.77575 
815 2 1 1 7.74262 0.1729 5.92832 
816 2 1 1 8.10167 4.83219 4.64892 
817 2 1 1 8.12543 4.09497 4.11868 
818 2 1 1 9.84131 2.88723 5.67563 
819 2 1 1 6.86223 3.42865 5.29835 
820 2 1 1 9.97161 2.82415 5.54171 
821 2 1 1 7.41609 2.29875 5.06133 
822 2 1 1 5.55327 3.7904 5.27256 
823 2 1 1 9.25464 2.7384 4.32262 
824 2 1 1 9.87986 0.798766 4.85889 
825 2 1 1 9.59366 0.611337 4.74401 
826 2 1 1 6.76218 2.01492 4.7703 
827 2 1 1 8.9203 3.55116 4.3002 
328 1 1 1 5.14621 2.40658 7.31019 
329 1 1 1 8.02889 1.57952 6.99984 
330 1 1 1 5.3058 4.55443 6.24861 
331 1 1 1 8.63539 4.96615 6.10353 
332 1 1 1 6.47541 2.25068 7.12558 
333 1 1 1 5.34975 3.19135 6.98723 
334 1 1 1 9.6265 2.65048 6.54554 
335 1 1 1 7.23646 3.13061 6.15922 
336 1 1 1 7.95444 0.246697 6.23606 
337 1 1 1 6.22784 1.32483 6.46242 
338 1 1 1 6.39199 0.145589 6.91145 
339 1 1 1 6.17858 3.44124 6.91813 
340 1 1 1 8.33947 1.4701 7.99387 
341 1 1 1 7.666 2.39463 6.56961 
342 1 1 1 6.45584 3.23833 6.62672 
343 1 1 1 8.76684 4.2843 6.14817 
344 1 1 1 6.64034 4.26348 6.35493 
345 1 1 1 9.65276 3.96246 6.98193 
346 1 1 1 9.73486 3.71316 7.12717 
347 1 1 1 7.91534 3.10811 7.94671 
348 1 1 1 5.68703 1.96389 7.02786 
349 1 1 1 7.19885 1.11607 7.84661 
350 1 1 1 9.08617 1.19988 6.29959 
351 1 1 1 6.07686 3.7542 6.92277 
352 1 1 1 8.78752 1.84075 7.54377 
353 1 1 1 8.07648 1.3731 7.69181 
354 1 1 1 8.04973 1.79139 7.85158 
355 1 1 1 7.77192 2.6702 7.96833 
828 2 1 1 5.2479 1.51055 7.74034 
829 2 1 1 8.0189 3.64411 6.49547 
830 2 1 1 7.626 0.17588 6.00856 
831 2 1 1 9.33385 4.00053 6.8399 
832 2 1 1 6.44096 3.24312 7.15216 
833 2 1 1 5.86208 4.05528 7.06948 
834 2 1 1 9.14516 2.77073 7.63684 
835 2 1 1 5.39428 1.70867 7.60649 
836 2 1 1 7.90745 0.590692 7.75645 
837 2 1 1 5.04807 2.92475 6.21927 
838 2 1 1 8.66075 1.2767 7.53836 
839 2 1 1 9.48422 1.21358 6.63997 
840 2 1 1 7.89689 2.99503 7.52942 
841 2 1 1 7.05006 0.371096 7.00764 
842 2 1 1 5.14025 2.17982 6.24927 
843 2 1 1 6.71416 4.94415 6.29678 
844 2 1 1 5.77999 4.31052 6.89297 
845 2 1 1 5.8607 0.827476 7.38343 
846 2 1 1 7.5298 3.31514 7.5724 
847 2 1 1 8.48596 3.56025 7.12031 
848 2 1 1 7.10841 1.09758 6.95489 
849 2 1 1 6.72654 3.0081 7.07919 
850 2 1 1 9.90611 1.99484 7.22064 
851 2 1 1 7.53513 2.89028 7.01903 
356 1 1 1 8.52702 3.67157 8.05724 
357 1 1 1 7.99378 1.51597 8.85461 
358 1 1 1 9.48598 0.815726 9.90833 
359 1 1 1 7.47324 2.67502 9.13647 
360 1 1 1 6.57885 0.677001 8.34816 
361 1 1 1 6.59499 1.99914 9.6108 
362 1 1 1 9.61531 4.46895 9.62164 
363 1 1 1 5.67769 4.92286 8.43996 
364 1 1 1 5.86965 1.26962 8.56988 
365 1 1 1 7.56473 0.415866 9.45717 
366 1 1 1 6.56706 2.63214 8.296 
367 1 1 1 6.90872 4.92112 9.34191 
368 1 1 1 9.45823 4.46179 9.32659 
369 1 1 1 6.19768 4.34875 9.51435 
370 1 1 1 7.58153 2.78861 8.13052 
371 1 1 1 5.46931 2.62152 9.8306 
372 1 1 1 9.31884 1.76643 8.35028 
373 1 1 1 7.14541 2.97008 8.0786 
374 1 1 1 9.80729 1.12979 8.363 
375 1 1 1 6.98303 3.76321 8.20461 
376 1 1 1 5.03255 2.04376 9.5198 
377 1 1 1 7.16195 0.963808 8.72873 
378 1 1 1 5.52093 0.217125 9.21184 
379 1 1 1 9.63245 2.51323 9.78393 
380 1 1 1 5.30077 0.0236906 8.16794 
381 1 1 1 9.97765 4.41356 8.64692 
382 1 1 1 5.82859 1.06556 8.91016 
383 1 1 1 5.04449 2.76431 9.71098 
384 1 1 1 8.25492 0.424808 9.75554 
852 2 1 1 8.08657 0.938825 8.83283 
853 2 1 1 7.95228 4.02681 8.56018 
854 2 1 1 7.26798 3.02371 9.42777 
855 2 1 1 8.91536 0.513379 8.368 
856 2 1 1 6.87346 2.28168 8.16447 
857 2 1 1 6.82422 4.64978 8.87545 
858 2 1 1 8.81802 4.51114 8.75573 
859 2 1 1 8.71913 2.35787 8.77817 
860 2 1 1 8.81502 4.0619 8.2811 
861 2 1 1 9.07731 2.38819 8.38054 
862 2 1 1 7.26907 1.30172 8.03971 
863 2 1 1 6.92637 1.44989 8.30495 
864 2 1 1 8.37464 2.65236 8.15053 
865 2 1 1 5.86507 4.15774 9.10473 
866 2 1 1 6.02864 3.37953 9.77198 
867 2 1 1 6.85674 1.24826 9.5528 
868 2 1 1 5.48406 0.61161 9.32384 
869 2 1 1 5.75841 1.59219 9.97116 
870 2 1 1 9.92096 1.52547 8.6121 
871 2 1 1 6.51527 2.06392 8.23207 
385 1 1 1 9.51373 7.32439 0.992135 
386 1 1 1 7.16537 8.45006 0.090204 
387 1 1 1 8.98825 5.58224 0.67619 
388 1 1 1 8.06449 9.96016 0.352524 
389 1 1 1 8.96804 5.91719 0.147753 
390 1 1 1 5.5439 6.40274 0.876021 
391 1 1 1 6.60897 6.97156 0.985644 
392 1 1 1 6.5375 5.75356 0.0868173 
393 1 1 1 9.34472 6.76863 0.391117 
394 1 1 1 8.19228 7.68024 1.71256 
395 1 1 1 9.65304 8.59058 1.85295 
396 1 1 1 6.60648 5.07059 1.34473 
397 1 1 1 7.34867 9.06834 1.61272 
398 1 1 1 8.90277 8.89751 0.475818 
399 1 1 1 8.29215 6.10108 0.875047 
400 1 1 1 9.81192 9.00647 1.70081 
401 1 1 1 5.27454 9.20579 1.71212 
402 1 1 1 7.69293 5.10509 1.27141 
403 1 1 1 8.14948 8.39065 1.59387 
404 1 1 1 5.23273 6.54254 0.470564 
405 1 1 1 7.40917 5.9636 0.294094 
406 1 1 1 9.82382 8.94398 1.53628 
407 1 1 1 6.29067 7.23509 0.225331 
408 1 1 1 7.01767 6.02489 0.274967 
409 1 1 1 8.02498 5.88576 1.95994 
410 1 1 1 8.83902 7.3601 1.26519 
411 1 1 1 8.56466 6.30157 0.501505 
412 1 1 1 5.72182 6.60917 0.246972 
413 1 1 1 8.37302 5.33653 1.01622 
414 1 1 1 9.62667 5.37577 0.634127 
415 1 1 1 5.79435 5.70369 1.86921 
872 2 1 1 8.33629 8.01279 0.970359 
873 2 1 1 8.18689 7.01793 0.351773 
874 2 1 1 5.67548 7.7944 0.542251 
875 2 1 1 9.3151 8.9624 1.0079 
876 2 1 1 5.29045 6.64793 1.8009 
877 2 1 1 9.91114 6.47948 0.543732 
878 2 1 1 5.15555 9.29327 1.97291 
879 2 1 1 7.35407 9.92685 0.625856 
880 2 1 1 7.0667 9.9935 0.671491 
881 2 1 1 9.05389 8.68277 1.26338 
882 2 1 1 9.67669 6.1933 0.842477 
883 2 1 1 5.69859 6.22063 0.159801 
884 2 1 1 5.72185 7.21015 1.03372 
885 2 1 1 8.14289 7.5356 0.901278 
886 2 1 1 5.99035 9.82572 0.82916 
887 2 1 1 5.69282 9.20105 1.96908 
888 2 1 1 7.72711 9.62047 1.1852 
889 2 1 1 6.14552 7.79806 1.96516 
890 2 1 1 5.88014 7.43447 1.05849 
891 2 1 1 8.34692 6.65084 0.715395 
416 1 1 1 9.47031 7.54105 2.37635 
417 1 1 1 9.34369 9.31418 3.50062 
418 1 1 1 8.66459 5.71214 3.93268 
419 1 1 1 6.61617 7.91831 3.07916 
420 1 1 1 7.52065 9.51939 2.44373 
421 1 1 1 6.77215 9.51167 2.58165 
422 1 1 1 9.80396 5.20342 3.79809 
423 1 1 1 8.03216 6.58849 2.70523 
424 1 1 1 6.7608 8.80191 3.69067 
425 1 1 1 7.15341 7.42209 3.09471 
426 1 1 1 5.51848 9.06905 3.50614 
427 1 1 1 8.0239 7.66182 2.27412 
428 1 1 1 5.55755 5.69008 3.20156 
429 1 1 1 8.59982 7.10613 2.64451 
430 1 1 1 9.72546 5.88934 2.1297 
431 1 1 1 8.16905 7.26854 2.27354 
432 1 1 1 5.59754 7.91776 3.71569 
433 1 1 1 8.99541 5.90304 2.37741 
434 1 1 1 8.62064 7.06215 3.52595 
435 1 1 1 5.71641 5.71442 2.21388 
436 1 1 1 5.23402 8.21039 2.04468 
437 1 1 1 6.28346 6.04471 3.36047 
438 1 1 1 5.42142 7.77789 3.06545 
439 1 1 1 9.10145 8.0171 3.31794 
440 1 1 1 6.13254 9.55459 3.92785 
441 1 1 1 9.11623 6.39984 2.06202 
442 1 1 1 8.28345 9.94309 3.47383 
892 2 1 1 5.22575 9.12736 3.48857 
893 2 1 1 5.79801 7.23351 3.5443 
894 2 1 1 8.33795 5.85314 3.76723 
895 2 1 1 8.49568 6.8223 2.46525 
896 2 1 1 9.68103 9.03982 2.21309 
897 2 1 1 9.08725 9.35877 2.90639 
898 2 1 1 7.33009 6.78126 2.62863 
899 2 1 1 7.62163 6.76281 2.61746 
900 2 1 1 8.60396 6.69437 2.20316 
901 2 1 1 8.43625 8.04446 3.2404 
902 2 1 1 7.27608 9.07324 3.9372 
903 2 1 1 9.40499 9.67824 2.1385 
904 2 1 1 8.03177 9.99602 3.16476 
905 2 1 1 6.59706 6.70393 2.88627 
906 2 1 1 7.7836 8.97205 3.23969 
907 2 1 1 9.51674 7.82435 3.83164 