# vtk DataFile Version 4.2
Generated by LIGGGHTS
ASCII
DATASET POLYDATA
POINTS 1000 float
1.24847 0.433917 0.269633 3.27155 0.406954 0.643695 0.0914696 0.716462 0.0731945 
2.22154 0.686153 0.466278 1.79117 1.59616 0.606068 2.62289 1.5454 0.0537063 
4.67369 1.59495 0.607011 0.955538 2.13461 0.513266 2.36582 2.51026 0.111138 
3.68554 2.02628 0.580342 0.198261 2.7466 0.244119 1.33562 3.09506 0.20687 
3.16788 3.03112 0.400215 4.57894 3.06406 0.219134 0.38342 3.71108 0.064745 
2.27817 3.52705 0.0176733 1.51687 4.07824 0.366096 2.61396 4.52185 0.551995 
3.61124 4.66173 0.531421 0.246838 0.210632 1.0363 2.11805 0.12985 1.29255 
0.687144 1.07198 0.792836 2.73905 1.34056 1.02328 0.125471 1.92024 1.08992 
2.6805 2.33844 1.04346 0.645661 2.84754 1.1347 1.67846 2.59497 1.0362 
3.91597 2.89577 1.04624 4.90852 2.92965 1.1506 1.38261 3.55785 1.21408 
2.39765 3.29645 0.994309 0.317317 3.84176 1.06465 1.92048 4.70697 1.29881 
4.55967 4.66224 0.892014 3.72529 0.00783953 1.70812 0.419852 0.644132 1.94488 
1.44294 0.785886 1.62882 2.63286 0.80809 1.86063 4.37393 0.791764 1.49113 
1.01502 1.68084 1.51052 2.00796 1.78414 1.5959 3.64634 1.49365 1.43652 
3.3898 2.40771 1.74531 4.451 2.09065 1.45257 2.92016 3.34867 1.84783 
1.16757 4.26106 1.9276 4.18537 3.80358 1.41439 5.00325 4.32446 1.72848 
3.22779 4.51613 1.44314 1.17452 0.341015 2.53154 2.21912 0.0583719 2.37574 
4.52342 0.268656 2.3499 3.57903 0.862858 2.20959 0.787896 1.37715 2.63097 
1.83803 1.25301 2.42454 2.94986 1.65871 2.35828 3.92235 1.78927 2.54727 
0.374887 2.31181 2.02933 1.34099 2.15559 2.3247 4.84753 2.13051 2.3861 
1.60265 3.08546 2.06694 2.44315 2.50801 2.13177 4.39656 2.9433 2.01804 
0.607111 3.29796 2.02526 3.92076 3.60593 2.59575 2.11687 3.967 1.98301 
3.41718 4.45152 2.42197 4.56483 4.51697 2.61434 1.55533 0.850864 3.29715 
2.65199 0.861201 2.87847 4.0533 0.951238 3.09054 4.9868 1.09615 2.65649 
2.15038 1.99298 3.02201 0.594011 2.56286 2.9956 1.58646 2.83481 3.09684 
3.27464 2.54765 2.7281 4.8621 2.98596 2.98247 0.409485 3.88699 2.80982 
1.39696 3.75741 2.77684 2.74273 3.78619 2.73681 0.183822 4.71446 3.32194 
1.18107 4.74942 3.28763 2.60141 4.75841 3.06678 0.860014 0.0412938 3.52614 
2.17894 0.0812719 3.42926 3.36383 0.00579808 3.79613 0.37425 0.958629 3.47463 
3.19076 1.00142 3.72314 4.91103 0.69031 3.76381 2.2447 1.33733 3.83509 
3.8561 1.71152 3.95975 4.64719 1.85216 3.34686 1.27496 2.0181 3.56977 
2.984 2.06446 3.56547 2.69195 3.02701 3.39764 3.80306 2.63191 3.58899 
4.71582 3.04768 3.97347 0.858338 3.34045 3.57438 3.84619 3.5821 3.87187 
1.97428 4.10659 3.51055 2.93674 3.95487 3.71328 4.77933 3.90333 3.41001 
3.93528 4.49359 3.38947 4.87643 4.85605 3.70827 1.51853 0.433747 4.21237 
2.49735 0.243515 4.36222 0.560507 0.650113 4.41016 4.0307 0.770107 4.22809 
0.0379792 1.57922 4.25457 1.21797 1.40641 4.35084 3.55525 2.36189 4.66848 
0.353459 2.5262 4.02249 2.22997 2.52413 4.13825 0.292096 3.45534 4.52456 
1.42501 3.19666 4.39011 2.98021 3.17285 4.42719 1.14891 4.28206 4.18966 
2.1448 3.93984 4.48565 3.38683 4.09135 4.60995 4.38284 4.26376 4.3624 
0.160965 4.47092 4.30521 3.09754 4.89389 4.04121 1.80732 0.0977186 5.11447 
3.41305 0.371788 4.90459 2.35975 1.12165 4.81897 4.26597 0.709634 5.32047 
1.51408 1.26175 5.3317 3.53716 1.38982 4.93036 4.48974 1.64018 4.74754 
1.66352 2.15138 4.87998 2.66512 2.05828 5.00795 0.780852 2.63023 4.92605 
2.17819 3.10073 5.10136 4.28273 3.01897 4.87728 1.41387 3.8017 5.30681 
0.786397 4.82395 5.02625 2.42771 4.85338 4.78972 4.10141 4.99186 5.00538 
0.495636 0.31603 5.35501 1.3297 0.44838 5.92046 3.52785 0.445246 5.98665 
2.61367 0.780918 5.72522 0.666308 1.64745 5.68791 3.73 1.42181 5.91261 
1.85627 2.03843 5.86269 3.88524 2.4305 5.62156 4.87443 2.39 5.45438 
2.60789 2.70547 5.94156 0.258951 3.26584 5.50157 3.25489 3.24992 5.38722 
4.64043 3.29378 5.88917 0.625747 4.18438 5.80021 2.53592 3.9697 5.73146 
4.04143 3.87307 5.33311 1.61498 4.93346 5.57546 0.695021 0.932007 6.52314 
1.93918 1.11206 6.3884 4.48046 0.837927 6.42234 2.78367 1.71672 6.03929 
0.824456 2.63991 6.03336 3.47807 2.59627 6.52682 4.74452 2.52444 6.52041 
0.0640388 3.2442 6.48603 0.946092 3.73153 6.64147 1.62778 3.23156 6.10591 
3.2541 3.65847 6.35839 1.73683 4.22409 6.2698 4.3473 4.14954 6.32727 
0.0557491 4.9781 6.03125 0.968074 4.89139 6.46925 2.5254 4.92399 6.04995 
3.47396 4.60111 5.9844 1.34247 0.286144 6.93984 2.54455 0.434495 6.88177 
3.46012 0.0270407 6.92663 3.271 1.13208 6.79104 2.32629 1.32 7.29277 
4.09444 1.80452 6.76326 0.790523 1.90754 6.71826 2.06032 2.24618 6.84108 
3.00792 2.04746 7.21766 1.234 2.80341 6.92726 2.41859 3.17913 6.80986 
4.11398 3.30499 6.83515 0.0680669 4.23089 6.7304 2.59253 4.2967 6.85797 
1.5607 4.53847 7.19989 3.59707 4.41651 6.96728 4.55186 4.51813 7.26843 
0.327002 0.089876 7.9407 1.71329 0.233021 7.86885 4.84727 0.14388 7.95379 
0.613923 1.04144 7.51408 1.52106 1.24756 7.88063 3.44991 0.635174 7.71576 
4.41109 0.921966 7.42539 0.173052 1.86963 7.89809 3.72449 1.59043 7.78546 
1.10403 2.12248 7.64288 4.58099 2.1492 7.68506 2.58854 2.94955 7.90934 
3.62049 2.79163 7.75347 4.85571 3.09299 7.48746 1.6578 3.55995 7.41559 
3.12021 3.61692 7.37701 0.703941 4.15008 7.52306 2.38704 3.97394 7.95469 
4.02406 3.82036 7.75313 2.37639 4.94902 7.59853 3.24896 4.50101 7.92023 
3.54524 0.0814777 8.5378 0.153962 1.0082 8.40126 2.56061 0.890983 8.16912 
4.26651 0.796526 8.43631 2.83266 1.87888 8.1993 1.8805 2.17236 8.26787 
4.34087 2.0519 8.65242 0.780811 3.06088 8.03322 4.19799 3.09891 8.50632 
0.0363757 3.64544 8.44431 1.72114 3.15605 8.36204 3.17531 3.4443 8.54912 
1.06643 3.92796 8.44131 4.8538 3.84444 8.31512 0.321139 4.65023 8.32798 
2.09917 4.69177 8.58687 3.9365 4.92275 8.51762 4.87877 4.84298 8.17224 
0.00504739 0.20115 8.96872 2.29637 0.0532855 8.66088 1.30087 0.642168 8.68383 
2.67438 1.01495 9.16087 1.22152 1.63251 8.7937 3.53621 1.46745 8.77917 
0.505765 2.32566 8.72198 2.38268 1.99 9.11232 0.199025 3.07969 9.30138 
1.90927 2.88295 9.30462 4.90169 2.62728 9.26543 0.121158 4.27208 9.26252 
2.32418 3.78623 8.96519 3.2353 4.36282 9.02231 4.15813 3.9348 9.21007 
1.13887 4.77364 8.96692 1.87092 0.434924 9.48221 2.80531 0.226744 9.77658 
3.82064 0.310752 9.5778 4.7226 0.275655 10.0006 4.49442 1.0964 9.37811 
0.752623 1.42508 9.84221 1.72855 1.41559 9.62602 3.57073 1.32994 9.82346 
1.11003 2.31983 9.5166 3.23259 2.26857 9.59687 4.29211 2.01785 9.78567 
3.94386 2.95203 9.45869 1.3456 3.71048 9.41275 3.44874 3.85699 9.91176 
0.804833 4.63368 9.92482 1.92343 4.51661 9.55478 0.215794 5.41718 0.186744 
1.9033 5.2336 0.450558 2.93259 5.473 0.553702 1.16636 6.10319 0.391756 
4.56902 6.01242 0.236524 3.04207 6.60652 0.456347 1.26214 7.02327 0.00471317 
0.763394 7.82313 0.36021 2.05467 8.07149 0.524299 3.3755 7.54557 0.352939 
4.34563 7.61681 0.104881 4.02923 8.57967 0.258992 0.736885 9.26314 0.496065 
2.58993 9.12071 0.479799 1.6883 9.53786 0.365267 3.50411 9.42366 0.199995 
0.935079 5.03495 0.827725 3.90084 5.57499 0.83787 0.525291 5.93579 1.14189 
2.0714 6.3865 0.797098 3.98009 6.57143 0.907647 4.91903 6.83806 0.690682 
0.631115 6.88615 0.805412 1.59763 7.25181 0.918371 2.59609 7.45389 1.1029 
4.01886 7.64856 1.11135 1.40658 8.58067 1.08807 3.01716 8.39504 1.02052 
4.84353 8.18544 0.936545 0.264775 8.81178 1.2517 3.79397 9.06324 1.18312 
4.69706 9.15497 0.74397 1.16428 9.84733 1.19163 2.92632 9.54167 1.31983 
4.17006 10.001 0.812979 0.608074 5.08052 1.84022 4.25763 5.04269 1.81005 
1.76543 5.66445 1.59588 3.31101 5.66208 1.88741 0.814093 6.60271 1.87034 
2.52506 6.55516 1.7159 3.53015 6.78867 1.77461 4.56746 6.42088 1.93432 
1.69341 7.07257 1.93914 4.93626 7.44376 1.67488 0.87592 7.54786 1.53482 
1.8356 8.06295 1.82928 3.26052 7.77289 1.77813 4.20248 8.47139 1.92911 
2.45633 8.84646 1.87087 0.564029 9.49347 1.94008 1.61056 9.37353 1.94915 
4.55623 9.42006 1.72345 1.43315 5.24689 2.44499 2.45735 5.09942 2.04733 
1.68952 6.24172 2.63213 3.76987 6.36298 2.65106 0.86765 7.36985 2.55181 
3.22435 7.32199 2.67732 0.187856 8.04137 2.22501 4.18476 7.56705 2.36858 
1.00074 8.58911 2.02464 3.30199 8.59666 2.34425 3.14839 9.59025 2.46461 
4.14324 9.37683 2.65064 3.62719 5.35812 2.78344 2.54432 5.76761 2.82817 
4.64834 5.63971 2.77716 0.739492 6.4363 2.87948 4.6782 6.67595 2.92842 
2.20958 7.3405 2.75089 0.575946 8.14366 3.26938 1.62668 8.47038 2.80652 
2.62086 8.22327 2.97171 3.59075 8.16885 3.20058 4.50464 8.49329 2.94781 
0.448547 9.03139 2.82564 2.37309 9.18889 3.02576 1.38075 9.4379 2.92006 
2.08351 5.31513 3.73537 4.08512 5.61835 3.62932 0.163075 6.07636 3.60781 
1.22607 5.80112 3.47742 3.06789 5.82746 3.68438 0.822585 6.80235 3.80398 
2.39483 6.63197 3.42905 3.3834 6.75727 3.49336 1.45252 7.4944 3.42851 
4.15701 7.39037 3.44073 2.91921 7.69618 3.76398 2.052 8.52761 3.75372 
1.09616 8.85325 3.74733 3.56221 9.01133 3.74395 4.53714 8.87625 3.92523 
0.0978573 9.40729 3.67404 4.47765 9.85044 3.4587 0.682743 5.3065 4.15447 
2.43432 5.85515 4.55749 3.61944 5.71381 4.50819 4.8359 5.89906 4.22404 
1.71728 6.52254 4.16829 3.11693 6.58368 4.46975 4.12248 6.60352 4.21506 
0.297531 6.94837 4.65855 0.60993 7.79212 4.22346 2.26218 7.51131 4.48265 
4.03565 7.56852 4.46207 1.49325 8.14498 4.52679 3.37484 8.31356 4.54629 
4.9851 8.13561 4.63026 2.6718 9.2862 4.11119 0.707666 9.63855 4.56353 
1.68446 9.46108 4.35101 4.41051 9.85793 4.47168 1.54219 5.42164 4.70375 
3.18079 5.28455 5.29718 0.371613 5.82167 5.03204 4.75124 5.73006 5.20565 
1.26592 6.28853 5.1948 2.19582 6.83492 5.21006 3.97537 6.64352 5.29108 
1.26509 7.21194 4.80018 3.114 7.42706 5.00541 0.715236 8.4996 5.05619 
2.40867 8.51167 4.68638 4.19354 8.70455 4.95595 1.63657 8.85005 5.21936 
2.63513 9.5365 5.07816 3.5376 9.40527 4.66431 4.44401 5.0926 5.94444 
2.20819 5.7576 5.56124 0.375245 6.68422 5.62322 3.04402 6.37973 5.5299 
1.3181 7.21496 5.81668 3.30499 7.47795 5.98495 0.48178 7.758 5.83367 
2.2397 7.88458 5.59656 4.31357 7.81228 5.39227 3.09788 8.3854 5.50422 
4.34392 8.7337 5.94413 2.35377 8.92916 5.90994 0.890112 9.42067 5.55529 
[...]
POINT_DATA 1000
FIELD FieldData 7
id 1 1000 int
9 5 843 530 509 531 18 519 20 
506 526 600 11 595 255 603 109 510 
6 16 146 2 514 757 505 17 522 
12 513 1 501 504 529 516 8 748 
14 548 502 518 523 13 554 10 21 
909 537 794 4 34 640 35 555 23 
534 544 552 302 541 782 41 7 38 
508 546 547 532 550 71 22 170 533 
26 30 24 557 277 283 626 543 418 
67 542 644 29 638 545 33 40 63 
535 47 551 540 31 279 280 37 44 
32 556 558 28 900 561 560 570 654 
553 49 25 42 539 294 36 53 69 
45 572 559 408 54 562 187 80 59 
566 51 58 62 70 68 48 817 50 
669 43 683 55 220 663 588 57 61 
84 538 569 589 563 52 311 573 568 
575 571 64 578 582 583 567 574 96 
303 99 66 101 103 102 800 91 56 
92 95 202 699 78 72 74 337 580 
97 585 79 83 339 592 77 591 89 
122 118 870 579 590 576 82 88 104 
86 833 125 87 75 81 584 593 586 
581 577 235 715 127 120 123 602 107 
608 93 105 108 73 110 115 598 233 
601 228 743 124 226 119 604 116 128 
111 599 365 605 846 272 117 594 106 
240 112 735 507 633 372 606 607 528 
610 121 512 114 597 515 142 596 404 
503 511 612 143 135 152 611 625 723 
728 617 132 133 520 140 130 517 892 
129 151 984 148 147 134 616 138 144 
629 136 149 631 3 141 150 874 627 
632 613 139 131 614 620 622 383 641 
624 651 623 646 912 174 402 27 168 
642 653 659 657 160 615 173 647 636 
157 158 658 166 156 423 650 648 639 
171 652 161 163 154 167 162 668 924 
656 655 177 643 645 682 159 637 169 
649 155 660 436 172 450 194 60 420 
681 193 164 198 185 180 153 199 182 
940 661 677 673 192 190 207 948 674 
666 178 680 189 181 679 684 676 670 
188 662 469 664 183 675 179 196 176 
671 686 678 685 191 667 195 709 211 
215 970 693 701 689 703 206 665 200 
197 706 205 707 98 702 698 692 203 
214 218 691 690 209 210 700 201 216 
704 710 688 85 694 224 719 712 481 
219 741 708 992 705 222 221 212 961 
217 969 587 230 208 374 695 713 714 
737 736 720 225 238 227 727 726 733 
696 244 717 242 742 137 628 738 739 
716 239 991 734 234 237 246 722 725 
236 223 521 247 527 630 872 634 618 
229 243 635 245 231 732 718 248 724 
396 264 252 251 259 767 268 271 369 
358 525 260 380 896 773 747 891 758 
761 765 15 866 287 744 760 254 261 
609 269 250 382 904 257 524 768 253 
258 753 19 764 267 754 769 263 265 
262 762 756 413 763 778 755 282 781 
276 281 299 788 300 908 780 784 785 
790 746 777 775 536 293 286 292 786 
793 766 911 414 275 427 298 290 306 
818 289 774 285 816 296 274 783 313 
789 776 406 288 779 291 792 809 295 
324 325 812 813 323 278 811 284 321 
301 803 320 319 305 46 808 308 318 
549 316 796 814 807 322 672 310 314 
565 934 943 821 832 333 355 810 798 
802 797 307 815 343 805 345 312 315 
837 334 827 830 338 564 349 353 340 
831 819 332 94 348 952 801 835 864 
347 335 213 329 826 342 331 346 825 
354 823 100 336 327 804 351 824 829 
344 822 488 858 848 90 836 359 326 
377 352 350 834 341 371 328 373 126 
857 856 330 854 840 838 869 76 859 
850 845 466 861 362 989 363 863 847 
357 867 368 868 270 852 849 851 378 
1000 483 865 853 860 364 750 745 256 
862 356 366 842 841 361 367 113 266 
360 249 375 771 752 389 273 990 385 
884 394 391 232 390 895 987 400 399 
490 873 770 772 898 749 759 384 871 
878 395 887 405 621 879 886 881 381 
876 889 145 393 403 883 397 899 387 
885 894 901 398 893 386 432 791 437 
888 424 922 882 927 877 410 925 412 
426 411 921 905 751 906 928 297 907 
388 419 431 415 175 914 926 438 422 
39 417 903 918 919 439 915 923 461 
920 916 434 917 409 407 429 457 787 
435 433 430 902 939 459 425 942 945 
165 416 937 440 944 421 951 448 910 
913 806 304 309 799 317 449 428 453 
470 941 447 947 444 186 950 446 456 
454 795 946 462 929 452 933 468 442 
460 184 443 960 930 938 936 441 935 
931 949 65 445 464 472 204 451 953 
687 465 932 455 976 971 458 954 964 
474 478 965 967 977 697 476 467 966 
711 962 958 471 959 820 972 463 473 
828 497 379 489 956 955 998 974 968 
957 477 994 499 996 985 844 973 475 
493 494 721 999 485 975 496 487 491 
479 963 988 482 855 241 376 978 995 
729 495 486 730 480 986 740 484 880 
370 492 839 997 890 500 979 619 498 
401 392 875 981 897 983 982 993 731 
980 
type 1 1000 int
1 1 2 2 2 2 1 2 1 
2 2 2 1 2 1 2 1 2 
1 1 1 1 2 2 2 1 2 
1 2 1 2 2 2 2 1 2 
1 2 2 2 2 1 2 1 1 
2 2 2 1 1 2 1 2 1 
2 2 2 1 2 2 1 1 1 
2 2 2 2 2 1 1 1 2 
1 1 1 2 1 1 2 2 1 
1 2 2 1 2 2 1 1 1 
2 1 2 2 1 1 1 1 1 
1 2 2 1 2 2 2 2 2 
2 1 1 1 2 1 1 1 1 
1 2 2 1 1 2 1 1 1 
2 1 1 1 1 1 1 2 1 
2 1 2 1 1 2 2 1 1 
1 2 2 2 2 1 1 2 2 
2 2 1 2 2 2 2 2 1 
1 1 1 1 1 1 2 1 1 
1 1 1 2 1 1 1 1 2 
1 2 1 1 1 2 1 2 1 
1 1 2 2 2 2 1 1 1 
1 2 1 1 1 1 2 2 2 
2 2 1 2 1 1 1 2 1 
2 1 1 1 1 1 1 2 1 
2 1 2 1 1 1 2 1 1 
1 2 1 2 2 1 1 2 1 
1 1 2 2 2 1 2 2 2 
2 1 2 1 2 2 1 2 1 
2 2 2 1 1 1 2 2 2 
2 2 1 1 2 1 1 2 2 
1 1 2 1 1 1 2 1 1 
2 1 1 2 1 1 1 2 2 
2 2 1 1 2 2 2 1 2 
2 2 2 2 2 1 1 1 1 
2 2 2 2 1 2 1 2 2 
1 1 2 1 1 1 2 2 2 
1 2 1 1 1 1 1 2 2 
2 2 1 2 2 2 1 2 1 
2 1 2 1 1 1 1 1 1 
2 1 1 1 1 1 1 1 1 
2 2 2 2 1 1 1 2 2 
2 1 2 1 1 2 2 2 2 
1 2 1 2 1 2 1 1 1 
2 2 2 2 1 2 1 2 1 
1 2 2 2 2 2 1 2 1 
1 2 1 2 1 2 2 2 1 
1 1 2 2 1 1 2 1 1 
2 2 2 1 2 1 2 2 1 
1 2 2 2 2 1 1 1 2 
1 2 2 1 1 1 2 2 2 
2 2 2 1 1 1 2 2 2 
2 1 2 1 2 1 2 2 2 
2 1 2 2 1 1 1 2 2 
1 1 2 1 2 2 2 2 2 
1 1 2 1 1 2 2 1 2 
1 1 1 1 1 2 1 1 1 
1 2 1 1 2 2 2 2 2 
2 2 1 2 1 2 2 1 1 
2 1 1 1 2 1 2 2 1 
1 2 1 2 1 2 2 1 1 
1 2 2 1 2 2 2 1 2 
1 1 1 2 1 2 2 2 2 
2 2 2 2 2 1 1 1 2 
2 2 2 1 1 1 1 1 1 
2 1 2 1 2 1 1 2 1 
2 2 1 1 2 1 2 2 1 
1 1 2 2 1 1 2 1 1 
1 2 1 1 1 1 2 1 1 
2 1 2 2 2 1 2 1 1 
2 2 2 2 2 1 1 2 2 
2 2 1 2 1 2 1 1 1 
2 1 2 2 1 2 1 1 1 
2 2 1 1 1 2 2 2 2 
1 1 1 1 2 1 1 1 2 
1 2 1 1 1 2 1 2 2 
1 2 1 2 2 1 2 1 1 
1 1 1 2 1 1 1 1 1 
2 2 1 2 2 2 2 1 2 
2 2 1 2 1 2 1 2 2 
1 2 1 2 1 2 2 2 1 
2 1 2 2 2 1 2 2 1 
2 1 1 2 2 1 1 1 1 
1 1 1 2 2 1 1 2 1 
2 1 1 1 1 2 2 1 1 
1 2 2 2 2 2 2 1 2 
2 1 2 1 2 2 2 2 1 
2 2 1 1 1 2 1 2 1 
2 2 2 1 2 1 1 2 1 
2 1 2 2 2 2 1 2 1 
1 1 2 2 2 2 2 1 2 
1 1 1 1 1 2 2 1 1 
1 1 2 2 2 1 2 2 1 
2 2 1 2 1 1 1 1 2 
1 1 1 2 2 1 1 2 2 
1 1 2 1 2 1 2 1 2 
2 2 1 1 2 1 1 1 1 
1 2 1 2 1 1 2 1 1 
1 2 2 1 2 1 2 1 1 
1 1 1 2 2 2 2 1 2 
2 2 1 1 1 1 1 1 2 
2 1 2 1 2 2 1 2 2 
1 1 2 2 2 2 1 1 2 
2 2 2 1 2 2 2 1 1 
2 1 1 1 2 2 2 2 2 
2 1 2 1 2 2 2 2 1 
1 1 2 2 1 2 1 1 1 
1 2 2 1 2 1 1 2 2 
2 1 1 2 1 2 2 1 2 
1 1 2 2 2 1 2 2 1 
1 1 2 2 2 2 2 2 2 
2 
i 3 1000 int
0 0 0 0 0 0 1 0 1 
0 0 0 0 0 0 0 0 0 
0 0 0 0 0 0 0 0 0 
0 0 0 0 0 0 0 0 1 
0 0 0 0 0 1 1 0 0 
0 0 1 0 0 1 0 0 0 
0 0 0 0 0 0 0 1 0 
0 0 0 0 0 0 1 0 0 
0 0 0 0 0 0 0 0 0 
0 0 0 0 0 0 0 0 0 
0 0 0 0 0 0 0 0 0 
0 0 0 0 0 0 1 0 0 
0 0 0 0 0 0 0 0 0 
0 0 0 0 0 0 0 0 0 
0 0 0 0 0 0 0 0 0 
1 0 0 0 0 0 0 0 0 
0 0 0 0 0 0 0 1 0 
0 0 0 0 0 0 0 0 0 
0 0 0 0 0 0 0 0 0 
1 0 0 0 0 0 0 0 0 
0 0 0 0 0 0 0 0 0 
0 0 0 0 0 0 0 0 0 
0 0 0 0 0 0 0 0 0 
0 0 0 0 1 0 0 0 0 
0 0 0 0 0 0 0 0 0 
0 0 0 0 0 0 1 0 0 
0 0 0 0 0 0 1 0 0 
0 0 0 0 0 0 0 1 0 
0 0 0 0 1 0 0 0 0 
0 0 0 0 0 0 0 0 0 
0 0 0 0 0 0 0 0 0 
0 0 0 0 0 0 0 0 0 
0 0 0 0 0 0 0 0 0 
0 0 0 0 0 0 0 0 0 
0 0 0 0 0 0 0 0 0 
0 0 0 0 0 0 0 1 0 
0 0 0 0 0 0 0 0 0 
0 0 0 0 0 0 1 0 0 
0 0 0 0 0 0 0 0 0 
0 0 0 0 0 0 0 0 0 
1 0 0 0 0 0 0 0 0 
0 1 0 0 0 0 0 0 0 
0 0 0 0 0 0 0 0 0 
0 0 0 0 0 0 0 0 0 
0 0 0 0 0 0 0 0 0 
0 0 0 0 0 0 0 0 0 
0 0 0 0 1 0 0 1 0 
0 0 0 0 0 0 0 0 0 
0 0 0 0 0 0 0 0 0 
0 0 0 0 0 0 0 0 0 
0 0 0 0 0 0 0 0 0 
0 0 0 0 0 0 0 0 0 
0 0 0 0 0 0 0 0 0 
0 0 0 0 0 0 0 0 0 
1 0 0 0 0 0 0 0 0 
0 0 0 0 0 0 0 0 0 
1 0 0 0 0 0 0 0 0 
0 0 0 0 0 0 0 1 0 
0 1 0 0 0 0 0 0 0 
0 0 0 1 0 0 0 0 0 
0 0 0 0 0 0 0 0 0 
0 0 0 1 0 0 0 0 0 
0 0 0 0 0 0 0 0 0 
0 0 0 0 0 0 0 0 0 
0 0 0 0 0 0 0 0 0 
0 0 0 0 0 0 0 0 0 
0 0 0 0 0 0 0 0 0 
0 0 0 0 0 0 0 0 0 
0 0 0 0 0 0 0 0 0 
0 0 0 0 0 0 0 0 0 
0 1 0 0 0 0 0 0 0 
0 0 0 0 0 0 0 0 0 
0 0 0 0 0 0 0 0 0 
0 0 0 0 0 0 0 0 0 
0 0 0 0 0 0 0 0 0 
0 0 0 0 0 0 0 0 0 
0 0 0 0 1 0 0 0 0 
0 0 0 0 0 0 0 0 0 
0 0 0 0 0 0 1 0 0 
0 0 0 0 0 0 1 0 -1 
0 0 0 0 0 0 0 0 0 
0 0 0 0 0 0 0 1 0 
0 0 -1 0 1 -1 0 0 0 
0 0 0 0 0 0 0 0 -1 
0 0 0 0 0 0 0 0 -1 
0 0 0 0 0 0 0 0 -1 
0 0 -1 0 0 0 1 0 0 
0 0 0 0 0 0 0 0 0 
0 0 0 0 0 0 0 0 0 
0 0 0 0 0 0 0 0 1 
0 0 1 0 0 0 0 0 0 
0 0 0 0 -1 0 0 0 0 
0 0 0 0 0 0 1 0 0 
0 0 0 0 0 0 0 0 1 
0 0 0 0 0 0 0 0 0 
0 0 0 0 0 0 0 0 0 
0 0 0 0 0 0 0 0 0 
0 0 0 0 -1 0 0 0 0 
0 0 0 1 0 0 0 0 0 
0 0 0 0 0 0 0 0 0 
0 0 0 0 0 0 0 0 0 
0 0 0 0 0 0 0 0 0 
0 0 0 0 0 0 0 0 0 
0 0 0 1 0 0 0 0 0 
0 0 0 0 0 0 0 0 0 
0 0 0 0 0 0 0 0 0 
0 0 0 0 0 0 0 0 0 
0 0 0 0 0 0 0 0 0 
0 0 0 0 0 0 0 0 0 
0 0 0 0 0 0 0 0 0 
0 0 0 0 0 0 0 0 0 
0 0 0 0 0 0 0 0 0 
0 0 0 0 0 0 0 0 0 
0 0 0 0 0 0 1 0 0 
0 0 0 0 0 0 0 0 0 
0 0 0 0 0 0 0 0 0 
0 0 0 0 0 0 0 0 0 
0 0 0 0 0 0 0 0 0 
1 0 0 0 0 0 1 0 0 
0 0 0 0 0 0 0 0 0 
0 0 0 0 0 0 0 0 0 
0 0 0 0 0 0 0 0 0 
0 0 0 0 0 0 0 0 0 
0 0 0 0 0 0 0 0 0 
0 0 0 0 0 0 0 0 0 
0 0 0 1 0 0 0 0 0 
0 0 0 0 0 0 0 0 0 
0 0 0 0 0 0 0 0 0 
0 0 0 0 0 0 0 0 0 
0 0 0 0 0 0 0 0 0 
0 0 0 0 0 0 0 0 0 
0 0 0 0 0 0 0 0 0 
0 0 0 0 0 0 0 0 0 
0 0 0 0 0 0 0 0 0 
0 0 0 0 0 0 0 0 0 
0 0 0 0 0 0 0 0 0 
0 0 0 0 0 0 0 0 0 
0 0 0 0 0 0 0 0 0 
0 0 0 0 0 0 0 0 0 
0 0 0 0 0 0 0 0 0 
0 0 0 0 0 0 0 0 0 
0 0 0 0 0 0 0 0 0 
0 0 0 0 0 0 0 0 0 
0 0 0 0 0 0 0 0 0 
0 0 0 0 0 0 0 0 0 
0 -1 0 0 0 0 0 0 0 
0 0 0 0 0 0 1 0 0 
0 0 0 0 0 0 0 0 0 
0 0 0 0 0 0 0 0 0 
0 0 0 0 0 0 0 0 0 
0 0 0 0 0 0 0 -1 0 
0 0 0 0 0 0 1 0 0 
0 0 0 0 0 0 0 0 0 
0 0 0 0 0 0 0 0 0 
0 0 0 0 0 0 0 0 0 
0 0 0 0 0 0 0 0 0 
0 0 0 0 0 0 0 0 0 
0 0 0 0 0 0 0 0 -1 
0 0 -1 0 0 0 0 0 0 
0 0 0 0 0 0 1 0 0 
0 0 0 0 0 0 0 0 0 
0 0 0 0 0 0 0 0 0 
0 0 0 0 0 0 0 0 -1 
0 0 0 0 0 -1 0 0 -1 
1 0 -1 0 0 -1 0 0 -1 
0 0 0 0 0 0 0 0 -1 
0 0 0 0 0 0 0 0 0 
0 0 0 0 0 0 0 0 0 
0 1 0 0 0 0 0 0 0 
0 0 0 0 0 0 0 0 0 
0 0 0 0 0 0 0 0 1 
0 0 1 0 0 0 0 0 0 
0 0 1 0 1 0 0 0 0 
0 0 0 0 1 0 0 0 0 
0 0 0 0 0 0 0 0 0 
0 0 1 0 0 0 0 0 0 
0 0 0 0 0 0 0 0 0 
0 0 1 0 0 0 0 0 0 
0 1 0 0 1 0 0 0 0 
0 0 0 0 0 0 0 0 0 
0 0 0 0 0 0 0 0 0 
0 0 0 0 0 0 0 0 0 
0 0 0 0 0 0 0 0 0 
0 0 0 0 0 0 0 0 0 
0 1 0 0 0 0 0 0 0 
0 0 0 0 0 0 0 0 0 
0 0 0 0 0 0 0 0 0 
0 0 0 0 0 0 0 1 0 
0 0 0 0 0 0 0 0 0 
0 0 0 0 0 0 0 0 0 
0 0 0 -1 0 0 0 0 0 
0 0 0 0 0 0 0 0 0 
0 0 0 0 0 0 0 0 0 
0 0 0 0 0 0 0 1 0 
0 0 0 0 0 0 0 0 0 
0 0 0 0 0 0 0 0 0 
0 0 0 0 0 0 0 0 0 
0 0 0 0 0 0 0 0 0 
0 0 0 0 0 0 0 0 0 
0 0 0 0 0 0 0 0 0 
0 0 0 0 0 0 0 0 0 
0 0 0 0 0 0 0 0 0 
0 0 0 0 0 0 0 0 0 
0 0 0 0 0 0 0 0 0 
0 0 0 0 0 0 0 0 0 
0 0 0 0 0 0 0 0 0 
0 0 0 0 0 0 0 0 0 
-1 0 0 0 0 0 0 0 0 
0 0 0 0 0 0 0 0 0 
0 0 0 0 0 0 0 0 0 
0 0 0 0 1 0 0 1 0 
0 0 0 0 0 0 0 0 0 
0 0 0 0 0 0 0 0 0 
0 0 0 0 0 0 0 0 0 
0 0 0 0 0 0 0 0 0 
0 0 0 0 0 0 0 0 0 
0 0 0 0 0 0 0 0 0 
0 0 0 0 0 0 -1 0 0 
0 0 0 0 0 0 0 0 0 
0 0 0 0 0 0 0 0 0 
0 0 0 0 0 0 0 0 0 
0 0 0 0 0 0 0 0 0 
0 0 0 0 0 0 -1 1 0 
0 0 0 0 0 0 0 0 0 
0 0 0 0 0 0 0 0 0 
0 0 0 0 0 0 -1 0 0 
0 0 0 0 0 0 0 0 0 
0 0 0 0 0 0 0 0 0 
0 0 0 0 0 0 0 1 0 
0 0 0 0 0 0 -1 0 0 
0 0 0 0 0 0 0 0 0 
0 0 0 0 0 0 0 0 0 
0 0 0 0 0 0 0 0 0 
0 0 0 0 0 0 0 0 0 
0 0 0 0 0 0 0 0 0 
0 0 0 0 0 0 0 0 0 
0 0 0 -1 0 0 0 0 0 
0 0 0 0 0 0 0 0 0 
0 0 0 0 0 0 0 1 0 
0 0 0 0 0 0 0 0 0 
0 0 0 0 0 0 0 0 0 
0 0 0 0 0 -1 0 0 0 
0 0 0 0 0 0 0 0 0 
0 0 0 0 0 0 0 0 0 
0 0 0 0 0 0 0 0 0 
0 0 -1 0 0 -1 0 0 -1 
0 0 0 0 0 0 0 0 0 
0 0 0 0 0 0 0 0 0 
0 0 0 0 0 0 0 0 -1 
0 0 0 0 0 -1 0 0 0 
0 0 0 0 0 0 0 0 0 
0 0 0 0 0 1 0 0 0 
0 0 0 0 0 0 0 0 0 
0 0 1 0 0 0 0 0 0 
0 0 1 0 0 0 0 0 0 
0 0 1 0 0 0 0 0 0 
0 0 0 0 0 0 0 0 0 
0 0 0 0 0 0 0 0 0 
0 0 0 0 0 0 0 0 0 
0 0 0 -1 0 0 0 0 0 
0 0 0 0 0 0 0 0 0 
0 0 0 0 0 0 0 0 0 
0 0 0 0 0 0 0 0 0 
0 0 0 0 0 0 0 0 0 
0 0 0 0 0 0 0 0 0 
0 0 0 0 0 0 0 0 0 
0 0 0 0 0 0 0 0 0 
0 0 0 0 0 0 0 0 0 
0 0 0 0 0 0 0 0 0 
0 0 0 0 0 0 0 0 0 
0 0 0 0 0 0 0 0 0 
0 0 0 0 -1 0 0 0 0 
0 0 0 0 0 0 0 0 0 
0 0 0 0 0 0 0 0 0 
0 0 0 -1 0 0 0 0 0 
0 0 0 0 0 0 0 0 0 
0 -1 0 0 0 0 0 0 0 
0 0 0 0 0 0 0 0 0 
0 0 0 0 0 0 0 0 0 
0 0 0 0 0 0 0 0 0 
0 0 0 0 0 0 0 0 0 
0 0 0 0 0 0 0 -1 0 
0 0 0 0 0 0 0 0 0 
0 0 0 0 0 0 0 0 0 
0 0 0 0 0 0 0 0 0 
0 0 0 0 0 0 0 0 0 
0 0 0 0 0 0 0 0 0 
0 0 0 0 0 0 0 0 0 
0 0 0 0 -1 0 0 0 0 
0 0 0 0 0 0 0 0 0 
0 0 0 0 0 0 0 0 0 
0 0 0 0 0 0 0 0 0 
0 0 0 0 0 0 -1 0 0 
0 0 0 0 0 0 0 0 0 
0 0 0 0 -1 0 0 0 0 
0 0 0 0 0 0 0 0 0 
0 0 0 0 0 0 0 0 0 
0 0 0 0 0 0 0 0 0 
0 0 0 0 0 0 0 0 0 
0 0 0 0 0 0 0 0 0 
0 0 0 0 0 0 -1 -1 0 
0 0 0 0 0 0 0 0 0 
-1 0 0 0 0 0 0 0 0 
-1 0 0 0 0 0 0 0 0 
0 0 0 0 0 0 0 0 0 
0 0 0 0 0 0 0 0 0 
0 0 0 0 0 0 0 0 0 
0 0 0 0 0 0 -1 0 0 
0 0 0 0 0 0 0 0 0 
0 0 0 0 0 0 0 0 0 
0 0 0 0 0 0 0 -1 0 
0 0 0 0 0 0 0 0 0 
0 0 0 0 0 0 0 0 0 
0 0 0 0 0 0 0 0 0 
0 0 0 0 0 0 0 0 0 
0 0 0 0 0 0 0 0 0 
0 0 0 0 0 0 0 0 0 
0 0 0 0 0 0 0 0 0 
0 0 0 0 0 0 -1 0 0 
0 0 0 0 0 0 0 0 0 
0 0 0 0 0 0 0 0 0 
0 0 0 0 0 0 0 0 0 
0 0 0 0 -1 0 -1 0 0 
0 0 0 0 0 0 0 0 0 
0 0 0 0 0 0 0 0 0 
-1 0 0 0 0 0 0 0 0 
0 0 0 0 0 0 0 0 -1 
0 -1 0 0 0 0 0 -1 0 
0 0 0 0 0 -1 0 0 0 
0 0 0 0 0 -1 0 0 0 
0 0 -1 0 0 -1 0 0 -1 
0 0 0 0 0 -1 0 0 0 
0 0 0 0 0 0 0 0 0 
0 0 0 
v 3 1000 double
0.45335422346 -0.84057370474 -0.77613458603 -0.59429846623 0.37680805778 0.22216959814 -0.056799313823 -0.35509293799 0.016688799432 
0.57349656515 -0.26933317507 0.46886744 -0.59105714207 0.16167590875 0.35436455785 -0.69141176753 1.7146173893 -0.33875516371 
1.0348541442 -0.43527983384 -0.94540283861 -0.8423485774 -0.93419740826 -0.71505493993 -0.58696456207 1.2440130053 0.71659666767 
-0.36672683968 -0.38518857033 -0.49000223025 -0.11572036036 -0.16912579474 -0.7889928958 -0.77645270094 -0.22217583448 -0.5226988214 
-0.088770206183 0.49904222717 1.0036273405 0.40433343707 0.20092551667 -0.079448678262 1.0269667296 0.17678537877 -0.4690081732 
-0.70470071411 1.0977133443 1.000187313 1.2641221844 -0.63440040793 0.70895564041 1.2448789513 1.4517617542 1.0446045372 
1.8227013316 -0.0019678535002 -1.5642991829 -0.19018409232 -0.45194840602 -0.31866601001 -0.43772026654 -0.28102260895 0.39797481115 
0.83937162373 -0.76675364688 -0.25853967861 0.56904455938 -0.25073861624 -0.89559280318 -1.2077019405 -1.1723226433 -0.2332015898 
-0.90790608441 -0.35425763289 0.49087488486 -1.0018073067 -2.1508972403 0.44625091742 -0.83579840758 -0.77483823627 -0.1135658158 
1.5370432069 -0.31435672925 -0.57302974734 1.4584556122 -1.2157916448 -0.89448586828 -0.76875170084 -1.7221034346 -0.28640070168 
-0.88760759805 -0.15406763484 0.77502297053 -1.6066587969 -1.8441208638 0.065199729326 0.25229682863 -1.1829490714 -1.8518425773 
2.7547635565 1.0805195451 -2.5633502868 -0.11019539206 0.047403861467 0.46608093611 -1.2529538 -1.0200034995 0.44540432167 
-1.4340927265 -0.78352433673 -0.61834689782 0.33658829407 -0.87983467897 -2.0697220003 0.77236953437 -0.50602628716 0.00044802429127 
-0.87255204629 -0.23205274612 0.34736338421 -0.85183205962 -1.5502944381 -0.70961636698 0.61891170135 -0.73055789772 -0.7720867055 
1.0471004382 -0.29432431859 -1.2303073257 1.0652506762 -0.96214657408 -0.52925398985 -0.47328384834 -0.043403377797 0.66287548592 
0.087263998014 -1.7566629814 0.83302018878 1.3412167056 0.91592980809 -3.0052912271 1.0093147331 0.46693742855 -1.9440700528 
-0.60035615096 0.34934983993 -2.2828311191 -1.7660220948 -0.53261431751 -0.20892530784 -0.10180342928 -0.0023541388383 -2.1604540772 
0.072884571423 -0.17821126033 0.77816023239 0.017514263094 0.41214801405 0.023338875237 1.4303329893 -2.743823505 2.2658262402 
1.9656943285 -1.5176639815 -1.3208081114 -0.32996819747 -0.5647800591 -0.44754699666 -0.13313211596 0.31253609315 -1.1042838756 
-0.9730663016 -0.94950605163 0.37428598439 -0.29810902757 -1.3589000795 0.87310196328 -0.21180500859 -0.32291504035 -3.6647732245 
-1.2513802818 -1.1545122073 0.33228199355 -0.20624356753 -0.9959154219 -1.7269706477 -0.25884505927 0.5685400135 -1.8270582074 
-0.36807865914 -0.86650104162 -0.31833276564 -0.49440862769 0.31734168568 -1.6987259891 0.98224411255 -1.9145595691 -1.8773860248 
-0.82134038372 0.075458718495 -2.0946516697 0.19485028742 -0.46412106266 -2.1978076655 -0.1100596583 0.029142892582 -1.240904092 
2.1461095752 -2.3002625157 -1.3632706565 1.688122723 1.3844696582 -0.64558684189 0.53763039769 -0.11819966834 -1.6150416386 
0.19453116382 -1.0619357053 -1.1382879064 -0.7383961746 0.13507479057 -0.18397694008 -1.4587092867 -1.0124990968 -1.3596452981 
0.34736249382 0.17267907719 -1.2389349115 -0.19093443582 -1.7277973061 -1.4735772546 0.53195258385 -1.525079068 0.54182619619 
0.42515425635 -1.2583806335 1.1109574077 -0.54348154526 1.4148532976 0.73043348443 1.5288508013 -0.76934400585 0.049697168546 
1.4649553278 -1.4968528168 -1.7229222505 -0.50416850626 -0.93481249772 -1.1855611442 0.34098835481 -1.3591866336 0.22964980118 
-0.12733604191 -0.2603146327 -0.9960468674 0.096315966354 0.22359898875 -0.29233080625 -0.35743249586 -0.96654415586 1.2357385266 
1.3750515136 0.98368282556 -0.8740580442 0.53677731925 -0.41010779887 0.20866435576 0.0082077432012 -1.1691830061 -1.4257596453 
1.1167647702 0.50513517554 0.52735496733 -0.4138922438 0.59352531748 -2.9647452349 0.25804452789 -1.1348589658 0.24317190637 
-0.014907862361 -0.1197348608 -0.5785879779 0.1344280131 -0.25841081323 -1.6420116903 0.63817245759 -0.073267017221 -1.2641036355 
-2.3086522871 -0.52071038115 -1.5554454872 -1.4948720344 -2.2721373466 1.051885472 0.7539911207 0.11485775728 -2.3624629287 
-0.12777978131 -0.77412694074 1.2122879652 0.22593815613 -0.39388690354 0.70031651044 0.97603332225 -1.0171065852 -1.7899982627 
0.64045159085 -1.0379284104 -1.6402322477 -0.93252701372 -0.90048940411 -1.0849527269 1.0773490069 0.67714560671 -1.084872256 
-1.0339764531 -0.019769195092 -0.4514734017 1.4525389473 -0.5029677634 1.2049173223 0.54561731556 -0.019149724757 0.26703248016 
0.91785214711 -1.3266252683 0.86736810783 1.2971015858 -1.1139504116 0.37555839304 -0.33601366156 -0.2061235317 0.96333411051 
-0.24289854485 -0.01741599429 1.0409591745 -0.41971763478 0.57639721551 -1.024265408 2.2058453006 -0.74378060815 1.7506558544 
-0.80716515363 -1.3471975924 0.90009451204 1.3607480805 -0.48402740347 -0.81351847421 2.5618533499 -0.029653267491 -0.33084390119 
-0.74928109622 -1.0524317675 1.4964047411 1.4985564614 0.24389721052 -2.0364877965 0.50615480567 -1.6431801043 -0.48873343615 
2.2807401127 -1.2390060273 1.1136188584 1.0429493893 -0.16234213745 -0.59518330823 -0.97054580511 1.2412261367 0.50271031716 
-1.0252505213 1.3233963832 -2.2624348059 -1.0416060393 0.69969292109 -1.7399613654 -0.91727916628 -0.015370766254 1.1400231033 
0.44620921598 0.39135035744 0.1946174032 -0.53478424197 -0.723693323 0.32282195915 -0.5925947441 -0.57154966125 -0.62922155546 
-0.22890054138 0.68207093727 -0.55073556714 -0.92554644254 0.39120093616 -0.22584390687 0.059914910863 -1.999705543 1.3185966042 
1.5215356612 1.1523828645 0.1137678325 -0.01728080761 -0.13719532022 -0.32431353609 1.8581148371 0.90572726034 0.65057388265 
1.9361217424 -0.6079063629 0.35387044933 0.90456449729 -0.526895855 -0.7643330141 -1.1806100769 -0.26604249356 -2.5578438704 
-0.89617857953 -1.104828691 0.93372743297 -0.37828339874 1.3133865195 1.0002763747 -1.3361290889 -0.60115770956 -0.83821563311 
-0.86312462151 0.63958371855 -1.6906227556 1.0455294883 1.34031406 1.0092373316 -1.0275049023 -0.49565841416 -0.47390729341 
0.57257949362 1.0382189283 -0.39627986741 1.4344844041 0.29315795732 0.74619782424 1.2429557627 0.78685885602 -1.1505386793 
1.2005948857 0.28705321205 0.34096206051 -0.20955074508 -1.5436055743 1.8934748277 1.0055440137 -0.094080801584 -0.69190195356 
0.63600272768 -0.37851705577 -1.2044490904 -0.0098500197399 -0.28476712283 -0.78188333049 1.6686842743 0.70643767731 0.75139225369 
1.033407938 -0.19945526125 -1.694808751 1.2916415452 0.15776503162 1.3177550965 -1.7695934832 0.35039694423 0.49172751025 
-0.89815542292 0.033129072398 -1.173551264 -0.21388893816 -0.7599882284 0.056080691357 -0.47175073584 -0.048853055948 0.8400925278 
0.56197326185 -0.55950765605 0.9991902473 -0.84923471278 0.93041673231 -0.056223108189 0.21335334296 0.05662706802 -0.68629168871 
-0.74074631685 0.97407436502 1.2843975035 -0.1067317764 1.4266991917 -0.41903704077 0.075480287086 0.21577736069 1.0154674895 
2.113995206 0.26927721958 0.96115954754 1.4585715116 -0.26043872516 0.90079194453 0.22527311327 -0.5371135395 -0.79215078159 
0.44187080017 0.094794084849 -0.2092674371 0.34057107627 0.22970602079 -0.55957315084 2.1775063692 1.3434712769 0.24183007516 