# vtk DataFile Version 4.2
Generated by LIGGGHTS
ASCII
DATASET POLYDATA
POINTS 1000 float
0.615537 0.134493 0.0365522 2.10679 0.186869 0.474956 1.91504 0.928712 0.276458 
3.66861 0.859761 0.0736761 3.83979 0.793622 0.3067 0.407872 1.55689 0.446722 
1.55532 1.61298 0.635618 3.13999 1.58307 0.12851 4.03795 1.59229 0.158551 
2.23996 2.21688 0.524424 3.14725 1.9979 0.389402 0.392579 2.66798 0.0664191 
3.30121 3.43625 0.0800475 4.91332 3.55273 0.577283 2.30194 4.33799 0.143481 
1.85328 4.75998 0.562967 3.72934 4.42557 0.610346 0.386549 0.246343 0.814912 
2.66402 0.422992 1.03428 4.30601 0.726355 1.22244 1.54573 1.2334 1.00571 
4.83024 1.40633 0.928193 2.10579 1.9991 1.23085 2.45208 2.66198 1.27857 
2.77696 3.05858 0.760526 3.2796 2.56804 1.06757 3.87736 2.68357 1.28006 
4.61235 2.88354 1.00899 3.39259 3.46132 0.884808 4.584 3.26463 1.15943 
0.573263 3.75295 0.948871 2.83384 4.20667 1.02496 2.01658 4.44641 1.28157 
2.25732 4.66677 1.33932 3.65869 4.98686 1.20576 1.22569 0.198821 1.58231 
3.53992 0.367836 1.4294 4.28937 0.44761 1.91906 3.79973 1.13643 1.96361 
2.51487 1.8073 1.48668 2.9112 1.24923 1.66226 4.70415 2.14701 1.71718 
4.79973 2.72841 1.40545 2.3056 3.4311 1.3535 3.16401 3.60725 1.47248 
4.18968 3.83035 1.63894 3.76572 3.96145 1.74979 1.46595 4.83232 1.98878 
3.01755 4.97796 1.35576 2.20408 1.02994 2.29318 0.110545 1.41346 2.56903 
2.84783 1.3109 2.62613 4.67778 1.26806 2.05708 0.345443 2.38262 2.23356 
1.98916 2.29749 2.50343 3.48601 2.13492 2.43928 2.69392 2.9422 2.03091 
4.1833 2.53621 2.36143 4.25753 3.49916 2.61225 4.48596 3.69364 2.12152 
2.98182 3.98188 2.38067 3.81483 4.20589 2.4037 4.47464 4.21761 2.64546 
4.23265 0.623412 3.06315 4.58986 0.117962 2.67847 4.61695 0.321199 3.2588 
2.13064 1.04907 3.29239 4.98452 1.25702 3.07556 1.8392 1.63024 2.73228 
2.00345 1.86989 3.3523 2.66605 1.793 3.29432 4.48908 1.30122 3.00283 
0.239947 2.40436 2.97008 1.00134 2.46148 2.73712 2.82522 2.39483 2.83384 
4.09445 1.89153 2.93291 0.933484 2.97037 3.23444 1.70041 3.37275 2.79949 
2.38473 3.637 2.87788 2.15027 3.58578 2.61497 2.69162 3.72336 3.1313 
4.7188 3.55758 3.18467 1.04426 3.96813 2.98144 2.18441 4.89802 3.04023 
1.32246 0.215009 3.57125 0.587603 0.798773 3.8729 2.73629 0.887261 3.7434 
3.71632 0.824453 3.51451 0.241471 1.83049 3.68614 1.18164 2.33478 3.78899 
3.41479 2.33497 3.78036 0.222635 3.59721 3.87342 3.361 3.39748 3.7548 
1.80988 3.87296 3.65607 0.467972 4.72146 3.81716 3.74502 4.53563 3.76466 
3.26095 4.85196 3.52934 0.0348601 0.536671 4.29491 2.47874 0.095685 4.34825 
2.28073 0.0114123 4.65396 4.97772 0.55192 4.35632 0.907844 0.6757 4.61669 
0.321019 1.28692 4.29338 0.46283 2.20536 4.43157 1.46937 2.69141 4.62901 
2.70086 3.33098 4.05438 3.92712 3.23255 4.17651 0.315572 4.2956 4.22006 
0.045367 4.13633 4.48652 3.37349 3.76209 4.58204 4.8073 3.98095 4.2723 
1.49182 4.63657 4.19493 2.82287 4.48052 4.4045 0.146095 0.000288911 4.75803 
0.475638 0.995669 5.13331 1.24375 0.91577 4.76257 2.0851 0.872435 5.30443 
0.31724 1.31397 4.81344 1.18782 1.69681 5.14746 4.77371 1.44753 5.09827 
0.711871 4.53044 4.86086 0.917487 4.92627 5.05388 1.59216 4.84411 5.04128 
1.81051 4.49733 4.72303 2.41084 4.66284 5.24645 2.87108 4.89962 4.95248 
4.13444 4.72045 5.10053 0.0617126 0.0832275 5.68193 1.53859 0.568245 5.84945 
3.21942 0.264339 5.56115 0.710639 0.762068 5.96003 0.0402146 1.83104 5.55114 
4.08999 1.55372 5.9828 4.68374 1.69736 5.64013 0.18765 2.33038 5.7988 
1.47686 1.98841 5.42015 4.90899 2.1403 5.51911 2.07694 3.3474 5.82749 
2.67235 3.40509 5.86107 4.58866 3.21291 5.669 0.267561 4.27238 5.3951 
1.94822 4.00712 5.44196 4.51789 4.06241 5.73042 2.15187 4.89253 5.99599 
1.13441 0.29598 6.07351 3.09057 0.385939 6.33543 1.46201 0.755778 6.31088 
1.18606 1.64334 6.19917 2.56739 1.57018 5.98634 2.96494 1.84405 6.40262 
0.163645 2.87658 6.37475 3.31081 4.36622 6.27871 0.307803 4.9331 6.10613 
1.1007 4.43616 6.24014 4.82279 0.580327 7.03737 0.0905509 1.025 7.27979 
0.725173 0.84693 6.87204 3.47407 1.11097 6.83917 0.12428 1.89287 7.18947 
1.40881 1.35365 6.99916 4.77206 1.32415 6.74386 2.37779 2.12302 7.1906 
1.89036 2.37516 7.22365 2.57076 2.49142 6.67545 3.44373 2.23951 6.90778 
2.03219 2.94465 7.26579 3.54862 2.79137 7.33025 2.15767 3.53399 6.72217 
3.04775 3.43806 6.84155 4.67197 3.55779 7.06209 2.54516 4.26278 6.84947 
3.32111 3.86717 7.324 4.73502 4.19089 7.15843 1.2132 4.80358 7.21638 
1.49828 0.15123 7.50136 3.70497 0.213449 7.72303 1.17351 1.06573 7.91665 
1.96798 0.683799 7.43074 2.90327 0.944037 7.60257 3.04056 1.72804 7.4999 
4.07833 1.75384 7.63326 0.995961 2.15589 7.83093 1.63766 2.34079 7.4354 
2.61224 2.0884 7.39093 4.498 2.25131 7.55311 0.0469066 2.74632 7.7232 
2.09011 2.6312 7.91416 2.62637 3.44901 7.53974 3.99757 3.62936 7.46516 
0.509936 4.91354 7.70474 2.87145 4.99225 7.76892 3.96401 4.87562 7.87254 
0.492346 0.0965076 8.07248 2.39065 0.201167 8.13796 1.02237 0.709365 8.34664 
3.33848 1.8428 8.20386 3.81739 1.71404 8.65818 4.21592 1.59318 8.35915 
1.23894 2.02445 8.59375 1.10762 2.40624 8.27061 1.21236 2.57412 7.98976 
4.01892 3.02419 8.59919 2.78092 3.44575 8.26147 0.113726 3.7416 8.23771 
3.60124 4.18717 8.66473 2.11163 4.60114 8.65756 2.78039 4.67858 8.45529 
3.99806 4.59999 8.20003 0.109836 0.35191 9.12895 0.990565 0.167043 9.02996 
2.72261 0.429311 9.09077 4.58269 0.589179 8.71428 0.0585916 1.1196 9.22219 
0.557415 1.46534 8.75332 2.67171 1.31777 8.77209 3.53219 2.189 8.97024 
0.828409 3.11688 8.74302 1.23961 2.77161 9.02298 3.58296 3.65913 9.30287 
4.43245 3.22506 8.93558 3.15073 4.38238 8.7318 2.54514 0.894376 9.48905 
0.210374 1.46703 9.47639 1.04906 1.61153 9.91075 2.93899 1.83608 9.54178 
3.88045 1.39245 9.54137 0.429858 2.16748 9.73184 1.11942 2.84207 9.50501 
4.80469 2.70526 9.56789 0.0376217 3.75959 9.96246 1.99161 3.30735 9.53854 
4.53156 3.65123 9.63273 1.95048 4.06736 9.87307 4.72793 3.97559 9.8225 
2.7184 4.66811 9.49402 4.40743 4.45383 9.39152 2.19401 5.06464 0.156862 
4.08735 5.36203 0.364726 0.805124 6.02416 0.638566 3.03461 6.01972 0.20263 
3.73409 6.13445 0.19231 4.26378 6.02679 0.017233 4.85049 5.80665 0.118561 
1.46684 6.43922 0.0927911 2.37599 7.3396 0.584962 4.78074 7.56159 0.601611 
1.98362 8.69639 0.307634 4.35751 8.3394 0.649512 0.291986 9.54271 0.531808 
2.73373 9.64248 0.360592 4.05304 9.61214 0.242545 4.75293 9.64569 0.573602 
4.63513 9.68412 0.0804618 0.736766 5.29497 0.75638 2.20815 5.13887 1.32401 
4.7321 5.24989 1.32658 2.68919 5.64691 0.879467 1.3407 6.85463 0.739727 
1.59451 6.48968 1.26094 3.95573 6.38615 0.854751 3.26084 7.23562 0.897903 
4.11813 6.9936 0.870112 1.16499 7.61045 1.0054 1.11154 8.09354 1.03958 
4.70632 8.29604 1.23037 1.48861 9.08735 1.1345 3.2627 8.83519 0.712391 
4.34245 9.10567 0.995318 4.89429 9.09597 0.91351 3.28856 9.7956 0.788808 
1.75754 5.28832 1.95645 0.542982 5.92098 1.41816 0.0511975 6.01566 1.96726 
1.91106 6.08866 1.85117 2.96869 5.74063 1.56469 3.88286 6.0738 1.58508 
0.753683 6.4358 1.76879 2.20675 6.33704 1.32466 3.70392 6.52561 1.6269 
0.246193 7.2837 1.52043 0.323757 8.07747 1.68149 2.02086 8.00147 1.45718 
4.01498 7.55845 1.81377 2.57834 8.71028 1.81542 0.0676684 8.87318 1.9401 
3.69114 9.13811 1.96935 2.31032 9.78682 1.55059 2.67496 10.0172 1.71383 
2.13494 5.86204 2.11275 0.522345 6.77064 2.26887 1.95823 6.418 2.47073 
3.28804 6.50302 2.61126 3.93619 6.50927 2.55362 4.73204 6.52975 2.41301 
0.543368 8.5102 2.56326 1.85631 8.37638 1.99301 2.02516 8.73409 2.54343 
3.03765 8.50896 2.54954 3.69171 8.24752 2.25279 4.0549 8.45015 2.60298 
1.43491 8.81245 2.26026 2.75987 9.06406 2.17074 3.50998 8.93006 2.64756 
2.68009 9.65802 2.21042 3.79198 5.57346 2.83199 4.72108 6.14192 3.15748 
1.4135 6.70675 2.74542 2.61491 6.58997 3.11372 0.531607 7.10791 2.7757 
1.49794 7.2223 3.01662 2.0943 6.99802 2.88207 3.23355 7.34496 2.84447 
2.16734 8.15035 2.79882 0.846603 8.78452 2.72456 1.58689 9.21517 3.33792 
2.14467 8.86051 3.13673 2.53168 8.87521 2.74769 4.36505 9.12059 2.80893 
1.29882 9.96585 3.06198 3.60696 9.50105 3.14746 0.953819 6.13562 3.84379 
1.74415 5.65724 3.49034 3.78969 5.7634 3.75529 3.97064 6.6174 3.39298 
4.58571 6.54395 3.49788 4.4485 7.00419 3.88241 2.73662 7.74777 3.77619 
3.71352 7.67083 3.76632 2.47826 8.55682 3.803 4.31782 8.26437 3.41719 
0.630168 8.81313 3.4819 3.2072 9.02287 3.67761 3.7702 9.75118 3.88625 
3.16816 9.82276 3.46456 2.69838 6.21514 4.46848 4.40591 5.62933 4.06421 
0.565289 6.52605 4.37247 4.05137 6.36275 4.2345 2.30725 7.39817 4.6156 
3.36075 7.35876 4.23046 0.733758 8.01622 4.07229 1.40092 8.01021 4.47266 
1.50098 7.71821 4.02721 3.83731 7.86804 4.45314 3.20907 8.51489 4.11623 
4.41923 8.60153 4.57259 1.27462 9.24159 4.53695 2.40581 9.15835 4.42065 
1.89931 9.13896 4.18977 4.72122 9.49788 4.06317 0.103639 5.05158 4.92027 
4.66474 5.39703 4.73523 1.1582 5.78171 4.69128 0.657309 5.9539 4.8406 
2.0575 6.30204 4.94971 0.00946136 7.39023 4.79684 0.675502 6.9025 5.24182 
3.6123 6.99529 4.83319 0.525645 7.51201 5.02164 0.109711 7.87879 5.29521 
2.20689 7.59876 5.27329 2.98992 7.77973 4.77373 3.96952 7.63008 4.7926 
1.3014 8.23604 4.92527 2.24824 8.57063 5.13372 3.59407 8.43421 5.17096 
1.46804 9.12189 5.03634 3.05742 9.00236 4.68699 4.3442 9.34919 4.87427 
3.07057 9.86998 5.12096 1.97236 5.52613 5.42453 4.67975 6.06342 5.40722 
1.6739 6.85223 5.6365 4.08133 6.37003 5.95496 0.4226 7.74159 5.97003 
1.63258 7.68838 5.36884 3.4502 7.98157 5.38788 4.68399 8.0726 5.63344 
0.783529 8.67055 5.659 2.76281 8.19245 5.87309 3.29243 8.66365 5.94631 
3.91864 8.54974 5.93205 1.38984 9.69999 5.74103 4.71984 9.6619 5.9067 
0.0204956 5.32611 6.08403 1.81225 5.15857 6.08348 2.59371 5.68736 6.12954 
2.57916 5.94912 6.54865 0.421514 6.66888 6.34303 1.67688 6.40491 6.47086 
2.96463 6.44448 6.50037 0.27004 7.44773 6.22791 4.02105 7.00006 6.43057 
4.30599 7.84588 6.10211 1.3998 8.21131 6.62469 4.45651 8.68232 6.19929 
1.5651 9.09499 6.3655 0.525558 9.83414 6.47236 0.163604 9.34852 6.59986 
1.91685 9.72422 6.41334 3.11992 9.62767 6.27358 1.40932 6.27659 6.72007 
[...]
POINT_DATA 1000
FIELD FieldData 7
id 1 1000 int
9 520 509 507 528 2 519 531 506 
20 11 526 515 525 510 503 527 16 
530 502 14 18 518 522 501 505 10 
512 12 513 17 6 504 529 517 3 
5 8 13 523 514 524 15 1 21 
516 4 508 511 548 545 544 35 23 
541 554 7 38 543 537 547 532 550 
555 39 40 22 533 534 26 540 552 
536 551 31 557 42 30 24 41 556 
546 37 32 29 34 33 535 553 539 
538 549 25 36 27 28 542 570 560 
562 565 561 71 68 48 53 58 69 
563 44 558 67 54 65 55 63 51 
49 62 47 50 571 43 45 572 60 
559 564 566 59 64 57 61 46 567 
70 569 66 52 574 573 568 575 56 
95 588 578 84 80 583 99 92 91 
103 85 90 579 78 100 86 582 580 
585 589 96 81 584 592 101 83 591 
581 102 77 587 82 590 72 576 97 
74 88 93 79 87 76 73 586 75 
98 577 89 122 118 119 125 104 126 
107 111 593 110 117 108 106 115 601 
598 124 112 120 123 127 116 602 121 
597 605 114 105 594 604 606 607 599 
128 610 600 608 272 603 595 109 609 
596 113 521 143 612 628 151 618 619 
137 635 629 625 617 132 133 140 150 
633 142 129 145 630 152 634 620 134 
616 148 611 623 138 144 149 631 141 
626 130 632 131 613 627 622 135 614 
139 621 147 615 624 136 157 146 636 
168 175 642 658 653 159 160 641 646 
171 651 161 173 647 155 640 158 166 
156 643 648 659 650 657 639 163 644 
167 154 660 174 172 656 162 655 645 
164 165 637 652 169 153 649 638 654 
170 194 668 177 680 180 193 185 199 
682 686 182 676 677 661 673 192 669 
672 190 666 681 198 183 675 189 186 
178 181 184 679 684 678 670 662 195 
187 664 674 179 683 176 671 196 685 
665 191 188 197 667 663 709 702 207 
219 693 701 689 204 703 206 690 688 
205 213 706 220 707 203 215 218 210 
705 209 708 200 710 214 711 700 704 
212 201 202 208 694 211 697 695 698 
692 741 691 687 221 696 216 217 699 
240 743 224 712 720 714 222 243 225 
238 734 241 227 244 230 715 233 713 
742 235 242 721 737 736 729 229 237 
234 728 732 727 733 740 725 223 248 
726 735 247 228 739 717 738 719 730 
239 723 984 716 246 231 245 236 722 
724 226 718 731 773 257 252 750 251 
256 765 259 764 767 270 761 754 744 
260 271 752 266 749 771 758 250 756 
253 258 747 768 753 757 745 268 254 
769 760 762 255 770 273 249 262 261 
759 269 751 748 746 763 755 19 267 
772 766 265 263 777 413 790 778 296 
782 287 277 781 286 794 791 302 299 
788 297 300 283 275 784 775 780 290 
282 785 293 292 789 783 786 793 281 
776 276 288 301 787 795 298 792 779 
291 289 295 279 774 284 285 278 280 
274 294 306 818 324 319 325 808 318 
323 812 813 313 816 805 316 322 304 
811 321 803 320 806 308 307 797 305 
796 817 310 314 315 309 799 317 810 
809 303 798 802 814 804 311 815 807 
801 312 800 821 349 355 819 832 831 
340 332 343 348 345 835 335 820 334 
830 353 827 825 342 338 337 833 354 
333 346 823 94 331 350 351 336 837 
341 834 344 339 952 829 824 828 347 
822 826 329 330 836 326 327 352 328 
373 870 858 857 848 854 852 840 359 
869 845 864 377 853 371 850 376 379 
374 380 370 839 855 861 364 847 357 
856 867 868 378 849 365 851 838 375 
360 844 865 860 862 372 363 863 843 
362 366 356 866 368 842 841 846 361 
369 358 367 859 890 875 404 385 394 
401 897 392 390 872 884 391 873 880 
886 396 889 264 399 389 403 384 888 
871 892 383 877 395 878 887 405 387 
400 881 895 398 876 896 381 382 891 
386 898 874 388 393 882 397 883 885 
894 893 879 402 437 911 424 909 423 
432 419 431 927 922 923 899 410 914 
901 426 411 921 422 908 926 928 417 
904 903 912 414 902 918 412 915 415 
425 916 917 407 429 438 436 905 906 
433 427 900 430 406 919 408 418 924 
420 428 907 920 439 434 416 409 925 
421 910 435 913 459 939 942 450 945 
453 461 457 940 440 946 944 937 951 
449 442 948 443 447 930 947 941 444 
950 448 446 943 462 929 452 445 933 
460 938 451 936 458 932 455 441 949 
935 456 931 454 934 464 967 475 966 
468 970 960 953 470 465 471 962 976 
971 469 478 965 472 956 955 977 968 
958 477 964 954 473 474 466 973 467 
476 957 961 975 974 479 959 969 972 
963 463 494 995 481 497 998 489 493 
992 999 487 499 491 485 988 994 996 
997 989 985 483 495 986 979 486 480 
991 484 482 492 488 980 1000 500 498 
978 496 990 981 232 983 982 993 987 
490 
type 1 1000 int
1 2 2 2 2 1 2 2 2 
1 1 2 2 2 2 2 2 1 
2 2 1 1 2 2 2 2 1 
2 1 2 1 1 2 2 2 1 
1 1 1 2 2 2 1 1 1 
2 1 2 2 2 2 2 1 1 
2 2 1 1 2 2 2 2 2 
2 1 1 1 2 2 1 2 2 
2 2 1 2 1 1 1 1 2 
2 1 1 1 1 1 2 2 2 
2 2 1 1 1 1 2 2 2 
2 2 2 1 1 1 1 1 1 
2 1 2 1 1 1 1 1 1 
1 1 1 1 2 1 1 2 1 
2 2 2 1 1 1 1 1 2 
1 2 1 1 2 2 2 2 1 
1 2 2 1 1 2 1 1 1 
1 1 1 2 1 1 1 2 2 
2 2 1 1 2 2 1 1 2 
2 1 1 2 1 2 1 2 1 
1 1 1 1 1 1 1 2 1 
1 2 1 1 1 1 1 1 1 
1 1 2 1 1 1 1 1 2 
2 1 1 1 1 1 1 2 1 
2 2 1 1 2 2 2 2 2 
1 2 2 2 1 2 2 1 2 
2 1 2 1 2 2 1 2 2 
1 2 2 2 2 1 1 1 1 
2 1 1 1 2 1 2 2 1 
2 1 2 2 1 1 1 2 1 
2 1 2 1 2 2 2 1 2 
1 2 1 2 2 1 1 1 2 
1 1 2 2 2 1 1 2 2 
1 2 1 1 2 1 2 1 1 
1 2 2 2 2 2 2 1 2 
1 1 2 1 1 2 1 2 2 
1 1 2 2 1 1 2 2 2 
1 1 2 1 2 1 1 1 1 
2 2 1 2 2 2 2 1 2 
2 1 2 2 1 1 2 1 1 
1 1 1 2 2 2 2 2 1 
1 2 2 1 2 1 2 1 2 
2 1 1 1 2 2 2 2 1 
1 2 2 2 1 2 1 2 2 
1 1 2 1 2 1 1 1 1 
2 1 2 1 2 1 2 2 2 
1 1 1 1 2 1 2 2 2 
2 2 2 2 1 2 1 1 2 
1 2 1 2 2 2 1 1 1 
1 2 1 1 1 1 2 1 2 
2 1 1 2 2 2 2 1 1 
1 2 2 2 2 2 2 1 1 
2 2 1 1 2 2 2 2 2 
1 2 2 2 1 1 1 1 2 
2 1 2 2 2 1 1 2 1 
1 2 1 2 2 1 2 2 2 
1 1 2 1 2 2 2 1 2 
1 1 2 2 2 2 2 1 1 
2 2 2 1 2 1 1 1 1 
2 1 2 2 2 2 2 1 1 
2 2 1 1 2 1 2 2 1 
2 1 1 2 1 2 2 1 1 
2 1 1 1 1 2 2 2 1 
1 2 1 1 2 2 2 2 1 
2 1 1 1 2 2 1 2 2 
1 1 1 1 2 1 1 1 1 
1 1 1 2 1 1 1 2 1 
1 2 2 1 2 2 1 1 1 
2 1 2 1 2 1 1 2 1 
2 2 1 1 1 1 2 1 2 
2 1 2 2 2 2 1 2 2 
2 1 2 2 1 1 2 2 2 
1 1 1 1 1 2 1 2 1 
2 1 2 2 1 1 1 2 1 
1 1 2 1 1 1 1 1 2 
1 2 1 1 2 2 2 2 1 
2 2 1 1 2 1 1 1 1 
1 2 2 2 2 2 2 2 1 
2 2 2 1 2 1 2 1 1 
1 1 1 2 2 2 1 2 1 
2 2 2 1 2 1 2 2 1 
1 2 2 2 2 1 1 2 2 
1 1 1 2 1 2 2 2 1 
1 1 1 2 2 2 1 1 1 
1 2 1 1 2 2 1 2 2 
2 1 2 1 1 1 1 1 2 
2 2 1 2 1 2 2 1 1 
1 2 2 1 2 2 1 1 2 
1 2 2 1 1 2 1 2 2 
2 2 2 1 1 2 1 2 1 
1 1 1 2 2 2 2 1 2 
2 1 1 2 1 2 2 2 1 
2 2 2 1 2 2 1 2 1 
1 2 2 1 1 1 1 2 2 
1 1 2 1 1 2 1 1 2 
1 1 2 2 1 1 1 1 2 
1 2 1 2 1 2 2 1 2 
1 1 1 2 1 2 2 2 2 
1 1 2 1 1 2 2 2 1 
2 1 1 2 1 2 1 1 2 
1 2 1 2 1 2 1 1 2 
2 1 2 1 2 1 2 1 2 
1 2 2 2 1 1 1 2 2 
2 1 1 2 1 2 2 2 2 
2 1 2 2 1 1 1 2 1 
1 2 2 2 2 1 2 2 2 
2 1 1 2 1 1 2 1 1 
2 2 1 1 1 1 2 2 2 
2 2 2 1 1 2 2 1 1 
2 1 1 1 1 2 2 1 1 
2 1 2 2 1 2 2 2 2 
1 
i 3 1000 int
0 0 0 0 0 0 0 0 0 
0 0 0 0 0 0 0 0 0 
0 0 0 0 0 0 0 0 0 
0 0 0 0 0 0 0 0 0 
0 0 0 0 0 0 0 0 0 
0 0 0 0 0 0 0 0 0 
0 0 0 0 0 0 0 0 0 
0 0 0 0 0 0 0 0 0 
0 0 0 0 0 0 0 0 0 
0 0 0 0 0 0 0 0 0 
0 0 0 0 0 0 0 0 0 
0 0 0 0 0 0 0 0 0 
0 0 0 0 0 0 0 0 0 
0 0 0 0 0 0 0 0 0 
0 0 0 0 0 0 0 0 0 
0 0 0 0 0 0 0 0 0 
0 0 0 0 0 0 0 0 0 
0 0 0 0 0 0 0 0 0 
0 0 0 0 0 0 0 0 0 
0 0 0 0 0 0 0 0 0 
0 0 0 0 0 0 0 0 0 
0 0 0 0 0 0 0 0 0 
0 0 0 0 0 0 0 0 0 
0 0 0 0 0 0 0 0 0 
0 0 0 0 0 0 0 0 0 
0 0 0 0 0 0 0 0 0 
0 0 0 0 0 0 0 0 0 
0 0 0 0 0 0 0 0 0 
0 0 0 0 0 0 0 0 0 
0 0 0 0 0 0 0 0 0 
0 0 0 0 0 0 0 0 0 
0 0 0 0 0 0 0 0 0 
0 0 0 0 0 0 0 0 0 
0 0 0 0 0 0 0 0 0 
0 0 0 0 0 0 0 0 0 
0 0 0 0 0 0 0 0 0 
0 0 0 0 0 0 0 0 0 
0 0 0 0 0 0 0 0 0 
0 0 0 0 0 0 0 0 0 
0 0 0 0 0 0 0 0 0 
0 0 0 0 0 0 0 0 0 
0 0 0 0 0 0 0 0 0 
0 0 0 0 0 0 0 0 0 
0 0 0 0 0 0 0 0 0 
0 0 0 0 0 0 0 0 0 
0 0 0 0 0 0 0 0 0 
0 0 0 0 0 0 0 0 0 
0 0 0 0 0 0 0 0 0 
0 0 0 0 0 0 0 0 0 
0 0 0 0 0 0 0 0 0 
0 0 0 0 0 0 0 0 0 
0 0 0 0 0 0 0 0 0 
0 0 0 0 0 0 0 0 0 
0 0 0 0 0 0 0 0 0 
0 0 0 0 0 0 0 0 0 
0 0 0 0 0 0 0 0 0 
0 0 0 0 0 0 0 0 0 
0 0 0 0 0 0 0 0 0 
0 0 0 0 0 0 0 0 0 
0 0 0 0 0 0 0 0 0 
0 0 0 0 0 0 0 0 0 
0 0 0 0 0 0 0 0 0 
0 0 0 0 0 0 0 0 0 
0 0 0 0 0 0 0 0 0 
0 0 0 0 0 0 0 0 0 
0 0 0 0 0 0 0 0 0 
0 0 0 0 0 0 0 0 0 
0 0 0 0 0 0 0 0 0 
0 0 0 0 0 0 0 0 0 
0 0 0 0 0 0 0 0 0 
0 0 0 0 0 0 0 0 0 
0 0 0 0 0 0 0 0 0 
0 0 0 0 0 0 0 0 0 
0 0 0 0 0 0 0 0 0 
0 0 0 0 0 0 0 0 0 
0 0 0 0 0 0 0 0 0 
0 0 0 1 0 -1 0 0 0 
0 0 0 0 0 0 0 0 0 
0 0 0 0 0 0 0 0 0 
0 0 0 0 0 0 0 0 0 
0 0 0 0 0 0 0 0 0 
0 0 0 0 0 0 0 0 0 
0 0 0 0 0 0 0 0 0 
0 0 0 0 0 0 0 0 0 
0 0 0 0 0 0 0 0 0 
0 0 0 0 0 0 0 0 0 
0 0 0 0 0 0 0 0 0 
0 0 0 0 0 0 0 0 0 
0 0 0 0 0 0 0 0 0 
0 0 0 0 0 0 0 0 0 
0 0 0 0 0 0 0 0 0 
0 0 0 0 0 0 0 0 0 
0 0 0 0 0 0 0 0 0 
0 0 0 0 0 0 0 0 0 
0 0 0 0 0 0 0 0 0 
0 0 0 0 0 0 0 0 0 
0 0 0 0 0 0 0 0 0 
0 0 0 0 0 0 0 0 0 
0 0 0 0 0 0 0 0 0 
0 0 0 0 0 0 0 0 0 
0 0 0 0 0 0 0 0 0 
0 0 0 0 0 0 0 0 0 
0 0 0 0 0 0 0 0 0 
0 0 0 0 0 0 0 0 0 
0 0 0 0 0 0 0 0 0 
0 0 0 0 0 0 0 0 0 
0 0 0 0 0 0 0 0 0 
0 0 0 0 0 0 0 0 0 
0 0 0 0 0 0 0 0 0 
0 0 0 0 0 0 0 0 0 
0 0 0 0 0 0 0 0 0 
0 0 0 0 0 0 0 0 0 
0 0 0 0 0 0 0 0 0 
0 0 0 0 0 0 0 0 0 
0 0 0 0 0 0 0 0 0 
0 0 0 0 0 0 0 0 0 
0 0 0 0 0 0 0 0 0 
0 0 0 0 0 0 0 0 0 
0 0 0 0 0 0 0 0 0 
0 0 0 0 0 0 0 0 0 
0 0 0 0 0 0 0 0 0 
0 0 0 0 0 0 0 0 0 
0 0 0 0 0 0 0 0 0 
0 0 0 0 0 0 0 0 0 
0 0 0 0 0 0 0 0 0 
0 0 0 0 0 0 0 0 0 
0 0 0 0 0 0 0 0 0 
0 0 0 0 0 0 0 0 0 
0 0 0 0 0 0 0 0 0 
0 0 0 0 0 0 0 0 0 
0 0 0 0 0 0 0 0 0 
0 0 0 0 0 0 0 0 0 
0 0 0 0 0 0 0 0 0 
0 0 0 0 0 0 0 0 0 
0 0 0 0 0 0 0 0 0 
0 0 0 0 0 0 0 0 0 
0 0 0 0 0 0 0 0 0 
0 0 0 0 0 0 0 0 0 
0 0 0 0 0 0 0 0 0 
0 0 0 0 0 0 0 0 0 
0 0 0 0 0 0 0 0 0 
0 0 0 0 0 0 0 0 0 
0 0 0 0 0 0 0 0 0 
0 0 0 0 0 0 0 0 0 
0 0 0 0 0 0 0 0 0 
0 0 0 0 0 0 0 0 0 
0 0 0 0 0 0 0 0 0 
0 0 0 0 0 0 0 0 0 
0 0 0 0 0 0 0 0 0 
0 0 0 0 0 0 0 0 0 
0 0 0 0 0 0 0 0 0 
0 0 0 0 0 0 0 0 0 
0 0 0 0 0 0 0 0 0 
0 0 0 0 0 0 0 0 0 
0 0 0 0 0 0 0 0 0 
0 0 0 0 0 0 0 0 0 
0 0 0 0 0 0 0 0 0 
0 0 0 0 0 0 0 0 0 
0 0 0 0 0 0 0 0 0 
0 0 0 0 0 0 0 0 0 
0 0 0 0 0 0 0 0 0 
0 0 0 0 0 0 0 0 0 
0 0 0 0 0 0 0 0 0 
0 0 0 0 0 0 0 0 0 
0 0 0 0 0 0 0 0 0 
0 0 0 0 0 0 0 0 0 
0 0 0 0 0 0 0 0 0 
0 0 0 0 0 0 0 0 0 
0 0 0 0 0 0 0 0 0 
0 0 0 0 0 0 0 0 0 
0 0 0 0 0 0 0 0 0 
0 0 0 0 0 0 0 0 0 
0 0 0 0 0 0 0 0 0 
0 0 0 0 0 0 0 0 0 
0 0 0 0 0 0 0 0 0 
0 0 0 0 0 0 0 0 0 
0 0 0 0 0 0 0 0 0 
0 0 0 0 0 0 0 0 0 
0 0 0 0 0 0 0 0 0 
0 0 0 0 0 0 0 0 0 
0 0 0 0 0 0 0 0 0 
0 0 0 0 0 0 0 1 0 
0 0 0 0 0 0 0 0 0 
0 0 0 0 0 0 0 0 0 
0 0 0 0 0 0 0 0 0 
0 0 0 0 0 0 0 0 0 
0 0 0 0 0 0 0 0 0 
0 0 0 0 0 0 0 0 0 
0 0 0 0 0 0 0 0 0 
0 0 0 0 0 0 0 0 0 
0 0 0 0 0 0 0 0 0 
0 0 0 0 0 0 0 0 0 
0 0 0 0 0 0 0 0 0 
0 0 0 0 0 0 0 0 0 
0 0 0 0 0 0 0 0 0 
0 0 0 0 0 0 0 0 0 
0 0 0 0 0 0 0 0 0 
0 0 0 0 0 0 0 0 0 
0 0 0 0 0 0 0 0 0 
0 0 0 0 0 0 0 0 0 
0 0 0 0 0 0 0 0 0 
0 0 0 0 0 0 0 0 0 
0 0 0 0 0 0 0 0 0 
0 0 0 0 0 0 0 0 0 
0 0 0 0 0 0 0 0 0 
0 0 0 0 0 0 0 0 0 
0 0 0 0 0 0 0 0 0 
0 0 0 0 0 0 0 0 0 
0 0 0 0 0 0 0 0 0 
0 0 0 0 0 0 0 0 0 
0 0 0 0 0 0 0 0 0 
0 0 0 0 0 0 0 0 0 
0 0 0 0 0 0 0 0 0 
0 0 0 0 0 0 0 0 0 
0 0 0 0 0 0 0 0 0 
0 0 0 0 0 0 0 0 0 
0 0 0 0 0 0 0 0 0 
0 0 0 0 0 0 0 0 0 
0 0 0 0 0 0 0 0 0 
0 0 0 0 0 0 0 0 0 
0 0 0 0 0 0 0 0 0 
0 0 0 0 0 0 0 0 0 
0 0 0 0 0 0 0 0 0 
0 0 0 0 0 0 0 0 0 
0 0 0 0 0 0 0 0 0 
0 0 0 0 0 0 0 0 0 
0 0 0 0 0 0 0 0 0 
0 0 0 0 0 0 0 0 0 
0 0 0 0 0 0 0 0 0 
0 0 0 0 0 0 0 0 0 
0 0 0 0 0 0 0 0 0 
0 0 0 0 0 0 0 0 0 
0 0 0 0 0 0 0 0 0 
0 0 0 0 0 0 0 0 0 
0 0 0 0 0 0 0 0 0 
0 0 0 0 0 0 0 0 0 
0 0 0 0 0 0 0 0 0 
0 0 0 0 0 0 0 0 0 
0 0 0 0 0 0 0 0 0 
0 0 0 0 0 0 0 0 0 
0 0 0 0 0 0 0 0 0 
0 0 0 0 0 0 0 0 0 
0 0 0 0 0 0 0 0 0 
0 0 0 0 0 0 0 0 0 
0 0 0 0 0 0 0 0 0 
0 0 0 0 0 0 0 0 0 
0 0 0 0 0 0 0 0 0 
0 0 0 0 0 0 0 0 0 
0 0 0 0 0 0 0 0 0 
0 0 0 0 0 0 0 0 0 
0 0 0 0 0 0 0 0 0 
0 0 0 0 0 0 0 0 0 
0 0 0 0 0 0 0 0 0 
0 0 0 0 0 0 0 0 0 
0 0 0 0 0 0 0 0 0 
0 0 0 0 0 0 0 0 0 
0 -1 0 0 0 0 0 0 0 
0 0 0 0 0 0 0 0 0 
0 0 0 0 0 0 0 0 0 
0 0 0 0 0 0 0 0 0 
0 0 0 0 0 0 0 0 0 
0 0 0 0 0 0 0 0 0 
0 0 0 0 0 0 0 0 0 
0 0 0 0 0 0 0 0 0 
0 0 0 0 0 0 0 0 0 
0 0 0 0 0 0 0 0 0 
0 0 0 0 0 0 0 0 0 
0 0 0 0 0 0 0 0 0 
0 0 0 0 0 0 0 0 0 
0 0 0 0 0 0 0 0 0 
0 0 0 0 0 0 0 0 0 
0 0 0 0 0 0 0 0 0 
0 0 0 0 0 0 0 0 0 
0 0 0 0 0 0 0 0 0 
0 0 0 0 0 0 0 0 0 
0 0 0 0 0 0 0 0 0 
0 0 0 0 0 0 0 0 0 
0 0 0 0 0 0 0 0 0 
0 0 0 0 0 0 0 0 0 
0 0 0 0 0 0 0 0 0 
0 0 0 0 0 0 0 0 0 
0 0 0 0 0 0 0 0 0 
0 0 0 0 0 0 0 0 0 
0 0 0 0 0 0 0 0 0 
0 0 0 0 0 0 0 0 0 
0 0 0 0 0 0 0 0 0 
0 0 0 0 0 0 0 0 0 
0 0 0 0 0 0 0 0 0 
0 0 0 0 0 0 0 0 0 
0 0 0 0 0 0 0 0 0 
0 0 0 0 0 0 0 0 0 
0 0 0 0 0 0 0 0 0 
0 0 0 0 0 0 0 0 0 
0 0 0 0 0 0 0 0 0 
0 0 0 0 0 0 0 0 0 
0 0 0 0 0 0 0 0 0 
0 0 0 0 0 0 0 0 0 
0 0 0 0 0 0 0 0 0 
0 0 0 0 0 0 0 0 0 
0 0 0 0 0 0 0 0 0 
0 0 0 0 0 0 0 0 0 
0 0 0 0 0 0 0 0 0 
0 0 0 0 0 0 0 0 0 
0 0 0 0 0 0 0 0 0 
0 0 0 0 0 0 0 0 0 
0 0 0 0 0 0 0 0 0 
0 0 0 0 0 0 0 0 0 
0 0 0 0 0 0 0 0 0 
0 0 0 0 0 0 0 0 0 
0 0 0 0 0 0 0 0 0 
0 0 0 0 0 0 0 0 0 
0 0 0 0 0 0 0 0 0 
0 0 0 0 0 0 0 0 0 
0 0 0 0 0 0 0 0 0 
0 0 0 0 0 0 0 0 0 
0 0 0 0 0 0 0 0 0 
0 0 0 0 0 0 0 0 0 
0 0 0 0 0 0 0 0 0 
0 0 0 0 0 0 0 0 0 
0 0 0 0 0 0 0 0 0 
0 0 0 0 0 0 0 0 0 
0 0 0 0 0 0 0 0 0 
0 0 0 0 0 0 0 0 0 
0 0 0 0 0 0 0 0 0 
0 0 0 0 0 0 0 0 0 
0 0 0 0 0 0 0 0 0 
0 0 0 0 0 0 0 0 0 
0 0 0 0 0 0 0 0 0 
0 0 0 0 0 0 0 0 0 
0 0 0 0 0 0 0 0 0 
0 0 0 0 0 0 0 0 0 
0 0 0 0 0 0 0 0 0 
0 0 0 0 0 0 0 0 0 
0 0 0 
v 3 1000 double
7.5964142367 7.6840322781 -11.978256357 -13.641029637 -10.083712276 -3.9393964137 2.43313922 4.5644359512 -13.876641844 
-25.467978785 -12.538208344 -27.014654272 24.478288877 -18.340640186 34.284839307 7.9283994258 -11.990901607 9.5086476377 
-8.0316479541 20.492894 -13.844198519 -5.8663037647 -26.791555457 1.1815369909 14.647367337 20.11058887 18.457642428 
0.38342787901 7.9688969053 -20.3888136 4.6553742432 19.442329064 13.353270422 1.3736228854 18.677204724 15.490944739 
-1.6533321141 -1.2013456541 -8.831715274 -1.6401955355 12.595391596 -15.252419006 25.780293921 -9.696374335 14.598187164 
-29.883319315 0.47230912935 5.6461969546 1.8266129058 -8.78467305 -9.4576014068 -1.8878061782 12.840524264 14.245000073 
3.9466839166 17.672204659 -9.6404900404 -4.9216988502 2.3940809275 -12.435037566 -5.8238133717 -22.110302814 27.246392132 
-12.48827043 28.786046239 -7.8158238723 -29.240100492 -1.4113855647 3.7341837496 -10.504986149 0.49855428885 7.2920399202 
-12.553483653 5.7656573037 -22.194363455 -4.3122612741 -10.880659947 4.8624910737 1.3056430819 -4.4389287828 13.206098182 
-7.387252272 -27.493907496 -43.222792608 25.374124745 2.8117755949 -6.7365781722 -21.102187107 34.465504025 -4.2714923205 
12.308672085 -5.6852783238 1.372640936 5.5281152852 -6.1818800436 -16.481041217 -35.71385327 -45.836885489 4.7191980737 
10.948302858 -4.1583284993 17.381219771 24.505131499 8.1142666961 3.4514137957 0 0 0 
-6.5011587851 0.9142804654 4.7251605529 -6.510422253 -14.416881813 7.671573226 -7.9019363695 6.5578411063 1.9274797959 
12.671932296 -4.3774506801 13.254859774 8.7503031538 -17.6695528 0.76460680486 -1.3760798977 -19.678766351 5.973648872 
10.789292474 -28.957575268 20.108237375 -18.661618607 18.15766658 4.8095939159 -11.571863995 -10.647367607 19.251606255 
10.983476527 8.5367649612 -19.006244279 -23.080146844 15.098739245 -5.2614267845 -19.835495569 -28.33658972 3.8695058629 
5.9807043659 -4.0178846371 9.9358512609 -8.0800008747 -15.715315975 -11.755865779 6.2869074753 4.3462838245 3.8214908808 
13.79109031 -2.0221125593 1.0510337361 -15.123780311 8.2970091021 -1.8413308669 2.7633615701 -5.0002286152 -20.196474165 
-3.2323703796 18.017974551 -9.7272237433 -8.7002579471 -5.9715240271 -13.307726867 3.6559272796 2.726283537 12.897054658 
8.0875840422 15.555468015 -2.6554227984 -19.001056796 -25.762764583 9.6934847012 28.799733887 -8.9314796893 -8.9626059506 
0.42390759704 5.2910305809 -13.788415928 -8.3012927497 16.647756971 10.698321926 20.074709285 26.220486709 14.962993352 
-18.438711056 9.5748609389 -13.092669017 -1.2009111849 -8.9585541513 -15.694169727 -1.6674951192 -7.3324099682 15.873788531 
-8.7699170133 -14.881695465 -4.9843557708 7.2709723907 28.155592949 29.099372129 -14.716289278 -7.6660631001 -9.3476985235 
-18.577149099 17.507087429 21.599610047 13.861437468 -5.017535128 14.61459244 -18.909578487 6.0869809945 3.8128507149 
-14.546601513 3.4741180832 11.189094776 20.880916757 -10.878553118 -9.798605394 -1.4608880436 16.825154141 1.6765777451 
-6.1265740387 10.260853446 10.869561315 -3.8189514737 19.389446469 10.567844087 -30.566556119 -20.43171785 5.2396309689 
6.6590017049 -0.15843800177 10.922209902 -12.017757958 1.3666183517 -42.213921421 29.568347669 7.8378179769 35.30824301 
13.198762113 -4.00318661 19.475069219 -7.1092418753 5.6014135814 1.8983533642 0.42182869669 -0.72701781997 -0.43104989492 
1.8830897431 13.09290605 25.656064413 13.174912131 -5.6916230134 -32.367327087 12.954635863 -4.2806567806 9.7584829778 
-17.525863158 6.961540048 13.734847746 -3.452223708 2.0431018248 -12.607054734 3.538508846 -6.506523842 0.84595193588 
0 0 0 10.510868685 -22.171466836 -4.3116253608 4.437192745 2.9029424481 -19.423093476 
0.13412798741 -1.4857592188 -1.2660461208 26.100128403 14.650497325 -18.651487472 19.78126115 -12.926608998 9.6165521045 
-19.78126115 12.926608998 -9.6165521045 3.7966255356 -21.66517575 -8.7441456622 21.782877499 13.74982263 -34.708269168 
-27.618537649 -1.2331830275 32.815595969 -4.4849032455 7.4061623159 28.329434936 -4.1159877384 -32.165288723 -10.016610768 
12.584904801 14.997786569 -14.085757857 11.926122682 9.7990263591 4.6144125782 1.0192698326 1.1967102789 2.9297391066 
-18.578858354 -2.0718991951 6.5129758973 20.562174479 -9.1244028759 6.6918183055 19.723951041 -1.2512571494 -9.4334520045 
5.467341879 -9.5340431531 8.7961045492 -0.03447036144 1.4897275816 9.1676938679 -24.391858543 -12.797157809 -7.6012646886 
-13.642876033 4.71089767 -26.490589183 -3.8693685571 -6.9166343282 -19.086871094 11.8927069 -21.148712791 6.849562878 
-0.028813792949 -12.486382946 25.165751421 33.287835764 7.3861617108 4.9933682222 12.10645676 6.3573398773 -12.177894744 
4.5440799973 13.852402965 1.9887755109 -19.439715251 -8.083329041 -13.82591153 2.4983481093 -19.329889388 -28.711143287 
16.005327486 -18.465973254 -5.9898153932 2.8661168947 23.1699306 18.258390561 1.6415009985 13.084042273 15.67629129 
13.452472404 -22.213132051 -13.733939389 9.1296034271 -3.7569785054 8.8499883688 24.633609047 23.391107201 1.7182649762 
-3.4453523231 -3.1141634123 1.4165274752 3.8153232896 -11.569904424 2.4633087288 21.7328431 1.92669087 -27.988216224 
9.4467473676 15.834465964 3.5532069043 -20.879141646 15.074457946 0.7934456493 8.5138239411 -16.267085625 6.1206112074 
-20.690439102 -5.6063680106 12.602309304 -6.8301067471 -12.778543508 13.057615614 19.968093813 11.389404653 4.5464814052 
22.166864152 24.173143037 12.880495931 2.6367030395 20.192757028 -1.1423496726 -24.197907481 -17.94017913 0.015869524818 
26.348906601 2.1792110475 1.6014648923 -31.193486055 -21.503033265 -0.32420216819 4.8331263094 -7.55434109 24.260375408 
-8.514469719 -2.9748702144 3.0800583019 -7.7987871703 14.476027919 -0.94320505621 20.484183281 -27.507883532 8.8214095127 
-13.178198789 -21.873790368 7.1343827373 1.1055643657 19.058951999 6.5954029319 19.983149539 17.270297222 28.849102578 
-5.8264754168 6.2361372405 -0.32116819326 -16.02404901 -12.287821895 -17.840431933 12.511035985 -7.080840277 -0.25386556247 
14.610016417 10.469665148 -11.736002311 2.5017736033 0.4037769905 -1.8422264645 18.500024917 -21.351930019 3.7485480343 
5.6032280388 -3.5824199551 0.94314619203 -11.367256739 -13.437921008 13.086375844 10.798001892 -7.5771127817 34.226486351 
4.2270433092 -10.229136457 2.3737354456 3.1781913226 3.2900568497 1.3907221285 11.285982387 21.331025814 13.066107731 
7.9345843094 12.363595365 14.377235257 -46.221504654 12.038977952 -8.7352894013 -10.160850864 -15.836658176 -18.698431493 
-15.69661765 -6.9966073097 -31.601291679 5.2687767097 25.10955426 -27.616565151 14.346247421 -4.2568058105 -7.6353415292 
-3.6699654069 21.883435507 -7.1242058817 3.9529459613 10.554777375 13.947717004 -9.7283288557 5.8369476644 -10.689372552 
2.092331358 -9.7531133148 -24.41448382 -2.9778904659 -20.49117684 -13.230318835 1.9630885586 11.088200499 2.8499305117 
-0.68746441914 22.948589171 6.8885961693 -23.824860342 8.9848936691 -10.23061682 1.7781211011 -6.5825602333 -13.650005231 
-13.619181215 -13.800122573 1.8720688793 9.9811233475 23.583572687 -14.150082415 8.0468207117 18.838834287 -21.068329213 
11.506983481 13.673772717 -3.4234099094 -1.5363284194 -16.349035849 3.6553265486 23.376537276 -18.098523167 -2.4551579928 
-17.398029062 -16.249063923 -14.474810452 -36.863898733 -39.37772536 -30.47099151 -29.033142395 -18.228703115 -2.8761841016 