# vtk DataFile Version 4.2
Generated by LIGGGHTS
ASCII
DATASET POLYDATA
POINTS 1000 float
0.817661 0.480677 0.0600256 4.81784 0.382975 0.538388 1.59508 0.95363 0.501399 
3.94039 0.767275 0.244229 0.414656 1.36748 0.288266 3.42036 1.81333 0.401606 
0.046735 2.49317 0.576364 1.80268 2.14075 0.337122 2.83011 3.03419 0.541262 
4.00304 2.60331 0.593856 1.48863 3.22889 0.479145 4.18705 3.45958 0.108133 
1.73544 4.21176 0.462902 4.24367 4.43923 0.320845 0.823112 0.316848 1.06851 
2.50465 0.45848 0.772401 3.4675 0.333265 1.01203 0.339897 1.25572 1.2791 
1.73633 1.6709 1.24753 2.51899 1.45193 0.652368 4.12691 1.42506 0.998673 
0.854181 2.06073 0.983081 2.46026 2.35729 1.17789 4.84046 2.06202 0.670553 
0.686117 3.65396 0.8979 2.78464 4.11028 0.822235 3.89898 3.85149 1.07472 
0.489565 4.657 0.929348 2.71125 0.219061 1.80829 4.14227 0.345092 1.83641 
1.88807 0.836367 1.77719 3.30218 1.22162 1.5282 3.54432 2.20422 1.38781 
4.59521 2.09803 1.64685 0.00543163 3.12202 1.67356 1.74503 2.63843 1.9222 
3.05203 3.07155 1.60504 4.41623 3.05841 1.41424 1.02126 3.34646 1.81836 
0.325011 4.06782 1.7336 2.06289 4.42863 1.58784 3.29297 4.60536 1.79361 
4.5499 4.84606 1.36211 4.94784 0.294785 2.48675 0.851839 0.794267 2.00366 
2.62825 1.02075 2.42493 4.76149 1.17605 2.03625 0.0125039 1.69095 2.6246 
1.44442 1.44194 2.48263 0.590906 2.40699 2.11115 2.97914 1.92451 2.16409 
3.97217 2.02721 2.42793 2.67253 3.00358 2.61912 3.86066 3.0098 2.26428 
1.80404 3.57139 2.46815 0.637016 3.79272 2.64558 2.69552 3.87992 2.13567 
4.16817 4.16234 1.98807 0.330561 4.99253 2.11426 2.49859 4.97464 2.30755 
0.99693 0.565685 2.97495 1.97621 0.369967 2.83402 3.30411 0.430797 2.87323 
0.00650206 0.751315 2.97291 4.18443 0.913011 2.81007 3.3434 1.46142 2.97219 
0.6163 2.32528 3.11227 1.60603 2.34932 2.87072 2.57934 2.11131 3.06295 
4.71744 2.2695 3.04963 1.14742 3.16436 3.23449 3.45934 3.64938 2.96294 
4.62936 3.60562 2.69058 2.41803 4.09057 3.07363 0.255596 4.62784 3.04246 
1.63207 4.58279 2.6963 3.30118 4.63159 2.7967 4.2648 4.48248 3.01803 
0.400763 0.437891 3.84774 4.4107 0.0975294 3.36623 1.38632 0.666126 3.91628 
1.94958 1.2425 3.32235 2.67776 0.723443 3.79882 0.958921 1.47912 3.52038 
4.13941 1.56218 3.5694 1.53653 2.22348 3.86035 3.68262 2.74635 3.33164 
0.238937 3.18579 3.75847 1.97111 3.18522 3.80234 4.83099 3.24192 3.60121 
0.793583 4.03633 3.6674 4.13358 3.91932 3.84834 3.51032 4.7601 3.77496 
3.64558 0.466088 4.09006 0.557357 1.23315 4.43342 4.69868 0.771315 4.04833 
1.49006 1.55215 4.60175 2.4407 1.79013 4.00031 3.33129 1.40423 4.24215 
4.32242 1.56606 4.55253 0.569151 2.29967 4.13339 4.37654 2.43868 3.98843 
2.93706 3.10342 4.05163 1.02632 3.33428 4.35682 0.714574 4.23285 4.6657 
1.77726 4.01149 4.36589 2.69104 4.24163 4.024 3.46322 4.02513 4.62148 
0.273435 4.85273 4.01668 1.54567 4.95747 4.138 1.39542 0.590856 4.91544 
2.91022 0.24527 4.91664 2.35552 1.05777 4.6879 3.66729 0.890404 5.03158 
4.62741 0.641295 5.18757 3.31443 1.8139 5.21918 0.337374 1.92196 5.26244 
1.24049 2.4909 4.84958 2.51216 2.29274 4.86248 3.60559 2.7701 4.73285 
4.59959 2.95698 4.81532 0.117811 3.65157 5.30744 1.22705 3.63479 5.29035 
1.98977 3.15319 4.83299 2.86954 3.42745 5.22162 2.50284 4.34861 5.03275 
4.34529 3.99602 5.09659 4.86886 4.89131 4.67267 3.55546 0.543303 5.966 
0.458011 0.905581 5.38455 1.84533 0.661169 5.80753 2.77867 1.05311 5.59621 
0.96117 1.62996 5.98778 1.95838 1.61625 5.48305 4.89352 1.49434 5.64039 
1.5008 2.45389 5.81465 4.05201 2.40291 5.57106 0.704365 3.05086 5.91159 
2.47917 2.66153 5.81249 3.76151 3.37148 5.67527 1.71766 4.19261 5.95984 
3.07387 4.21105 5.94638 0.925173 4.65017 5.55532 2.40159 4.94354 5.83626 
3.94947 4.79558 5.55679 0.855749 0.24909 6.02625 2.64557 0.0531138 5.99917 
4.3403 0.0545752 6.4537 4.61368 1.07205 6.50873 1.79581 1.38723 6.49398 
2.91858 1.79358 6.25863 3.87331 1.49155 5.98335 0.0872668 2.12329 6.3357 
4.576 2.08202 6.38578 3.38885 2.67632 6.29017 1.572 3.26332 6.39809 
4.69027 3.54173 6.00803 3.99065 4.18617 6.35115 0.612711 4.41737 6.47963 
1.76451 0.591132 7.11778 0.883739 0.986234 6.7491 2.7135 0.707338 6.75498 
3.7164 0.86593 6.89984 4.61025 1.67887 7.3036 0.886713 2.24735 6.97436 
1.93872 2.35682 6.7113 3.71992 1.87725 6.89329 4.1423 2.80108 6.93627 
0.780535 3.57284 6.98848 2.55809 3.15239 6.71308 3.16269 3.92629 6.90166 
4.08443 3.78028 7.26092 2.30264 4.4197 6.73852 3.89027 4.82469 7.24658 
4.73954 4.78175 6.7163 2.79098 0.219633 7.62456 4.09755 0.328562 7.65223 
0.101439 0.641979 7.47568 3.09866 1.19263 7.61522 0.352699 1.60294 7.5919 
1.29098 1.26858 7.68072 2.20013 1.57025 7.39049 3.93846 2.20234 7.83235 
1.3964 2.98353 7.51242 2.28905 2.53902 7.63019 4.79045 2.72528 7.78643 
3.08385 3.14656 7.63612 0.0887154 4.38028 7.8478 1.62812 4.33956 7.58024 
2.62031 4.49803 7.68772 0.767144 0.210262 8.25739 1.76664 0.51604 8.17232 
3.41781 0.400513 8.38251 4.7781 0.243497 8.45029 0.743784 1.2057 8.51537 
4.45436 1.13286 8.12745 2.41936 1.45226 8.40506 3.5549 1.38581 8.48456 
0.741923 2.50957 8.10293 1.63795 2.0567 8.24051 4.77944 2.00878 8.48392 
2.43038 2.95189 8.53082 0.43282 3.45639 8.015 1.71962 3.59327 8.23998 
3.97491 3.2217 8.08415 0.931011 4.24588 8.5753 3.35842 4.00628 8.15062 
4.42257 4.1422 8.12967 2.95332 4.83258 8.56921 1.30401 0.501575 9.07174 
2.53981 0.582672 8.88544 3.78127 0.732746 9.25728 4.58316 1.42262 9.29936 
0.8949 2.09486 9.00726 2.04787 2.32469 9.21175 3.05684 2.20645 8.76557 
3.99901 2.54029 8.81567 0.969247 3.20374 8.82038 1.77123 3.60082 9.26683 
3.41231 3.36517 8.9171 0.214037 4.17481 9.26939 2.56721 4.293 9.3177 
4.70912 3.96293 9.12382 1.59918 4.59947 9.25962 3.94866 4.60633 9.03543 
2.13093 0.487388 9.79547 3.11313 0.24763 9.92342 4.73484 0.437094 9.43371 
0.204919 0.963581 9.32814 1.31262 1.52477 9.71505 2.59446 1.36229 9.6292 
3.63953 1.72836 9.42682 0.0672424 2.05966 9.63651 2.89211 2.36025 9.75043 
4.40968 2.33819 9.70624 0.181932 3.04734 9.49908 0.995425 2.58749 9.87603 
0.918019 3.72107 9.82091 2.68162 3.34074 9.60086 3.46818 4.00939 9.68102 
0.906294 4.70958 9.9735 3.07875 4.89667 9.92958 0.361392 5.47494 0.315978 
2.05403 6.1723 0.153264 3.38914 5.81438 0.295829 0.811643 6.3298 0.575091 
4.92732 6.32649 0.128063 0.50814 7.31899 0.236433 1.47137 7.09011 0.489777 
2.86827 7.19707 0.252041 4.43881 7.34796 0.112307 2.15331 7.80536 0.642737 
2.69966 8.49976 0.174395 4.16008 8.49025 0.468728 0.0534231 9.48337 0.438062 
1.73617 9.63254 0.161402 3.71942 9.38769 0.396126 4.65422 9.51141 0.0631807 
1.34566 5.36387 0.694474 2.22603 5.37509 1.2976 3.37547 5.00171 0.879183 
2.69635 6.17556 0.920175 4.14837 6.60414 0.715574 0.657829 7.08895 1.20761 
3.02245 7.60396 1.15276 4.01956 7.54205 1.1072 1.17353 8.34007 0.772422 
3.45349 8.50835 1.17627 0.0760695 8.77135 1.30846 0.984721 9.32262 1.00568 
2.12939 8.76961 0.981215 4.708 9.17427 1.00714 1.905 9.74041 1.14117 
2.78384 9.48762 0.736132 1.26745 5.02916 1.67663 1.06654 6.01204 1.49015 
2.88471 5.82059 1.92889 3.83402 5.85978 1.3628 1.70854 6.78032 1.48136 
2.6901 6.82058 1.68432 4.79358 6.82205 1.91743 3.68175 6.89047 1.81609 
0.819379 7.91635 1.74554 1.80506 7.89015 1.57636 4.39793 8.46014 1.63816 
0.86439 8.90003 1.9206 2.78256 9.06612 1.68709 0.539626 9.84472 1.97163 
3.78677 9.42949 1.393 3.72357 5.38051 2.25943 0.0969027 5.9628 2.04953 
1.01652 5.65198 2.42187 1.94132 5.97618 2.2227 4.59025 5.86042 2.10173 
0.735314 6.72746 2.13834 1.64541 6.94598 2.49274 2.62872 7.00278 2.66569 
2.67165 7.80429 2.06834 3.66951 7.86847 2.04904 4.68743 7.75263 2.28303 
0.0690729 8.32173 2.26828 3.11553 8.54512 2.59228 1.85993 8.8333 2.0001 
4.36054 9.28871 2.19987 1.53232 9.93836 2.04778 2.41428 9.50734 2.51381 
3.38276 9.61441 2.28891 1.03365 5.19888 3.31329 4.29154 5.4825 3.07651 
2.60269 5.83085 2.96093 0.346561 6.67939 3.21867 1.26574 6.29174 3.14896 
3.61056 6.51022 2.7393 4.34957 7.22041 3.0595 0.609851 7.56083 2.67717 
3.2744 7.63109 3.09964 1.23836 8.23202 3.0706 2.22062 8.19302 2.87182 
4.10423 8.18912 3.09599 0.408396 8.79877 3.07928 1.21799 9.31418 2.76322 
4.5079 9.10094 3.17097 0.283991 9.78893 3.01397 3.57844 9.55091 3.26756 
2.38616 5.10595 3.61552 4.83899 5.56474 3.90941 0.134798 5.73438 3.55409 
3.44433 5.82827 3.50304 2.08303 6.35824 3.72138 3.45528 6.82045 3.69385 
4.36201 6.40107 3.63272 2.51706 7.255 3.63387 0.121426 7.55253 3.65709 
1.12268 7.49851 3.8265 1.95385 8.04744 3.91637 2.9532 8.09818 3.96244 
3.90656 7.78705 3.99011 0.203806 8.48589 4.0068 1.78701 8.94782 3.50292 
2.78682 8.99448 3.53413 3.70413 8.76034 3.86964 0.0805589 9.47685 3.94609 
1.09055 9.73866 3.65974 2.17089 9.85615 3.67013 3.90051 5.13878 4.61878 
0.988827 5.92217 4.03997 3.53096 6.0591 4.47542 1.14896 6.77903 4.53442 
2.78833 6.79213 4.47822 4.57826 6.37921 4.61442 3.80134 7.01231 4.61582 
0.487095 7.72041 4.60219 4.89268 7.62193 4.01715 4.70363 8.67378 4.06459 
1.08616 8.90782 4.21694 2.01947 9.22397 4.43667 0.770145 9.83896 4.60873 
3.19892 9.55266 4.25481 4.19755 9.51832 4.29689 0.812279 5.25589 4.76733 
1.77195 5.1615 5.0905 2.95036 5.32011 4.90702 0.113663 6.00246 4.9058 
1.03679 6.09595 5.28155 2.03466 6.09857 4.68674 2.88367 6.23879 5.30583 
0.420043 6.90999 5.21914 4.60117 7.22045 5.17883 1.46657 7.68103 4.82766 
2.46251 7.70315 4.74028 3.36671 8.02271 5.02768 1.55086 8.57356 5.27131 
4.35122 8.12122 4.82149 0.5146 8.80346 5.06424 2.75813 9.04558 5.09359 
3.78543 8.93043 5.05684 2.03089 9.86961 5.22155 3.87459 9.92087 5.16199 
0.322153 5.43421 5.70221 4.59603 5.43582 5.97322 1.99137 5.96387 5.67857 
3.76493 5.77215 5.42645 3.61715 6.85816 5.58675 4.49405 6.40619 5.7506 
1.62006 6.89585 5.43438 2.56258 7.15004 5.71403 0.528616 7.96352 5.6129 
3.78733 7.76694 5.96784 2.42273 8.20488 5.62647 4.66296 8.23452 5.84451 
4.46874 9.21597 5.82187 1.14398 9.47172 5.46227 1.19117 5.61544 6.16763 
2.07024 5.42584 6.6497 2.97629 5.70292 6.14581 3.86466 5.74707 6.60349 
0.207441 6.52454 6.13993 1.84995 6.74756 6.39669 3.90812 6.74487 6.54999 
0.873666 7.27435 6.2628 2.94578 7.05568 6.67749 4.75237 7.25043 6.22467 
[...]
POINT_DATA 1000
FIELD FieldData 7
id 1 1000 int
523 533 31 170 7 539 610 547 922 
162 20 393 109 641 26 63 33 41 
909 67 535 501 874 53 600 892 424 
365 80 58 24 25 450 45 526 130 
300 656 255 841 142 990 156 569 541 
62 52 17 626 504 32 69 288 939 
404 358 759 924 380 872 551 49 51 
23 538 48 508 418 36 568 269 927 
60 762 261 752 175 194 545 46 562 
37 588 30 574 283 43 744 263 692 
769 674 419 59 570 349 566 70 61 
581 42 591 776 276 814 286 766 408 
281 292 197 582 663 75 354 87 68 
294 589 50 719 285 296 84 79 783 
56 165 840 707 78 74 202 583 377 
578 235 278 584 592 322 571 816 284 
215 699 82 858 851 104 608 598 220 
846 105 580 695 698 323 576 230 833 
357 268 72 97 114 515 567 110 577 
510 702 630 214 123 10 704 554 217 
715 512 546 602 128 12 594 337 125 
742 733 528 372 256 236 782 557 279 
120 506 277 11 590 121 532 107 529 
28 503 735 13 552 47 604 505 543 
44 599 603 27 86 596 658 117 139 
544 555 15 530 514 540 556 607 542 
559 116 531 605 21 148 73 612 115 
242 129 240 135 137 716 635 855 625 
718 839 146 5 18 362 597 521 134 
147 723 884 144 370 3 140 912 640 
133 750 534 548 272 717 624 616 138 
646 232 631 173 174 633 167 22 71 
150 650 375 979 899 614 160 639 154 
141 8 731 905 638 29 502 561 661 
560 262 657 659 384 415 651 629 648 
149 682 636 402 163 169 35 644 187 
749 645 788 681 177 647 623 171 426 
920 180 155 157 185 684 662 172 649 
673 188 207 791 193 945 190 410 652 
186 39 275 199 182 670 192 301 902 
789 669 919 321 297 664 470 161 198 
637 660 178 446 189 676 565 195 342 
314 184 317 164 153 159 948 675 666 
935 181 456 830 678 807 573 211 680 
933 709 940 800 196 916 701 474 671 
685 335 85 347 831 66 737 219 91 
938 203 689 971 686 218 200 209 710 
126 856 585 563 103 628 736 703 224 
315 691 206 98 972 708 870 857 208 
363 822 586 511 303 99 225 999 976 
339 713 210 688 820 734 961 969 996 
212 863 223 81 634 229 729 77 237 
694 714 238 239 727 246 732 722 745 
601 632 593 152 234 243 696 231 997 
520 861 724 507 486 981 9 721 879 
747 509 399 606 847 364 672 854 111 
19 852 643 367 484 522 809 490 873 
843 1 746 572 252 368 683 761 849 
668 366 654 405 2 518 817 524 881 
289 519 575 860 420 862 356 786 842 
889 386 748 896 264 101 311 891 92 
469 768 251 316 767 439 811 655 620 
282 756 928 257 413 904 96 757 102 
777 758 815 449 253 290 259 796 784 
790 83 812 302 763 765 345 310 866 
423 431 778 781 785 806 798 780 775 
258 536 952 295 929 802 774 755 468 
801 764 970 304 324 461 430 813 353 
319 427 818 677 832 89 306 834 712 
318 452 425 312 836 665 333 779 55 
94 808 553 819 340 228 351 325 743 
476 478 829 489 428 307 331 305 667 
320 191 352 355 308 113 106 359 810 
797 738 985 343 967 835 330 706 838 
338 549 1000 564 4 346 57 247 371 
332 6 739 473 201 868 499 205 848 
326 587 95 361 826 64 859 38 595 
483 825 537 336 222 726 488 725 244 
241 226 513 216 118 558 373 287 550 
100 227 880 496 112 482 867 989 122 
119 274 270 213 579 900 168 266 90 
993 379 245 895 982 248 280 980 271 
124 127 54 642 911 299 869 88 131 
794 249 845 613 740 890 498 963 853 
480 844 611 494 475 995 136 918 267 
260 378 392 166 108 617 517 865 973 
492 401 495 621 975 653 437 360 145 
609 265 771 983 376 885 485 773 396 
986 385 14 293 753 369 728 395 754 
143 432 770 500 897 273 400 394 16 
34 615 151 383 882 793 254 984 886 
389 772 871 381 987 878 901 250 903 
907 387 403 894 883 414 398 898 390 
397 876 887 438 921 40 382 436 877 
925 313 411 917 422 412 888 751 906 
926 457 893 951 291 298 433 417 406 
923 914 388 435 407 434 787 937 908 
910 429 795 792 913 448 934 679 443 
309 942 459 453 409 440 915 416 946 
950 941 943 462 65 992 442 348 799 
447 944 460 421 455 183 334 803 441 
176 179 329 821 949 451 467 965 497 
837 947 454 444 697 458 964 204 931 
693 959 463 827 700 690 978 805 960 
472 824 936 804 930 864 954 481 958 
687 957 741 527 850 711 974 823 327 
465 445 471 932 374 953 464 994 966 
705 988 998 221 158 760 627 525 93 
618 955 350 491 341 962 828 344 720 
991 479 875 487 622 76 516 956 466 
619 493 233 477 730 968 977 328 391 
132 
type 1 1000 int
2 2 1 1 1 2 2 2 2 
1 1 1 1 2 1 1 1 1 
2 1 2 2 2 1 2 2 1 
1 1 1 1 1 1 1 2 1 
1 2 1 2 1 2 1 2 2 
1 1 1 2 2 1 1 1 2 
1 1 2 2 1 2 2 1 1 
1 2 1 2 1 1 2 1 2 
1 2 1 2 1 1 2 1 2 
1 2 1 2 1 1 2 1 2 
2 2 1 1 2 1 2 1 1 
2 1 2 2 1 2 1 2 1 
1 1 1 2 2 1 1 1 1 
1 2 1 2 1 1 1 1 2 
1 1 2 2 1 1 1 2 1 
2 1 1 2 2 1 2 2 1 
1 2 1 2 2 1 2 2 1 
2 1 2 2 2 1 2 1 2 
1 1 1 1 1 2 2 1 2 
2 2 2 1 1 1 2 2 1 
2 2 2 2 1 1 2 1 1 
2 2 2 1 1 1 2 2 1 
1 2 1 1 2 1 2 1 2 
1 2 2 1 2 1 2 2 2 
1 2 2 1 1 2 2 1 1 
2 2 1 2 2 2 2 2 2 
2 1 2 2 1 1 1 2 1 
1 1 1 1 1 2 2 2 2 
2 2 1 1 1 1 2 2 1 
1 2 2 1 1 1 1 2 2 
1 2 2 2 1 2 2 2 1 
2 1 2 1 1 2 1 1 1 
1 2 1 2 2 2 1 2 1 
1 1 2 2 2 1 2 2 2 
2 1 2 2 1 1 2 2 2 
1 2 2 1 1 1 1 2 1 
2 2 2 2 1 2 2 1 1 
2 1 1 1 1 2 2 1 2 
2 1 1 2 1 2 1 1 2 
1 1 1 1 1 2 1 1 2 
2 2 2 1 1 2 1 1 1 
2 2 1 1 1 2 2 1 1 
1 1 1 1 1 1 2 2 2 
2 1 1 2 2 2 2 1 2 
2 2 2 2 1 2 2 1 2 
2 1 1 1 2 1 2 1 1 
2 1 2 2 2 1 1 1 2 
1 2 2 2 1 2 2 2 1 
1 2 1 1 2 2 2 2 1 
1 2 2 2 1 1 1 2 2 
1 2 1 2 2 2 2 2 2 
1 2 1 1 2 1 2 1 1 
2 2 1 1 2 1 2 2 2 
2 2 2 1 1 1 2 1 2 
2 2 2 2 1 2 1 2 2 
2 2 1 2 2 1 2 2 1 
1 2 2 1 1 2 2 1 2 
2 1 2 2 1 1 2 2 2 
2 1 2 1 1 2 2 2 2 
1 2 2 2 1 2 1 2 2 
2 1 2 2 1 1 1 2 1 
1 2 1 1 2 1 2 2 2 
1 2 2 1 1 2 1 2 1 
2 2 2 1 1 1 1 2 2 
2 1 2 1 2 2 1 1 2 
1 1 2 2 2 2 2 2 2 
1 2 2 1 2 2 2 2 1 
2 2 2 1 1 1 1 2 1 
1 1 2 2 2 1 1 2 2 
1 1 1 1 2 2 1 2 1 
1 2 2 2 1 1 1 1 2 
1 1 2 1 1 1 1 1 2 
1 1 1 1 1 1 1 1 2 
2 2 2 1 2 2 1 2 2 
1 2 2 2 1 1 1 1 1 
1 1 2 1 1 2 1 1 2 
1 2 1 1 2 1 2 1 2 
1 2 2 1 1 2 1 2 1 
1 1 2 1 1 2 1 1 2 
1 1 2 1 1 1 2 2 1 
1 1 1 1 2 2 1 1 1 
2 1 1 2 2 1 1 2 1 
1 1 1 2 2 1 2 1 1 
2 1 2 2 2 2 1 2 2 
1 2 2 1 1 2 1 2 1 
1 1 1 1 1 2 2 2 2 
1 1 1 2 2 2 1 1 1 
2 1 2 2 1 2 1 2 1 
2 1 1 1 2 1 2 1 2 
1 1 2 1 2 1 1 1 1 
1 2 1 1 2 2 1 2 2 
1 2 2 1 2 2 2 1 2 
2 1 1 2 2 1 1 2 1 
1 2 2 1 2 1 1 1 2 
2 1 1 2 1 1 2 2 2 
2 1 2 2 1 1 1 1 1 
2 2 1 1 1 1 2 2 2 
2 1 2 2 2 1 2 2 1 
1 2 1 1 1 1 2 1 2 
2 2 2 1 1 2 1 1 2 
1 2 1 1 1 1 1 2 1 
1 1 1 2 2 1 1 2 1 
2 2 1 1 2 1 2 1 2 
2 2 1 2 2 2 2 2 2 
1 2 2 2 2 2 2 1 2 
2 2 2 2 2 2 2 2 1 
1 1 1 2 1 2 1 2 2 
2 2 2 1 1 2 2 2 1 
2 2 1 1 1 2 2 1 2 
2 1 2 1 2 1 2 2 1 
2 1 1 1 2 2 2 1 1 
1 
i 3 1000 int
0 0 0 0 0 0 0 0 0 
0 1 0 0 0 0 0 0 0 
0 0 1 0 0 0 1 0 0 
0 0 0 0 0 0 1 0 0 
0 0 1 0 0 0 0 0 0 
0 0 0 0 0 0 0 0 0 
1 0 0 0 0 0 0 0 0 
0 0 0 1 0 0 0 0 0 
0 0 1 1 0 0 1 0 0 
1 0 1 0 0 0 0 0 0 
0 0 0 0 0 0 1 0 0 
0 0 0 0 0 0 0 0 0 
1 0 0 0 0 0 1 0 0 
1 0 1 0 0 0 1 0 1 
0 0 0 0 0 0 0 0 0 
0 0 0 0 0 0 0 0 0 
0 0 0 0 0 0 0 0 0 
0 0 0 1 0 0 1 0 0 
1 0 0 1 0 1 1 0 0 
1 0 0 1 0 1 1 0 0 
0 0 0 0 0 0 0 0 0 
0 0 0 0 0 0 0 0 0 
0 0 0 1 0 0 0 0 0 
0 0 0 1 0 0 1 0 0 
0 0 0 1 0 0 1 0 0 
1 0 0 0 0 0 0 0 0 
0 0 0 0 0 0 0 0 0 
0 0 0 0 0 0 0 0 0 
0 0 0 1 0 0 0 0 0 
1 0 0 1 0 0 0 0 0 
1 0 0 0 0 0 1 0 0 
0 0 0 0 0 0 0 0 0 
0 0 0 0 0 0 0 0 0 
0 0 0 0 0 0 0 0 0 
1 0 0 1 0 0 1 0 0 
1 0 0 1 0 0 1 0 0 
1 0 0 1 0 0 0 1 0 
0 0 0 0 1 0 0 0 0 
0 0 0 0 0 0 0 0 0 
1 0 0 0 0 0 0 0 0 
0 0 0 1 0 0 1 0 0 
0 0 0 0 0 0 1 0 0 
0 0 0 0 0 0 0 0 0 
0 1 0 0 0 0 0 0 0 
0 1 0 0 0 0 0 0 0 
0 0 0 0 0 0 1 0 0 
0 0 0 0 0 0 1 0 0 
0 0 0 1 0 0 1 0 0 
0 0 0 0 1 0 0 0 0 
0 0 0 0 0 0 0 0 0 
0 0 0 0 0 0 0 1 0 
0 0 0 0 0 0 0 0 0 
0 0 0 0 0 0 1 0 0 
0 0 0 0 1 0 0 0 0 
0 0 0 0 0 -1 0 0 0 
0 0 0 0 0 0 0 0 -1 
0 0 0 0 0 0 0 0 0 
0 0 -1 0 0 0 0 0 -1 
0 0 0 0 0 0 0 0 -1 
0 1 0 0 0 -1 0 1 0 
0 1 0 0 0 -1 0 0 -1 
0 0 0 0 0 0 0 0 -1 
0 0 0 1 0 0 0 0 0 
0 0 0 0 1 0 0 0 -1 
0 0 0 0 0 -1 0 1 0 
0 0 -1 0 0 -1 0 0 -1 
0 0 0 0 0 -1 0 0 -1 
0 0 -1 0 0 0 0 0 0 
0 0 -1 0 0 0 0 0 -1 
0 0 -1 0 0 -1 0 1 0 
0 0 -1 0 0 -1 0 0 -1 
0 0 0 0 0 -1 0 0 -1 
0 0 -1 0 0 0 0 0 0 
0 0 -1 0 0 0 0 0 0 
0 0 -1 0 0 0 0 0 -1 
0 0 -1 0 0 -1 0 0 -1 
0 0 -1 0 0 -1 0 0 -1 
0 0 -1 0 0 0 0 0 -1 
0 0 -1 0 0 0 0 0 -1 
0 0 0 0 0 -1 0 0 -1 
0 0 0 0 0 -1 0 0 1 
0 0 1 0 0 0 0 0 1 
0 0 0 0 0 0 0 0 1 
0 0 0 0 -1 1 0 0 0 
0 0 1 0 -1 1 0 0 0 
0 -1 0 0 -1 0 0 -1 1 
0 0 1 0 0 0 0 0 0 
0 0 0 0 0 1 1 0 0 
0 0 0 0 -1 1 0 -1 0 
0 0 0 1 0 0 0 0 0 
0 0 0 0 -1 0 0 -1 0 
0 -1 0 1 0 0 0 0 1 
0 0 0 0 0 0 0 0 0 
0 0 0 0 0 1 0 0 0 
0 0 0 0 0 0 0 0 0 
0 0 0 0 -1 0 0 -1 0 
0 0 0 0 0 0 1 0 1 
1 0 1 1 0 0 0 0 0 
0 0 0 0 0 0 0 0 0 
0 0 0 0 -1 0 0 0 1 
1 0 0 0 0 0 0 -1 0 
0 -1 0 0 -1 0 0 0 0 
0 -1 0 1 0 0 0 0 0 
0 0 0 1 0 0 1 0 0 
0 0 0 0 0 0 0 0 0 
0 0 0 0 0 0 0 0 0 
0 0 0 0 0 0 0 0 0 
0 -1 0 0 0 0 0 0 0 
1 0 0 0 0 0 1 0 0 
0 0 0 0 0 0 0 0 0 
0 0 0 0 0 0 1 0 0 
1 0 0 0 0 0 0 0 0 
0 0 0 0 0 0 0 0 0 
0 0 0 0 0 0 0 0 0 
0 0 0 0 0 0 0 0 0 
1 0 0 0 0 0 1 0 0 
0 0 0 0 0 0 0 0 0 
0 0 0 0 -1 0 0 -1 0 
0 0 0 0 0 0 0 0 0 
0 0 0 0 -1 0 1 0 0 
1 0 0 0 0 0 1 0 0 
1 0 0 1 0 0 0 0 0 
1 0 0 0 0 0 0 0 0 
0 0 0 0 0 0 0 0 0 
0 0 0 0 0 0 0 0 0 
0 -1 0 0 0 0 0 -1 0 
1 0 0 0 0 0 1 0 0 
0 0 0 0 0 0 0 0 0 
1 0 0 0 0 0 0 0 0 
0 0 0 0 0 0 0 0 0 
0 -1 0 0 0 0 1 0 0 
0 0 0 0 0 0 0 0 0 
1 0 0 0 0 0 0 0 0 
1 0 0 0 0 0 0 0 0 
0 0 0 0 0 0 0 0 0 
0 0 0 0 -1 0 0 -1 0 
0 -1 0 1 0 0 0 0 0 
0 0 0 0 0 0 0 0 0 
0 0 0 0 0 0 0 0 0 
0 0 0 0 0 0 0 0 0 
0 0 0 0 0 0 0 0 0 
0 -1 0 0 -1 0 0 0 0 
0 0 0 0 0 0 0 0 -1 
0 0 0 0 0 0 0 0 0 
1 0 0 0 0 0 0 0 0 
0 0 0 0 0 0 0 0 0 
0 -1 0 0 -1 0 0 0 0 
0 -1 0 0 -1 0 0 0 0 
0 0 -1 1 0 0 0 0 0 
0 0 0 0 0 0 0 0 0 
1 0 0 0 0 0 0 0 0 
0 0 0 0 -1 0 0 0 0 
0 0 0 0 0 0 0 0 0 
0 0 0 0 -1 0 0 0 0 
0 0 0 0 0 -1 0 0 0 
0 0 0 0 0 0 0 0 0 
0 0 0 0 0 0 0 0 0 
0 0 0 0 0 0 0 0 0 
0 0 0 0 0 0 0 -1 -1 
0 0 0 0 0 -1 0 0 0 
0 0 -1 0 0 0 0 0 0 
0 0 0 0 0 0 0 0 0 
0 -1 -1 0 -1 0 0 0 0 
0 -1 -1 0 1 1 0 1 1 
-1 0 0 -1 1 1 0 1 0 
0 0 0 -1 0 0 0 1 0 
-1 0 1 0 0 1 0 0 1 
0 0 0 0 0 1 -1 0 1 
0 0 0 0 0 1 0 0 0 
0 0 1 0 1 1 -1 0 0 
0 0 0 0 1 1 0 1 0 
0 0 1 -1 0 0 0 0 0 
0 0 0 0 0 0 0 0 1 
0 0 0 0 0 0 0 0 1 
0 0 0 0 0 1 0 1 0 
0 1 0 -1 0 0 -1 0 0 
0 0 0 0 0 0 0 1 0 
0 0 0 -1 0 0 0 0 0 
0 0 1 0 0 0 0 0 1 
0 0 1 0 0 0 0 0 1 
0 1 0 0 1 0 0 0 0 
0 1 0 0 0 0 0 0 0 
0 0 0 0 1 0 0 0 0 
0 0 0 0 0 0 0 0 0 
0 0 0 0 0 0 0 0 0 
0 0 0 0 0 0 0 0 0 
0 0 0 0 0 0 0 1 0 
0 0 0 0 1 0 0 1 0 
0 0 0 0 0 0 0 0 0 
0 0 0 0 0 0 0 0 0 
0 0 0 0 0 0 0 0 0 
0 0 0 0 0 0 0 0 0 
0 0 0 0 0 0 0 0 0 
0 0 0 0 0 0 0 0 0 
0 0 0 0 0 0 0 0 1 
0 0 0 0 0 0 0 0 0 
0 0 0 0 0 0 0 0 0 
0 0 0 0 0 0 0 0 0 
0 0 0 -1 0 0 0 0 0 
0 0 0 0 0 0 0 0 0 
0 0 0 0 0 0 0 0 0 
0 0 0 0 0 0 0 0 0 
0 0 0 0 0 0 0 0 0 
0 0 0 0 0 0 0 0 0 
0 0 0 0 1 0 0 0 0 
-1 1 0 0 0 0 0 0 0 
0 0 0 0 0 0 0 0 0 
0 0 0 0 0 0 0 0 0 
0 0 0 0 0 0 -1 1 0 
0 0 0 0 0 0 -1 0 0 
0 0 0 0 0 0 -1 0 0 
0 0 0 0 0 0 0 0 0 
0 0 0 0 0 0 0 0 0 
0 0 0 0 0 0 0 0 0 
0 0 0 0 0 0 0 0 0 
0 0 0 0 0 0 -1 1 0 
0 0 0 -1 1 0 0 0 0 
0 0 0 0 0 0 0 0 0 
0 0 0 0 0 0 0 0 0 
0 0 0 0 0 0 0 0 0 
0 0 0 0 0 0 0 0 0 
0 0 0 -1 1 0 0 0 0 
0 0 0 -1 0 0 0 0 0 
-1 0 0 0 0 -1 0 0 0 
-1 0 0 0 0 0 0 0 0 
0 0 0 0 0 -1 0 0 0 
0 1 0 -1 1 0 0 0 0 
0 1 0 -1 1 0 0 0 0 
0 0 0 -1 0 0 -1 0 0 
0 0 0 0 0 0 -1 0 0 
0 0 0 0 0 -1 0 0 0 
0 0 0 0 0 0 0 0 -1 
0 0 0 -1 1 0 -1 1 0 
0 1 0 -1 1 0 -1 1 0 
-1 1 0 -1 1 0 0 0 -1 
-1 1 0 -1 0 0 0 0 -1 
0 0 0 0 0 -1 0 0 -1 
-1 0 0 -1 1 0 0 1 -1 
0 1 0 -1 0 0 0 1 0 
0 0 0 0 1 0 -1 0 0 
-1 0 0 0 0 -1 0 0 -1 
-1 1 0 -1 0 0 0 0 -1 
0 0 -1 0 0 -1 -1 0 0 
0 1 0 0 1 0 -1 1 0 
0 1 -1 0 1 0 -1 1 0 
0 0 -1 0 1 0 0 0 -1 
-1 0 0 -1 0 0 0 0 -1 
0 0 -1 0 0 -1 0 0 -1 
0 0 0 -1 0 0 0 0 0 
0 0 0 0 0 0 0 0 1 
0 0 0 0 0 1 0 0 0 
0 0 1 0 0 1 0 0 1 
0 0 1 0 0 1 -1 0 0 
0 0 1 0 0 1 0 0 1 
-1 0 0 0 0 0 0 0 0 
0 0 0 0 0 1 0 0 0 
0 0 0 -1 0 1 0 0 0 
0 0 0 0 0 1 0 0 1 
0 0 1 0 0 0 0 0 1 
-1 0 0 0 0 1 0 0 0 
0 0 0 0 0 1 0 0 0 
0 0 1 0 0 0 0 0 0 
0 0 1 0 0 1 0 0 0 
0 0 1 0 -1 0 0 0 0 
0 0 1 0 0 0 -1 -1 0 
0 0 0 0 0 0 0 0 1 
0 0 1 0 0 0 0 0 0 
0 0 0 0 0 0 0 0 0 
0 0 1 0 0 0 0 0 0 
0 0 0 0 0 0 -1 -1 0 
-1 -1 0 0 0 0 0 0 0 
0 0 0 0 0 0 0 0 0 
0 0 0 0 0 1 0 0 0 
0 0 0 0 0 0 0 0 0 
0 0 0 0 0 1 0 0 0 
0 0 0 0 -1 0 0 0 0 
0 0 0 0 0 0 0 0 0 
0 0 0 0 0 0 0 0 0 
0 0 0 0 0 0 0 0 0 
0 0 0 0 0 0 0 0 0 
0 0 0 0 0 0 0 -1 0 
0 0 0 0 0 0 0 0 0 
0 0 0 0 0 0 0 0 0 
0 0 0 0 0 0 0 0 0 
0 0 0 0 -1 0 0 0 0 
0 0 0 0 0 0 0 0 0 
0 0 0 0 -1 0 0 -1 0 
0 0 0 0 0 0 0 0 0 
0 0 0 0 0 0 0 0 0 
0 0 0 0 0 0 0 0 0 
0 -1 0 0 0 0 0 0 0 
0 0 0 0 0 0 0 -1 0 
0 -1 0 0 0 0 0 0 0 
0 0 0 -1 0 0 0 0 0 
0 0 0 0 0 0 0 0 0 
0 0 0 0 0 0 0 0 0 
0 0 0 0 0 0 0 0 0 
0 0 0 0 0 0 0 0 0 
0 0 0 -1 -1 0 0 0 0 
0 0 0 0 0 0 0 0 0 
0 0 0 0 0 0 0 0 0 
0 0 0 0 0 0 -1 0 0 
0 -1 0 0 -1 0 0 0 0 
-1 0 0 -1 0 0 0 -1 0 
0 -1 0 0 0 0 0 0 0 
0 0 0 0 0 0 0 0 0 
0 0 0 0 0 0 0 0 0 
0 0 0 -1 0 0 0 0 0 
0 0 0 -1 0 0 0 0 0 
-1 0 0 0 0 0 0 0 0 
0 -1 0 -1 0 0 -1 0 0 
0 0 0 0 0 0 0 0 0 
0 0 0 0 0 0 0 0 0 
0 0 0 0 0 0 0 0 0 
0 0 0 0 0 0 0 0 0 
-1 0 0 0 0 0 -1 0 0 
0 0 -1 0 0 0 0 0 0 
0 0 0 0 0 0 0 0 0 
0 0 0 0 0 0 0 0 0 
0 0 0 0 0 0 0 0 0 
0 0 0 0 0 0 0 0 0 
-1 0 0 0 0 0 0 0 0 
-1 0 0 0 0 -1 0 0 -1 
0 0 -1 0 0 -1 -1 0 0 
0 0 -1 0 0 0 0 0 0 
0 0 0 0 0 0 0 0 0 
0 0 0 0 0 0 -1 0 0 
0 0 0 0 0 0 0 0 -1 
0 0 0 0 0 -1 -1 0 0 
0 0 -1 0 0 0 0 0 0 
0 0 -1 0 0 0 -1 0 0 
0 0 0 -1 0 0 0 0 0 
0 0 0 0 0 0 0 0 -1 
-1 0 -1 
v 3 1000 double
-0.10411466199 0.043320256279 -0.044005236055 -0.13950194081 -0.027522894913 -0.046907147143 -0.025469529642 -0.046358459571 -0.05962831506 
-0.12176821344 -0.012005259192 -0.098706526913 -0.046813886602 0.059238528352 0.0020014972084 -0.055036318114 -0.038120333848 -0.2107527956 
-0.031414403649 0.051120268879 0.096742040262 -0.02931343999 -0.0022611437359 -0.10540339019 0.013697660651 -0.011858613287 -0.091216211482 
-0.056803973714 -0.043999977832 -0.18570218161 0.018081681534 0.030153068891 0.017858241947 0.075357771672 -0.11309543323 -0.2277556657 
0.045617202291 0.038792141444 -0.01503561421 0.18064966009 -0.12749522532 -0.15416075549 -0.066827946835 -0.0026117544162 -0.052762212603 
-0.010146932708 -0.058254372365 -0.13461731917 -0.023692293746 -0.14575687719 -0.11838797579 -0.060633979429 0.0099428030784 -0.033613550154 
0.016628637486 -0.031448098021 -0.11282246285 -0.048421321605 -0.063088134955 -0.20208603348 -0.10789779181 -0.014603454447 -0.11962761039 
-0.0043317979086 -0.009340779343 -0.0090440636199 0.033810308855 -0.049435179855 -0.11861403687 -0.08487464137 -0.099890193607 -0.21674628219 
0.041833198614 0.013053487386 0.081976278815 0.11615860982 -0.013397252897 -0.092557985618 0.063198600075 -0.10306511778 -0.16030043688 
0.11361631575 0.066901615615 0.14901525419 -0.0067656600249 -0.11547896364 -0.1482839545 0.013104157124 -0.11465929529 -0.24849024983 
-0.011186029117 -0.062925165669 -0.1536373927 -0.094906507555 -0.15472117548 -0.1433300664 0.051513822221 -0.14881519648 -0.17308625246 
0.078484700952 -0.10065387215 -0.18220691069 0.028692122628 0.0024376663838 0.070192568156 0.083885978824 -0.038714076535 -0.04883187228 
0.11534989118 -0.092805694864 -0.16501407867 0.11051224633 -0.097395144564 -0.19660492212 0.070528121588 -0.0080201472267 0.088269134096 
0.069904302737 -0.012455283013 0.10719731283 0.11642423754 -0.090184702769 -0.029000426415 0.12884319386 -0.09078188581 -0.07032477113 
0.17601614012 -0.14272755009 -0.20813131005 -0.062078433265 -0.10382870938 -0.029320830189 0.025818430458 7.1560020115e-05 -0.10959282991 
0.0025718389624 -0.069879329298 -0.16566846307 0.026173364305 -0.087086905425 -0.060497949665 -0.0099140824367 0.0054025581264 -0.0058089968604 
0.029717861404 0.0061444070273 -0.12097063547 0.08274192782 -0.038396726822 -0.0241188167 0.060721876863 -0.069129246563 -0.14363593229 
0.10857481001 -0.17085689893 -0.15856883597 0.09703111103 -0.13013996154 -0.092590778908 0.14258320442 -0.16376137542 -0.16304402165 
0.17583014919 -0.10954927911 0.038995982005 0.1469845047 0.022617325566 0.098959998524 0.14338781584 -0.095395391167 -0.048655102048 
0.1466647069 -0.10440681532 -0.17717161353 0.11067456018 -0.00081041716979 0.075017478297 0.094752898305 -0.096036048627 -0.0098696469696 
0.0072934950586 -0.019655976726 -0.080106593471 0.034846229482 -0.073668573281 -0.060948973567 -0.040030327589 -0.14285785063 -0.17496710401 
-0.0017757728473 0.0094563637076 0.011106783632 -0.050698341831 -0.12636372205 -0.12874574468 0.026358367232 -0.11286602593 -0.15196552211 
0.0060710164099 -0.017335385639 -0.015606882931 0.029672082279 -0.020011683618 -0.057256645722 0.050211579159 -0.15417510159 -0.13108739701 
0.066420744998 -0.078616964153 -0.13853257048 0.089134994701 -0.077697884026 0.051790301356 0.20623709915 -0.1757860063 -0.056057745265 
0.098662479412 -0.11522285074 -0.11577544106 0.22870847499 -0.10577260737 -0.014894375636 0.053978083248 -0.0046694695796 0.071268435913 
0.17106586389 -0.083705822029 0.11063552069 0.073865258446 -0.18843925921 -0.068742845823 0.095680820165 -0.093889616219 -0.10985644433 
0.012901744828 -0.022862923306 -0.0087485398349 0.012079161558 -0.071968925221 -0.11261033326 0.038510894475 0.0038213189159 -0.071395110073 
0.011644843354 -0.038166338322 -0.11803070245 0.027574312378 -0.031317605038 -0.1033463677 0.030471474019 0.0038677769699 -0.054539323157 
0.031522594291 -0.083424101417 -0.15995524739 0.0053013695812 0.039871273329 -0.050916025774 0.0025902196372 -0.28071427008 -0.16154102225 
0.089948048771 0.021740545326 0.020851873632 0.11624253864 -0.041905880456 0.015504483223 0.06125959782 -0.13078753109 -0.10824337647 
0.12407760181 0.037954386111 -0.010057950174 0.022168082946 -0.14513045392 -0.14977666258 0.10474600471 -0.033420196162 -0.10243911924 
-0.048338813933 -0.0033215141753 -0.084592335369 -0.020147678217 0.0045651223039 -0.034747387854 0.057662791049 -0.099517469216 -0.10034083585 
-0.0067016939767 0.0054274236819 -0.1002520706 0.0043232611015 -0.056173868276 -0.098581251835 0.029478049738 0.022154869789 -0.094791691677 
-0.025198337166 -0.078283228702 -0.14874409805 0.025341779801 0.036662156359 -0.04950779658 0.043088847717 -0.11406036833 -0.10101112926 
0.15086254793 -0.023864128783 -0.094400856079 0.10587938551 0.019987641832 -0.0078391128998 0.1122558626 0.00047564550917 0.024654572712 
0.11823561185 0.028393027724 -0.016109705154 0.15088081739 -0.069232114124 0.0023210176342 0.13691362194 -0.073243636205 0.021037306695 
0.070881106503 0.015672544347 0.066413070941 0.14685460312 0.056143372034 0.06366426177 -0.092596023296 0.040425708261 -0.061260750387 
-0.1046036209 -0.065665193808 -0.057483645957 -0.0073505630858 -0.022780893804 -0.15888206498 -0.051321159351 -0.10436600032 -0.13723531322 
-0.055692834063 -0.069431662024 -0.035968320835 -0.027986007618 -0.067490952736 -0.15758608864 0.011896752793 0.12151448968 -0.071489986726 
0.010276156691 -0.01457764146 -0.012922326208 -0.054349669511 -0.053923805047 -0.090566903735 0.019058959432 -0.14465809956 0.013342430258 
0.05956824709 -0.080698307205 -0.20873909239 0.057226631604 0.074136009123 0.036586897361 0.042303565521 -0.066006861333 0.042398238406 
0.03147406034 -0.030588166466 -0.083702619604 0.043895751898 -0.037698971443 -0.10323927853 0.1584899074 0.049053424475 0.029468557277 
0.15421239334 -0.07651799734 -0.0074063429974 0.043711314402 -0.12218517184 -0.074859440267 -0.059376271359 -0.072804958761 -0.13476016385 
-0.025839389216 0.091356347124 0.01045911799 -0.066792194154 -0.03024782738 -0.060214344325 -0.053778713207 -0.067846699656 -0.13890844303 
-0.082846845967 0.047330528065 -0.014678039662 -0.029159025696 -0.039631705876 -0.079554098422 -0.018380101121 -0.073447577844 -0.11779288674 
0.0059936153441 -0.011878114039 -0.019506081298 -0.019812007153 -0.040543487297 -0.14824588855 0.0052664820644 -0.02426111237 0.052177926782 
0.014184542045 -0.043786617401 -0.11342696116 0.063968301537 -0.096174421453 -0.14092159981 0.039612677141 0.009356448067 -0.017647589213 
0.021466346384 -0.10497016117 -0.083934028601 0.014296209108 0.016097858828 0.045785024267 0.098099672958 -0.012887554157 0.024542880482 
0.030532525222 -0.084449993257 -0.06887169821 -0.10630754828 0.046876819496 0.019906296643 -0.096914157279 -0.087450420226 -0.044368741285 
-0.11269445769 -0.021363995063 -0.017591467567 -0.062135583553 -0.082265501366 -0.10440437327 -0.039923894679 -0.0079531054907 -0.078607636457 
-0.051889807623 -0.079675383547 -0.12803495517 -0.028065560669 -0.078422916357 -0.15592819549 -0.053634297813 0.035857101135 0.051866066042 
-0.032057609075 -0.055049163828 -0.12347762908 -0.031969124293 -0.084704468612 -0.18478279359 -0.065902422041 -0.024302665584 -0.0089601275493 