# vtk DataFile Version 4.2
Generated by LIGGGHTS
ASCII
DATASET POLYDATA
POINTS 1000 float
2.23206 0.229394 0.286427 4.25812 0.160589 0.229123 1.37425 0.760454 0.245477 
4.00101 1.08761 0.502829 0.200068 1.58467 0.346588 4.44728 1.85956 0.0478049 
0.804524 2.8105 0.18268 2.85269 2.93675 0.198086 4.846 2.68748 0.556281 
1.68891 3.32012 0.509598 4.12542 3.351 0.335293 0.858936 3.96508 0.133724 
1.88938 4.29819 0.451208 3.13349 3.88279 0.410203 4.04055 4.35764 0.349689 
1.01034 4.92724 0.37774 5.00676 4.42863 0.62082 0.563802 0.30354 0.84385 
4.04516 0.0959776 1.20977 1.79275 0.671068 1.1495 2.89501 0.775528 0.867618 
4.97602 0.743992 0.672452 0.12851 1.33952 1.3179 1.73613 1.58868 0.7188 
4.74007 1.62709 1.07877 0.853668 2.0347 0.961885 2.59364 2.10994 0.698067 
3.58532 1.97105 0.723324 0.121732 2.86052 0.913519 3.47289 2.91993 1.02117 
1.00904 3.67194 1.15823 4.77823 3.64508 1.20137 0.0831558 3.84692 0.753707 
0.921221 0.813942 1.62986 2.52924 0.757146 1.8205 4.79182 0.691351 1.73715 
1.60174 1.49133 1.91307 3.13037 1.60619 1.54944 4.09101 1.39654 1.85174 
0.928419 2.23292 1.93943 2.11958 2.4429 1.64163 4.27122 2.36229 1.56879 
0.250861 3.07863 1.95419 3.26556 3.44445 1.86883 0.648938 4.08779 1.99486 
2.50333 3.94228 1.44796 3.86501 4.12156 1.38415 0.993016 4.87967 1.45963 
2.57985 4.97604 1.35051 1.02975 0.477233 2.61447 2.02126 0.145136 2.48216 
3.01637 0.0464201 2.51197 4.00629 0.289986 2.24671 3.31011 0.997446 2.39863 
0.0172392 1.74384 2.55172 2.55546 1.71501 2.44663 1.67118 2.24959 2.61783 
4.82092 1.93591 2.43431 2.31965 2.99455 2.45615 3.17844 2.47959 2.12737 
4.13487 2.7543 2.48024 1.36594 3.21802 2.13242 3.63207 4.18207 2.4371 
4.61171 3.97738 2.56067 1.77648 4.70822 2.06352 2.74841 4.62498 2.28365 
4.32694 4.78584 2.04523 1.87106 1.07959 2.80545 2.72072 0.686763 3.22454 
4.30515 0.970745 2.97208 1.09011 1.47248 3.29479 0.728281 2.34036 2.95232 
3.74282 1.85538 2.67571 0.333447 3.59633 2.87729 3.00947 3.55827 2.91081 
1.2176 4.07082 2.82663 2.30925 4.25513 3.18685 0.617488 4.78563 3.32273 
4.67167 4.92315 2.9762 0.493375 0.462702 3.79954 1.49 0.619338 3.63088 
3.60228 0.31899 3.56684 4.83645 0.429705 3.75606 2.44084 1.61013 3.48744 
3.41878 1.40973 3.6327 0.707282 2.34026 3.95548 1.7183 2.28489 3.64039 
4.42782 2.00453 3.41273 2.45464 3.0252 3.65826 3.54626 2.94009 3.48503 
0.459862 3.33094 3.87128 1.37477 3.18374 3.3489 4.41959 3.42414 3.40403 
1.23349 4.18321 3.83142 3.00294 3.9627 3.84589 3.95344 4.30949 3.37564 
2.98047 4.96313 3.82113 3.46042 0.5816 4.52147 0.503352 1.22586 4.45329 
2.32385 0.840517 4.13946 4.30891 1.21869 4.07281 1.45348 1.49057 4.22823 
2.29339 1.99596 4.42806 3.54548 2.36202 4.30202 2.2154 3.02272 4.63459 
4.78129 2.75911 4.05756 1.28039 3.3624 4.44474 2.106 4.04185 4.29925 
3.76705 3.75797 4.45868 4.74931 3.7495 4.64845 0.592201 4.88429 4.31801 
4.20098 4.82093 4.29546 1.2723 0.613002 4.67339 4.29813 0.317651 5.00985 
2.55598 0.815503 5.11371 4.82882 1.18637 5.05597 1.82511 1.50434 5.17568 
3.14298 1.51957 4.66105 0.525076 2.10485 5.14305 1.39541 2.3872 4.67955 
4.16459 1.97422 4.98956 4.14568 2.97945 5.10948 3.15469 3.14313 4.97029 
1.22362 4.29206 4.83725 2.93654 4.16564 4.84227 4.05072 4.46768 5.22199 
1.55945 0.52381 5.62798 3.33011 0.235828 5.4898 0.305665 1.16103 5.43685 
3.76308 1.12478 5.34026 2.66671 1.54638 5.78719 4.52241 1.73527 5.89264 
1.41055 2.3741 5.68098 2.38212 2.43469 5.42664 3.40405 2.34592 5.57758 
1.41171 3.34588 5.43613 4.97274 3.35987 5.54883 0.521834 3.93885 5.496 
1.91305 4.17251 5.8216 3.13075 3.78664 5.74705 4.11654 3.73818 5.90917 
1.07376 4.7241 5.7778 2.90028 4.9259 5.94454 0.488574 0.448274 6.1163 
2.17818 0.607707 6.41287 3.33056 0.646008 6.40395 4.30541 0.759419 6.11215 
0.705777 1.79573 6.09803 1.62173 1.39657 6.14997 3.55274 1.61226 6.24639 
1.70518 2.46869 6.63256 0.703846 2.98146 6.10556 2.58629 2.9839 6.25056 
4.15779 2.67023 6.23132 1.50775 3.44772 6.48664 0.273348 3.8221 6.45771 
0.0440895 4.78792 6.03388 4.57514 4.586 6.58454 0.4511 0.311764 7.27224 
2.25877 0.105543 7.27396 3.7621 0.0539233 7.19635 4.71614 0.146854 6.84989 
0.317618 1.18283 6.78743 1.28374 0.735331 6.89627 2.73196 1.21461 6.99252 
1.75773 1.59264 7.12114 4.34224 1.52586 6.85417 0.738485 2.46326 7.06124 
3.63116 2.0731 7.29562 3.05844 2.89029 7.23108 4.56967 2.57192 7.1404 
4.09156 3.48186 6.8762 0.846595 3.91925 7.27133 3.11589 3.7632 6.74666 
0.763217 4.75468 6.72809 2.33638 4.38849 6.70145 3.69232 4.51487 7.06874 
3.04714 0.16413 7.88677 3.10838 1.16185 7.92102 4.02566 0.932034 7.5958 
0.772811 1.30674 7.67654 4.5276 1.78147 7.80327 1.2385 2.17558 7.8797 
1.3719 3.10129 7.50747 2.17829 2.50826 7.5129 3.93189 3.09206 7.78317 
3.30953 3.87369 7.74026 4.39798 4.0832 7.63074 1.49615 4.47862 7.78725 
2.49515 4.45461 7.71908 0.275026 0.623613 8.21246 1.34441 0.56664 8.03381 
2.24024 0.375802 8.45169 4.24614 0.0149911 8.07108 4.42656 1.03634 8.50604 
0.301866 1.72799 8.49503 2.06635 1.25991 8.01227 2.80863 2.08461 8.16361 
3.78753 2.24348 8.29222 0.561669 2.99803 8.21025 2.1505 3.05771 8.38328 
4.73929 2.60597 8.47055 1.34062 3.65558 8.34241 3.14639 3.16023 8.44027 
0.412341 3.98986 8.17509 4.80516 3.95587 8.56988 0.0974783 4.93895 8.21397 
3.18618 4.64339 8.42262 4.15876 4.95002 8.07547 3.45752 0.552476 8.71194 
4.34029 0.251847 9.12021 0.892994 0.670063 8.99734 2.37224 1.26137 8.96434 
3.32895 1.53904 8.83903 1.65992 2.27473 8.80295 2.60877 2.23758 9.13148 
4.30864 1.86415 9.0568 0.741163 2.54748 9.09433 4.2301 3.01724 9.22658 
0.692315 3.54717 9.10131 2.54129 3.22262 9.29043 3.44931 3.64351 9.26215 
2.41152 4.19501 8.99618 1.06168 4.60628 8.6976 4.06305 4.50733 8.96727 
1.78636 0.441935 9.39148 0.430813 0.684889 9.9218 2.24166 1.18719 9.95314 
3.51625 0.678863 9.70271 4.81783 1.08907 9.52818 0.878281 1.51812 9.56516 
3.13127 1.62468 9.82161 1.67077 2.13057 9.86281 3.66717 2.47012 9.84797 
0.0347429 3.36729 9.85515 1.62431 3.63996 9.45941 4.84163 3.88718 9.76493 
0.514764 4.73456 9.52961 1.57238 4.6466 9.56877 3.31764 4.56559 9.63354 
2.42848 5.01615 0.00957561 3.77521 5.35881 0.342732 0.37132 5.65136 0.646115 
2.3478 5.90489 0.46089 2.92666 6.72031 0.463116 0.4722 7.45586 0.517588 
1.50501 7.04795 0.486987 4.4922 6.88011 0.220211 3.92029 8.10152 0.508493 
4.8493 7.74527 0.612656 0.94176 8.23719 0.0978601 2.64394 8.30967 0.322227 
0.247209 9.10362 0.0889004 2.55989 9.29321 0.482153 3.60771 9.01645 0.244092 
4.58813 9.19267 0.147013 1.34499 9.54926 0.0162289 3.30679 9.95785 0.46184 
1.5638 5.52803 0.955311 4.37416 5.05093 1.08211 3.17163 5.72467 1.05115 
4.61416 6.00345 0.89324 0.985221 6.34033 1.03192 2.36034 7.47497 0.794485 
3.18926 7.15042 1.32724 4.18438 7.03854 1.19734 0.848162 8.24643 1.13086 
1.75815 8.64311 0.940068 4.57343 8.59607 1.08671 0.838526 9.33573 0.861835 
3.7311 9.11874 1.2315 1.77548 9.66736 0.976875 0.109758 5.57963 1.60914 
3.46908 5.30371 1.97046 1.25781 5.8369 1.86153 4.04426 6.14389 1.74483 
0.196922 6.67007 1.61588 1.87109 6.58862 1.58516 3.02173 6.31226 1.84629 
0.97582 7.28199 1.36941 1.91561 7.59074 1.68832 4.33483 7.9796 1.83805 
1.71066 8.57839 1.95098 2.61167 8.6445 1.51969 3.45023 8.1147 1.39106 
0.800715 9.04749 1.8189 1.3047 9.91124 1.82498 2.69361 9.86477 1.38253 
0.634823 5.08893 2.36985 0.432936 6.06932 2.4199 2.36229 5.64255 2.27062 
1.08912 6.80201 2.23935 2.00032 6.82622 2.65068 4.92883 6.4766 2.07369 
2.76537 7.3083 2.2238 3.79538 7.04838 2.13487 4.82452 7.40467 2.49432 
0.938034 7.96477 2.11601 0.157251 8.47534 2.48159 3.16991 8.20706 2.39752 
2.30855 9.18727 2.4724 3.24973 9.16197 2.10769 4.23832 9.03767 2.19765 
0.329794 10.0037 2.02814 1.50316 5.45369 2.75221 3.11488 5.448 2.89981 
3.98727 6.02998 2.7472 2.90793 6.4308 2.83273 0.585149 7.4028 2.86652 
3.21539 7.39232 3.12091 4.23426 6.91711 3.13761 2.11713 7.77749 2.93999 
4.02725 7.92028 2.86185 1.18293 8.17039 3.11305 2.741 8.64 3.20151 
0.490066 8.89216 3.32767 1.78375 8.95041 3.29033 3.47112 9.32753 3.07315 
4.48569 8.8078 3.14185 0.291121 9.86296 3.02498 1.11737 9.40353 2.69811 
4.35119 9.84004 3.10861 1.55139 5.12139 3.69454 3.91726 5.33653 3.48625 
0.664903 5.76411 3.77787 1.91499 6.12989 3.3637 2.72781 5.92729 3.91048 
4.44272 6.14784 3.75333 1.05495 6.65164 3.51068 3.45717 6.5756 3.66626 
2.33318 7.13484 3.69143 0.0818484 7.59051 3.90702 3.95156 7.56126 3.85547 
3.64325 8.47801 3.60116 2.94629 9.3017 3.92581 4.00618 9.35435 3.91869 
1.1644 9.67352 3.66181 2.22735 9.84303 3.43768 2.14124 5.12042 4.50234 
1.51431 5.95775 4.26936 3.58933 5.91219 4.41833 0.296569 6.68704 4.28273 
2.87403 6.7741 4.454 3.84851 6.84875 4.66744 4.87429 7.12561 4.21605 
1.25329 7.56066 4.0224 3.01227 7.84608 4.06547 0.0710485 8.55549 4.1976 
2.04603 8.17038 4.02404 4.56173 8.34002 4.02284 1.07332 8.78424 4.13309 
2.0079 9.14483 4.2455 2.56353 9.96584 4.58643 1.24676 5.29424 4.97421 
3.07995 5.15545 4.84619 3.92455 5.48178 5.27067 0.479388 6.20963 5.14228 
2.17189 6.24564 4.96617 4.51297 6.10469 4.751 1.42089 6.85432 4.71017 
4.64474 6.94415 5.30842 0.389044 7.79676 4.84014 1.37571 7.80021 5.03589 
2.3572 7.57145 4.77098 3.33332 7.70022 5.14785 4.30818 7.73009 4.77685 
3.75241 8.56154 4.76666 4.8517 8.49849 5.11478 0.174702 9.09102 5.03895 
1.19792 8.84465 5.1236 2.64624 9.06608 5.01512 0.491683 9.98908 4.71389 
1.65766 9.73698 4.97135 3.61658 9.55094 4.81945 4.72295 9.43786 4.7964 
2.11259 5.39704 5.50035 4.71515 5.06146 5.716 0.60027 5.65726 6.01216 
1.38181 6.18845 5.5775 3.06264 6.0209 5.36126 4.57078 6.07779 5.84823 
3.76714 6.65142 5.68813 0.789141 7.10733 5.45565 1.82674 7.24941 5.79067 
2.83927 7.07993 5.88978 4.54916 7.91391 5.89294 0.424151 8.429 5.76203 
2.12915 8.23677 5.52849 3.03724 8.25384 5.94692 1.82581 9.13533 5.84581 
3.2186 9.28077 5.80897 4.09309 8.80402 5.69053 0.843548 9.6602 5.59041 
2.39337 9.94218 5.68117 2.05295 5.40355 6.5965 3.95313 5.36918 6.61418 
1.27582 6.17631 6.57912 3.10609 5.82737 6.34144 0.416238 6.64019 6.29805 
2.24323 6.27598 6.0842 4.56502 6.94441 6.45127 0.689031 7.61536 6.31212 
[...]
POINT_DATA 1000
FIELD FieldData 7
id 1 1000 int
63 533 31 535 7 53 531 922 656 
20 424 605 109 892 134 73 156 26 
58 24 25 809 41 909 45 501 874 
450 610 300 600 924 111 541 62 52 
626 32 69 504 130 939 526 759 841 
142 990 365 521 551 49 51 538 48 
17 36 418 568 404 288 927 255 175 
194 272 872 650 37 588 574 30 508 
43 767 762 358 752 261 657 545 562 
59 349 70 61 42 283 591 263 776 
744 269 674 769 766 419 749 75 570 
663 581 566 589 50 84 719 276 286 
408 56 281 207 197 354 74 377 583 
87 68 294 235 592 79 814 783 215 
78 840 707 598 608 846 578 584 105 
296 695 285 322 571 698 816 284 699 
833 357 851 202 104 114 97 278 110 
515 580 797 307 214 710 123 10 330 
230 576 554 512 268 72 546 594 12 
510 567 577 323 702 630 372 279 782 
715 277 506 602 128 532 529 28 125 
742 733 528 13 256 47 236 557 543 
44 120 11 274 121 27 590 658 337 
503 511 552 15 735 540 556 505 542 
559 604 393 599 21 148 596 107 139 
544 523 67 170 747 514 539 547 162 
116 603 641 86 117 612 601 129 115 
242 635 137 716 855 839 963 243 718 
520 548 18 362 5 33 597 616 147 
723 240 625 144 370 3 133 750 640 
150 534 378 624 717 631 108 138 646 
884 174 633 29 22 140 167 561 80 
380 375 899 160 639 232 141 8 731 
173 905 638 661 560 502 71 979 659 
651 154 648 149 629 636 402 682 662 
163 684 187 35 644 169 46 262 681 
788 415 177 623 384 647 171 426 157 
172 192 301 673 188 292 791 193 917 
190 652 39 920 155 185 180 275 199 
182 582 902 669 164 919 297 410 945 
161 186 198 637 660 446 565 795 189 
178 676 670 195 342 291 789 184 314 
321 664 159 153 470 948 675 456 666 
181 474 685 347 830 678 82 573 680 
807 211 933 317 916 800 935 701 335 
671 329 85 858 66 737 703 219 837 
940 938 91 709 196 971 203 689 686 
857 334 200 126 822 856 831 103 736 
691 206 315 224 870 954 363 208 585 
628 976 563 972 210 688 996 471 708 
969 863 212 223 100 586 634 729 99 
225 999 237 303 238 820 713 727 961 
246 479 722 507 745 81 229 632 152 
593 77 234 694 696 491 714 997 239 
231 861 724 555 486 981 9 721 879 
509 746 572 399 683 854 643 668 852 
88 136 490 522 873 1 252 847 364 
420 761 817 484 2 405 101 524 881 
843 575 92 289 860 439 316 368 862 
655 653 849 889 386 96 518 896 264 
311 891 519 469 60 768 251 356 620 
811 282 756 928 748 413 23 757 102 
777 758 692 449 815 423 431 290 259 
784 257 790 812 83 952 904 302 295 
763 929 345 774 765 970 310 253 304 
866 877 796 778 806 798 780 89 832 
775 258 834 802 755 468 801 764 324 
165 425 461 813 353 319 427 818 677 
94 536 228 306 712 478 476 452 836 
65 665 333 779 55 113 819 808 553 
351 340 325 743 318 489 829 428 312 
331 838 320 305 352 308 355 220 106 
359 1000 810 738 985 343 442 967 835 
667 209 499 706 338 191 848 326 549 
361 564 4 247 595 371 346 6 332 
473 957 868 201 704 488 205 241 587 
217 826 95 558 859 64 57 38 483 
221 496 222 867 725 244 513 989 216 
900 118 287 373 825 168 487 227 732 
880 245 482 726 119 271 122 226 54 
642 270 213 579 911 993 379 391 132 
895 112 530 280 982 248 607 980 606 
124 127 672 19 869 135 76 794 845 
493 494 480 611 844 730 975 146 918 
367 392 267 617 613 249 740 166 890 
517 973 498 853 475 621 995 614 786 
366 842 260 145 609 983 865 492 265 
885 401 376 495 912 654 396 986 385 
14 615 395 728 293 360 437 771 485 
770 273 773 400 394 34 569 16 369 
383 753 886 754 254 143 432 897 500 
871 987 878 250 903 645 151 781 387 
984 907 793 894 882 389 898 772 381 
390 397 887 40 382 921 901 785 649 
914 403 313 398 883 414 751 888 906 
876 893 457 298 438 417 436 443 942 
430 406 923 925 422 411 388 412 908 
926 429 433 951 679 309 453 409 915 
435 407 434 416 787 910 950 937 934 
792 913 448 992 447 459 440 799 421 
946 944 460 941 183 943 803 821 176 
462 179 739 978 348 467 947 965 458 
454 444 455 697 931 204 693 463 441 
827 949 700 537 550 336 451 497 824 
964 930 98 958 959 687 481 690 218 
527 711 974 850 805 960 472 936 932 
864 804 339 994 464 734 988 998 741 
705 622 158 266 90 627 618 955 525 
823 465 445 327 344 374 953 875 966 
720 131 299 516 760 93 619 956 466 
350 962 341 477 828 233 968 328 991 
977 
type 1 1000 int
1 2 1 2 1 1 2 2 2 
1 1 2 1 2 1 1 1 1 
1 1 1 2 1 2 1 2 2 
1 2 1 2 2 1 2 1 1 
2 1 1 2 1 2 2 2 2 
1 2 1 2 2 1 1 2 1 
1 1 1 2 1 1 2 1 1 
1 1 2 2 1 2 2 1 2 
1 2 2 1 2 1 2 2 2 
1 1 1 1 1 1 2 1 2 
2 1 2 2 2 1 2 1 2 
2 2 2 2 1 1 2 1 1 
1 1 1 1 1 1 1 1 2 
1 1 1 1 2 1 2 2 1 
1 2 2 2 2 2 2 2 1 
1 2 1 1 2 2 2 1 2 
2 1 2 1 1 1 1 1 1 
2 2 2 1 1 2 1 1 1 
1 2 2 2 1 1 2 2 1 
2 2 2 1 2 2 1 1 2 
2 1 2 2 1 2 2 1 1 
2 2 2 1 1 1 1 2 2 
1 1 1 1 1 1 2 2 1 
2 2 2 1 2 2 2 2 2 
2 2 1 2 1 1 2 1 1 
2 2 1 1 2 2 2 2 1 
1 2 2 1 1 2 2 1 1 
1 2 1 2 2 2 2 1 2 
2 2 1 1 1 1 2 2 1 
2 1 2 1 1 1 1 2 2 
1 2 1 2 2 2 1 1 2 
2 1 2 1 1 1 1 2 1 
1 1 2 1 2 1 1 1 2 
1 2 2 2 2 2 1 2 2 
2 1 2 1 2 2 1 2 2 
1 2 1 1 2 1 1 1 2 
2 1 1 2 1 2 1 1 1 
1 1 1 2 1 1 2 1 2 
1 2 1 2 1 1 1 1 1 
1 2 2 2 1 2 1 1 2 
1 1 1 2 2 1 2 2 1 
1 2 2 1 1 1 2 1 1 
1 2 1 1 1 2 2 1 2 
1 1 2 1 2 2 1 2 2 
2 1 2 1 2 2 2 2 1 
2 1 1 2 1 2 2 1 2 
2 2 1 2 1 2 1 2 2 
2 1 1 1 2 2 2 1 2 
2 1 1 1 2 2 1 1 2 
2 2 2 2 1 2 2 1 2 
2 2 1 1 1 2 2 2 1 
1 2 1 1 1 2 2 2 2 
1 1 2 2 2 1 1 2 1 
2 1 1 2 2 1 2 2 1 
1 2 2 2 1 2 1 2 2 
2 2 2 1 2 2 2 2 2 
1 1 1 2 2 1 1 2 1 
1 2 2 1 1 1 1 2 2 
2 2 1 1 2 1 1 1 2 
2 2 2 2 1 1 2 2 1 
1 2 2 1 1 2 1 1 2 
2 1 2 2 2 1 1 2 1 
2 2 2 1 2 1 1 1 1 
2 1 2 2 1 2 2 1 1 
2 2 1 2 2 2 1 1 1 
2 2 2 2 2 2 2 1 2 
2 1 2 2 2 1 2 2 1 
1 1 1 2 1 1 1 2 2 
1 2 1 1 2 1 1 1 2 
1 2 1 2 1 1 2 2 2 
1 1 1 2 1 1 2 1 1 
1 2 1 1 1 1 1 1 1 
1 2 2 2 2 1 1 2 2 
2 1 1 2 1 1 2 1 2 
1 2 1 1 2 1 1 1 1 
1 2 2 1 2 1 1 1 2 
1 2 1 2 2 1 1 1 1 
1 1 1 2 2 1 2 2 1 
2 1 1 1 2 1 1 1 2 
2 1 1 2 1 1 1 1 1 
2 1 1 2 2 2 1 1 1 
2 1 2 1 2 1 2 2 2 
1 1 2 1 2 1 1 2 2 
1 1 1 2 2 2 2 1 2 
1 1 1 2 2 1 2 1 2 
2 2 1 2 1 2 2 2 2 
1 2 1 1 2 2 2 1 1 
2 1 1 1 2 2 1 2 1 
1 2 1 2 1 1 1 2 1 
2 1 2 1 1 1 2 1 1 
1 2 2 2 1 1 1 2 1 
2 2 2 1 2 2 1 2 1 
2 2 2 2 2 1 2 2 1 
1 1 2 1 1 2 2 2 2 
2 1 1 1 2 1 2 2 2 
2 2 1 1 1 1 1 1 2 
1 1 2 2 1 1 1 1 2 
2 1 1 2 2 1 1 1 2 
1 1 1 1 2 2 2 2 2 
2 2 1 2 1 1 1 2 1 
2 2 1 2 1 2 2 2 1 
1 1 2 2 1 1 2 2 1 
1 1 1 2 2 1 2 1 1 
2 2 2 2 2 1 1 1 2 
2 2 1 2 2 2 1 2 1 
2 2 2 2 2 2 1 2 2 
2 2 1 2 1 2 2 2 2 
2 2 1 1 1 2 2 2 2 
2 1 1 1 1 1 2 2 2 
2 1 1 2 2 1 2 2 1 
1 2 1 1 2 1 2 1 2 
2 
i 3 1000 int
0 0 0 0 0 0 0 0 0 
0 0 0 0 0 0 0 0 0 
0 0 0 1 0 0 0 0 0 
0 0 0 1 0 0 0 0 1 
0 0 1 1 0 0 0 0 0 
0 0 1 0 0 0 0 0 0 
0 0 0 0 0 0 0 0 0 
0 0 0 0 0 0 1 0 0 
0 0 0 0 0 0 1 0 0 
1 0 0 0 0 1 1 0 0 
0 0 1 1 0 0 0 0 1 
0 0 0 0 0 0 0 0 0 
0 0 0 0 0 0 0 0 0 
0 0 0 0 0 0 1 0 0 
0 0 0 1 0 0 1 0 1 
0 0 0 1 0 1 1 0 1 
0 0 0 0 0 0 0 0 0 
0 0 0 0 0 0 0 0 0 
0 0 0 0 0 0 1 0 0 
0 0 0 1 0 0 1 0 0 
1 0 0 1 0 0 0 0 0 
0 0 0 1 0 0 1 0 0 
0 0 0 0 0 0 0 0 0 
0 0 0 0 0 0 0 0 0 
0 0 0 1 0 0 1 0 0 
1 0 1 1 0 0 1 0 0 
0 0 0 0 0 0 0 0 0 
0 0 0 0 0 0 0 0 0 
0 0 0 0 0 0 1 0 0 
0 0 0 1 0 0 1 0 0 
1 0 0 1 0 0 0 0 0 
1 0 0 1 0 0 1 0 0 
1 0 0 0 0 0 0 0 0 
0 1 0 0 0 0 0 0 0 
0 0 0 0 0 0 0 0 0 
0 0 0 1 0 0 1 0 0 
1 0 0 0 0 0 1 0 0 
0 0 0 0 1 0 0 0 0 
0 0 0 0 0 0 0 0 0 
0 0 0 0 0 0 1 0 0 
0 0 0 0 0 0 0 0 0 
1 0 0 1 0 0 0 0 0 
0 0 0 0 0 0 0 1 0 
0 0 0 0 0 0 0 0 0 
0 0 0 0 0 0 0 0 0 
1 0 0 0 0 0 1 0 0 
1 0 0 0 0 0 0 0 0 
1 0 0 1 0 0 0 1 0 
0 0 0 0 0 0 0 0 0 
0 1 0 0 0 0 0 0 0 
0 0 0 1 0 0 0 0 0 
0 0 -1 0 0 0 1 0 0 
1 0 0 0 0 0 0 1 0 
0 0 0 0 0 -1 0 0 0 
0 1 0 0 0 0 0 0 -1 
0 0 -1 0 0 -1 0 0 0 
0 0 -1 0 0 0 0 0 -1 
0 0 -1 0 0 0 0 0 0 
1 0 0 0 0 0 0 0 -1 
0 0 0 0 0 -1 0 0 -1 
0 1 0 0 0 -1 0 0 -1 
0 0 0 0 0 0 0 0 -1 
0 0 -1 0 0 -1 0 0 0 
0 0 0 0 1 0 0 0 -1 
0 0 -1 0 0 -1 0 0 -1 
0 1 0 0 0 -1 0 0 -1 
0 0 -1 0 0 0 0 0 -1 
0 0 -1 0 0 0 0 0 -1 
0 0 0 0 0 -1 1 0 0 
0 0 -1 0 0 -1 0 0 -1 
0 0 -1 0 1 0 0 0 -1 
0 0 -1 0 0 -1 0 0 -1 
0 0 -1 0 0 0 1 0 -1 
0 0 0 0 0 -1 0 0 -1 
0 0 0 0 0 0 0 0 -1 
0 0 -1 0 0 -1 0 0 -1 
0 1 -1 0 0 -1 0 0 -1 
0 0 -1 0 0 -1 0 0 -1 
0 0 0 0 0 0 0 0 -1 
0 0 0 0 0 0 0 0 -1 
0 0 1 0 0 0 0 0 1 
0 0 1 0 0 0 0 0 0 
0 0 1 0 -1 1 0 -1 1 
0 0 1 0 0 1 0 0 1 
0 -1 0 0 -1 0 0 -1 0 
0 -1 1 0 -1 0 0 -1 0 
0 0 1 0 0 0 0 0 0 
0 0 1 0 0 1 0 0 0 
0 0 0 0 -1 1 0 -1 0 
0 0 0 0 -1 0 0 0 0 
0 0 0 0 -1 0 1 0 1 
0 0 0 0 0 1 0 0 0 
0 0 1 0 0 0 0 0 0 
1 0 0 0 0 0 0 0 0 
0 -1 0 0 -1 0 0 0 0 
0 0 0 0 -1 0 0 -1 0 
1 0 1 1 0 1 1 0 0 
0 0 0 0 0 0 0 0 1 
0 0 0 0 -1 0 0 0 1 
0 0 0 1 0 0 0 0 0 
0 0 0 0 -1 0 0 -1 0 
0 -1 0 1 0 1 0 0 0 
0 0 0 0 0 0 0 0 0 
0 0 0 0 0 0 0 0 0 
0 0 0 0 0 0 0 0 0 
0 0 0 0 0 0 0 0 0 
0 -1 0 0 0 0 0 0 0 
0 -1 0 1 0 0 0 0 0 
1 0 0 1 0 0 0 0 0 
0 0 0 1 0 0 0 0 0 
0 0 0 1 0 0 0 0 0 
0 0 0 0 0 0 0 -1 0 
0 0 0 0 0 0 1 0 0 
1 0 0 0 0 0 1 0 0 
0 0 0 0 0 0 0 -1 0 
1 0 0 0 0 0 0 0 0 
0 0 0 0 -1 0 0 0 0 
0 0 0 0 -1 0 1 0 0 
0 0 0 0 0 0 1 0 0 
1 0 0 0 0 0 1 0 0 
0 0 0 0 0 0 0 0 0 
0 0 0 0 0 0 0 0 0 
0 -1 0 0 -1 0 0 0 0 
0 0 0 0 0 0 0 0 0 
0 0 0 0 -1 0 0 -1 0 
1 0 0 0 0 0 1 0 0 
1 0 0 0 0 0 0 0 0 
0 0 0 1 0 0 1 0 0 
0 0 0 0 0 0 0 0 0 
0 0 0 0 0 0 0 0 0 
0 -1 0 0 -1 0 0 0 0 
0 -1 0 0 0 0 0 0 0 
1 0 0 0 0 0 1 0 0 
1 0 0 0 0 0 1 0 0 
0 0 0 0 0 0 0 -1 0 
0 0 0 0 -1 0 0 -1 0 
0 -1 0 0 0 0 0 0 0 
0 0 0 0 0 0 1 0 0 
0 0 0 0 0 0 0 0 0 
0 0 0 0 0 0 0 0 0 
0 0 0 0 0 0 0 0 0 
0 -1 0 0 -1 0 0 0 0 
0 -1 0 0 -1 0 0 -1 0 
1 0 0 0 0 0 0 0 0 
0 0 0 0 0 0 1 0 0 
0 0 0 0 -1 0 0 0 0 
0 -1 0 0 0 0 0 0 0 
0 0 -1 0 0 0 0 0 0 
0 0 0 0 0 0 0 0 0 
0 0 0 0 0 0 0 0 0 
0 0 0 0 -1 0 0 0 0 
0 0 0 0 0 0 0 0 0 
0 0 -1 0 0 0 0 0 0 
0 0 0 0 0 0 0 0 0 
1 0 0 0 0 0 0 -1 0 
0 0 0 0 0 0 0 0 0 
0 0 0 0 0 0 0 0 0 
0 -1 -1 0 -1 -1 0 0 0 
0 0 0 0 0 -1 0 0 -1 
0 0 0 0 0 0 0 0 0 
0 0 0 0 0 0 0 0 0 
0 0 0 0 0 0 0 0 0 
0 0 0 0 -1 0 0 0 0 
0 -1 -1 0 1 1 0 1 1 
-1 0 0 -1 1 1 0 1 0 
-1 0 0 0 0 0 0 0 0 
0 1 0 0 0 0 0 0 1 
0 0 0 0 0 0 0 0 1 
-1 0 1 -1 1 0 0 1 1 
-1 0 0 0 1 0 -1 0 0 
0 0 0 0 0 1 0 0 1 
0 0 0 0 0 0 0 0 0 
0 1 1 -1 0 0 0 1 0 
0 0 0 0 0 0 0 1 0 
0 0 1 0 0 0 0 0 0 
0 0 0 0 0 1 0 0 0 
0 0 0 0 0 1 0 0 1 
0 0 0 0 0 0 0 0 1 
0 1 0 0 1 0 0 0 0 
-1 0 0 0 1 0 0 0 0 
0 0 0 0 1 0 -1 0 0 
0 0 0 0 0 0 0 0 0 
0 0 0 0 0 1 0 0 0 
0 0 0 0 0 0 0 0 0 
0 1 0 0 0 0 0 1 0 
-1 0 0 0 0 0 0 0 0 
0 0 0 0 0 0 0 0 0 
0 0 0 0 0 0 0 0 0 
0 0 0 0 0 0 0 0 0 
0 0 0 0 0 0 0 0 0 
0 0 0 0 0 0 0 0 0 
0 1 0 0 0 0 0 0 0 
0 0 0 0 0 0 0 0 0 
0 0 0 0 0 0 0 0 0 
0 0 0 0 0 0 0 0 0 
0 0 1 0 0 0 0 0 0 
0 0 0 0 0 0 0 0 0 
0 0 0 0 0 0 0 0 0 
0 0 0 0 0 0 0 0 0 
0 0 0 0 0 0 0 0 0 
0 0 0 0 0 0 0 0 0 
0 0 0 0 0 0 0 0 0 
0 0 0 0 0 0 0 0 0 
0 1 0 0 0 0 -1 1 0 
0 0 0 -1 0 0 0 0 0 
0 0 0 0 0 0 0 0 0 
0 0 0 0 0 0 0 0 0 
-1 0 0 -1 1 0 0 0 0 
0 0 0 -1 0 0 0 0 0 
0 0 0 0 0 0 -1 0 0 
0 0 0 0 0 0 0 0 0 
0 0 0 0 0 0 0 0 0 
0 0 0 0 0 0 0 0 0 
0 0 0 0 0 0 0 0 0 
0 0 0 0 0 0 0 0 0 
0 0 0 -1 1 0 0 0 0 
0 0 0 0 0 0 0 0 0 
0 0 0 0 0 0 0 0 0 
0 0 0 0 0 0 0 0 0 
-1 1 0 -1 1 0 0 1 0 
-1 1 0 0 0 0 -1 1 0 
0 0 0 0 0 0 -1 0 0 
0 0 0 -1 0 0 0 0 -1 
0 0 0 0 0 0 0 0 0 
0 0 0 0 0 -1 0 0 0 
0 1 0 0 1 0 0 0 0 
-1 1 0 -1 1 0 0 1 0 
-1 1 0 -1 1 0 -1 0 0 
-1 1 0 0 0 0 -1 0 0 
0 0 -1 0 0 0 -1 0 0 
-1 0 0 0 0 -1 0 0 0 
-1 1 0 0 1 0 -1 1 0 
0 0 0 -1 1 0 -1 1 0 
0 0 -1 0 1 0 -1 1 0 
0 0 -1 -1 0 0 0 0 -1 
0 0 0 0 0 0 0 0 -1 
0 1 0 -1 1 0 -1 1 0 
0 1 -1 -1 1 0 0 1 0 
-1 1 0 -1 0 0 0 0 -1 
-1 0 0 -1 1 0 0 0 -1 
0 0 -1 0 0 -1 -1 1 0 
-1 0 0 0 0 -1 0 1 0 
0 1 0 0 1 -1 -1 1 -1 
0 1 -1 -1 0 0 -1 0 -1 
0 0 -1 0 1 0 -1 1 0 
-1 0 0 0 1 0 -1 0 0 
-1 0 0 -1 0 0 0 0 -1 
0 0 -1 0 0 0 0 0 0 
-1 0 1 0 0 0 0 0 1 
0 0 1 0 0 1 0 0 1 
-1 0 0 0 0 1 -1 0 1 
0 0 1 -1 0 0 0 0 0 
0 0 1 0 0 0 0 0 0 
0 0 0 0 0 0 0 0 0 
0 0 1 0 0 0 0 0 0 
0 0 0 0 0 1 0 0 1 
0 0 1 0 0 1 -1 0 0 
0 0 1 0 0 0 0 0 0 
0 0 1 0 0 1 0 0 0 
0 0 0 0 0 1 0 0 1 
0 0 1 0 0 1 0 0 0 
0 0 0 0 0 0 0 0 1 
0 0 1 0 0 0 0 0 0 
0 0 0 0 0 1 0 0 0 
-1 -1 0 0 0 0 0 0 0 
0 0 1 0 0 0 0 0 1 
0 0 0 0 0 0 0 0 1 
0 0 0 0 0 0 0 -1 0 
0 0 0 0 0 0 -1 -1 0 
0 -1 0 -1 -1 0 0 0 1 
0 0 0 0 0 0 0 0 0 
0 0 0 0 0 0 0 0 0 
0 0 0 0 0 0 0 0 1 
0 0 0 0 0 1 0 0 0 
0 -1 0 0 0 0 0 0 0 
0 0 0 0 0 0 0 0 0 
0 0 1 0 0 0 0 0 0 
0 0 0 0 0 0 0 0 0 
0 0 0 0 0 0 0 0 0 
0 0 0 0 0 0 0 0 0 
0 -1 0 0 0 0 0 0 0 
0 0 0 0 -1 0 -1 0 0 
0 0 0 0 0 0 0 0 0 
0 0 0 0 0 0 0 0 0 
0 -1 0 0 0 0 0 0 0 
0 0 0 0 0 0 0 0 0 
0 -1 0 0 0 0 0 0 0 
0 0 0 0 0 0 0 0 0 
0 0 0 0 0 0 0 0 0 
0 0 0 0 0 0 0 0 0 
0 0 0 0 0 0 0 0 0 
0 0 0 0 0 0 0 0 0 
0 0 0 -1 0 0 0 0 0 
0 0 0 0 0 0 0 0 0 
0 0 0 0 0 0 0 0 0 
0 0 0 0 -1 0 0 0 0 
0 0 0 0 0 0 0 0 0 
0 -1 0 0 0 0 0 0 0 
0 0 0 0 0 0 0 0 0 
0 0 0 0 0 0 0 0 0 
0 0 0 0 0 0 0 0 0 
0 0 0 -1 0 0 0 0 0 
0 -1 0 0 -1 0 -1 0 0 
0 0 0 -1 0 0 0 0 0 
0 0 0 0 0 0 0 0 0 
0 0 0 0 0 0 0 0 0 
0 0 0 0 0 0 0 0 0 
-1 0 0 0 0 0 -1 0 0 
-1 0 0 0 0 0 0 0 0 
0 -1 0 0 0 0 -1 0 0 
0 0 -1 0 0 -1 0 0 0 
0 0 0 0 0 0 0 0 0 
0 0 0 0 0 0 -1 0 0 
0 0 0 0 0 0 -1 0 0 
0 0 0 -1 0 0 -1 0 0 
0 0 -1 0 0 0 0 0 0 
0 0 0 0 0 0 0 0 0 
0 0 0 0 0 0 0 0 0 
0 0 0 0 0 0 0 0 0 
0 0 0 0 0 0 -1 0 0 
0 0 0 0 0 0 -1 0 0 
-1 0 0 0 0 -1 0 0 -1 
0 0 -1 -1 0 0 0 0 -1 
0 0 -1 0 0 0 0 0 -1 
0 0 0 0 0 0 0 0 0 
0 0 0 0 0 0 0 0 0 
0 0 0 0 0 -1 0 0 0 
-1 0 0 0 0 -1 0 0 -1 
0 0 -1 0 0 -1 -1 0 0 
0 0 -1 0 0 0 0 0 0 
0 0 0 0 0 0 0 0 0 
0 0 0 0 0 0 -1 0 0 
0 0 0 0 0 0 0 0 0 
0 0 0 
v 3 1000 double
-0.066365966942 -0.041785567765 -0.049644108033 -0.066239021631 -0.071883657892 -0.084396347012 -0.058705009377 0.0063575435809 -0.072879254868 
-0.025073752999 -0.059938175257 -0.082229461503 -0.04989084741 0.045082269174 0.032025872244 -0.081899233172 -0.045280383673 -0.11302337236 
-0.0018207997941 0.035101716598 0.057786578888 -0.017989885892 -0.02446008674 -0.068112675506 0.041599499232 -0.0069230162814 -0.12963700475 
0.04438625308 -0.016032829226 0.0052843838768 -0.018521362132 -0.09989663207 -0.18470422792 0.01837246136 0.039011441438 0.039973728644 
0.016529243338 -0.0057933544154 0.044912519711 0.074571421801 -0.034170715865 -0.085977115754 0.084537969991 -0.071662283028 -0.139796958 
0.012772097434 0.023250491313 0.1044017044 0.10524572654 -0.09573581753 -0.13192164487 -0.057921109097 -0.0096136418997 -0.021879516627 
-0.037531684136 -0.043971250171 -0.071167278949 -0.029200491834 -0.015436144542 -0.089076527753 -0.097576177691 -0.048095675231 -0.13901532616 
-0.010827435365 -0.14433753659 -0.11027915288 -0.041420945511 0.021383970891 0.029820233959 -0.030246533007 0.0045049600282 -0.11641329233 
-0.027605589653 -0.15272084861 -0.10062036657 0.0085677392878 -0.0048211984989 -0.037539752823 0.012681095977 -0.052870912564 -0.09817250206 
0.020829753386 -0.034132544466 -0.1385985843 0.030623911734 0.075059831974 0.08737811985 0.096444570183 -0.025244859143 -0.12313775374 
0.080479879839 -0.00035265288013 0.048521963444 0.12867775201 -0.13226836933 -0.16249238819 0.050973076453 0.076588689548 0.090925022817 
-0.00094365447749 0.024980951928 -0.061190114437 -0.02051569501 -0.035891944361 -0.094999057674 -0.033709700342 -0.085805766557 -0.062336427744 
0.03766020899 0.016077776812 -0.12657373718 0.03122850695 -0.069888528357 -0.13640601085 -0.041985773705 -0.10209472359 -0.10389773134 
0.052049964476 -0.030120781713 -0.022680391261 0.080452781446 -0.05473364997 -0.074686436431 0.0035682100262 -0.099559534112 -0.14696186511 
0.090321770479 -0.018490351201 0.030645638935 0.11428027254 -0.095407761639 -0.074328774178 0.062454290261 0.0058568778657 0.039166350784 
0.087208421762 -0.10177341451 -0.037926952727 0.12771182913 -0.10838705655 -0.093553467003 0.080072669202 -0.021075895714 0.081137278938 
0.073008216898 -0.089733219188 -0.0094292681077 0.0072934950586 -0.019655976726 -0.080106593471 -0.02951390708 -0.038522780748 -0.053597441014 
-0.030421164144 -0.080284160361 -0.065481568376 -0.038184985085 -0.14712695796 -0.12819302316 0.0063472774867 -0.10709375239 -0.11632129066 
0.0045930017091 0.020399222185 -0.021074736452 0.00020603414284 -0.070223218364 -0.14058504519 0.025334715502 -0.055846326125 -0.033929868213 
0.01317299292 -0.072695031557 -0.13565226591 0.10203048555 -0.11726815521 -0.031610722717 0.088839397762 -0.10702311013 -0.12836779028 
0.12208117257 -0.16506006411 -0.088829828889 0.064204881858 -0.032490760787 0.057009991016 0.075003354329 -0.071437285212 -0.075037670547 
0.08851264757 -0.1243658044 -0.051901700071 0.047374131949 -0.070859716967 0.075369456844 0.062178210531 -0.061990665939 0.011844806014 
0.12959023458 -0.10682601108 -0.045218990636 -0.029121040797 -0.018325773448 -0.10508982548 0.014812254922 -0.0044520118201 -0.10690362517 
0.047981679643 -0.15639238605 -0.11901234936 0.01737878862 0.0072749170443 -0.047305526901 0.021670410222 0.0073135999828 -0.03877985449 
0.051454425985 -0.13314285338 -0.095520021271 0.1237809368 0.08997844395 0.026899728916 0.083955873867 -0.071329196052 -0.058700473426 
0.1342375312 0.076271142637 0.0070769931011 0.042109509191 -0.022317108432 0.027387769644 0.083503744565 0.074225848457 0.069245186406 
0.049708800493 -0.050224744757 -0.019387993371 0.02924700086 0.034941276626 0.022200252774 0.00066108012909 -0.012184314969 -0.073275136603 
-0.017506217 -0.029615854168 -0.11922857621 -0.0036328083838 -0.075694972995 -0.051986543791 -0.0022731457787 -0.0094994269934 -0.10680440249 
0.015389189663 -0.0064596907572 -0.14465260872 0.061510980355 -0.014179094215 -0.039234132184 0.031478341747 0.015357541481 -0.043325517956 
-0.0088453051068 -0.082368414374 -0.12461784101 0.10910248405 -0.034616146895 -0.048799878875 0.09909068705 -0.10414217251 -0.10773458385 
0.044756014308 0.013539474432 0.038042268828 0.043654639006 0.031166041091 0.014271906381 0.071139250081 -0.045272962819 -0.12250411421 
0.036230693109 -0.0064346598747 0.034940332654 0.073035207281 -0.091987375203 -0.02685557203 0.064003174336 -0.041529536268 -0.075168899376 
0.11798834622 -0.092842971531 0.01834647116 -0.04493337274 -0.078593282349 -0.1070530721 0.0036686670926 -0.0038583884892 0.0068536613282 
0.020514561328 -0.040239794307 -0.11597902276 -0.013488358472 -0.068336102124 -0.082907845665 -0.039042253072 -0.020109200325 -0.10101680366 
-0.026960256415 -0.03599349937 -0.10627693659 -0.018890400168 -0.08588295014 -0.089589468469 0.065205947997 -0.01630355435 -0.065366192349 
0.051529341684 -0.063604150425 -0.12909038209 0.04076237764 -0.0016663960715 0.031592337507 0.057442769626 -0.026474658603 -0.017956881279 
0.090873680428 -0.084903779947 -0.035164802702 0.10175363098 -0.076786778964 -0.065036236879 0.076101255261 0.0016025191431 0.078486710357 
0.080176343891 -0.098757071578 -0.040691871632 0.0073065469338 -0.022427801287 -0.087706401235 -0.075871160533 -0.056809619818 -0.034264228826 
-0.048830658992 -0.055658298107 -0.096641886803 -0.015009772428 -0.065441390248 -0.12917863678 -0.030612271236 -0.022151862615 -0.071016941294 
-0.046684686559 -0.081913299132 -0.10839372193 0.044289004542 0.025577369249 -0.0051332498401 0.073620562249 -0.030905976626 -0.049886341832 
0.054009237362 -0.089238620545 -0.14736722248 0.097707929152 -0.089046671786 -0.11940803666 0.076156762779 -0.073839577724 -0.043758283138 
0.12024903563 0.012802882641 0.046247696083 0.080262925469 -0.088220705221 -0.034839434123 0.0093009979446 -0.070012039919 -0.041942571177 
-0.10352375942 -0.02633294939 -0.053807434576 -0.011277831521 -0.051750845867 -0.088379361541 -0.041441963689 0.029383291073 0.0074704022267 
-0.0061275063279 -0.061959930448 -0.12966771488 -0.073010350106 -0.067846556267 -0.079078414521 -0.0039989478594 -0.075925973535 -0.11888969304 
-0.030189580937 -0.048219823979 -0.045938227725 -0.039121733192 -0.051090585648 -0.065198198 0.013914105546 -0.067567302696 -0.16676764354 
0.042142645353 -0.021418578383 0.032515091785 0.067508289588 -0.044228343366 -0.079555794915 0.081111745668 0.032221608824 0.03466390983 
0.052343529613 -0.012040591543 -0.032411141171 0.018349205566 -0.10117827226 -0.025346786891 0.027825397314 -0.11595685888 -0.084398191016 
0.066018591501 0.035186615846 0.056863891086 0.11187070362 -0.0034893400565 0.020104709898 -0.069685602126 0.02848703151 0.017770726133 
-0.089374096756 -0.019968376116 -0.058207296062 -0.089482980524 -0.044872187105 -0.086041494239 -0.071109686232 -0.062892082325 -0.079480142914 
-0.041882807102 0.011918439112 0.027699555933 -0.035740334514 0.015388939878 -0.074968966691 -0.042908418663 -0.053118892442 -0.13801097506 
-0.064539455954 0.040363247589 -0.040474022738 0.0038107396322 -0.0063048094946 0.049966913013 0.011562964376 -0.027568565354 -0.092609957994 