# vtk DataFile Version 4.2
Generated by LIGGGHTS
ASCII
DATASET POLYDATA
POINTS 1000 float
1.24357 0.44601 0.281312 3.28383 0.39923 0.639303 0.0905372 0.71764 0.0715498 
2.21007 0.691539 0.456901 1.80336 1.59297 0.61253 2.63366 1.5138 0.0521969 
4.65382 1.60271 0.62777 0.975366 2.14921 0.522247 2.37588 2.48285 0.0960345 
3.69257 2.03399 0.590541 0.198266 2.73947 0.261328 1.35115 3.0995 0.217324 
3.16313 3.02215 0.374776 4.57642 3.06249 0.223425 0.364727 3.71776 0.0721809 
1.49159 4.09093 0.351917 2.58913 4.49303 0.531113 3.57601 4.66236 0.55952 
0.243108 0.213554 1.04479 2.1281 0.134818 1.28425 0.668283 1.09325 0.793083 
2.72911 1.34539 1.04485 0.149625 1.94369 1.09458 2.69891 2.34475 1.03552 
0.66155 2.8999 1.1322 1.69509 2.61044 1.03833 3.88986 2.90046 1.06473 
4.88488 2.95258 1.17603 1.39721 3.59394 1.21689 2.41492 3.30073 0.97875 
0.34945 3.87864 1.06335 4.50458 4.64063 0.943281 3.72663 0.00696054 1.70054 
0.444911 0.664532 1.93597 1.47271 0.798818 1.64235 2.62625 0.824286 1.90526 
4.35848 0.801884 1.49113 1.03232 1.69295 1.50511 2.02502 1.8158 1.60741 
3.63557 1.50259 1.45011 3.36877 2.41886 1.76943 4.42968 2.10988 1.46315 
2.92962 3.34953 1.83456 1.1516 4.28939 1.9103 4.15854 3.78526 1.4745 
4.97206 4.31433 1.76781 1.91557 4.72779 1.34061 3.23762 4.50893 1.48704 
1.20457 0.344363 2.52489 2.22052 0.0572702 2.41974 4.51812 0.26534 2.33175 
3.57872 0.854632 2.20908 0.759647 1.43254 2.58545 1.79834 1.28222 2.45313 
2.95364 1.67571 2.36193 3.92725 1.78251 2.57094 0.396586 2.33115 2.02079 
1.34933 2.18541 2.31606 4.85531 2.13726 2.45992 1.62986 3.10575 2.05981 
2.44769 2.52863 2.16686 4.40178 2.93214 2.05309 0.614152 3.31737 2.03587 
3.93103 3.59872 2.631 2.11188 4.00088 2.01138 3.43528 4.44944 2.46512 
2.60659 0.900878 2.90993 4.01951 0.923545 3.1034 4.97211 1.09888 2.69052 
2.13883 2.01356 3.03977 0.621818 2.57413 2.99368 1.62843 2.86829 3.11397 
3.26729 2.5447 2.75655 4.86588 3.02053 3.01225 2.76025 3.7519 2.73476 
0.401118 3.91098 2.80516 1.39028 3.79183 2.7451 0.156376 4.73447 3.32011 
2.61148 4.77709 3.0905 4.55872 4.5243 2.65564 0.852967 0.0682883 3.52159 
2.18017 0.090322 3.44765 0.381399 0.977959 3.44992 1.5602 0.860706 3.33234 
3.16326 0.981751 3.74062 4.89751 0.70464 3.76645 2.24454 1.36071 3.86361 
3.83071 1.69853 3.9525 4.65539 1.84028 3.40621 1.26083 2.02786 3.5634 
2.97608 2.05634 3.58142 0.358317 2.52655 4.00167 2.68926 3.03218 3.43048 
3.80368 2.64515 3.59759 0.888235 3.38589 3.55334 3.8398 3.59207 3.92419 
1.96361 4.12895 3.4902 2.93894 3.96489 3.70104 4.75655 3.92351 3.44813 
1.15738 4.77958 3.32195 3.91931 4.51426 3.42613 4.89359 4.87211 3.7305 
1.49512 0.4311 4.23268 2.52042 0.242347 4.37554 0.531456 0.660173 4.38606 
4.01933 0.74991 4.23071 0.0196222 1.60575 4.23722 1.19081 1.41645 4.35896 
3.56225 2.36612 4.64911 2.23837 2.5126 4.15874 4.76198 3.05807 4.00436 
0.250126 3.47407 4.47258 1.44116 3.22361 4.37211 2.95299 3.18253 4.44346 
1.09767 4.28265 4.19627 2.15976 3.96091 4.45561 4.37378 4.30726 4.37487 
0.116897 4.49283 4.28939 3.07669 4.89517 4.05386 0.511388 0.343122 5.33522 
1.82696 0.0727505 5.10413 3.43255 0.344576 4.9516 1.51161 1.25003 5.32532 
2.38261 1.1097 4.85389 4.28723 0.726123 5.29606 3.54805 1.40435 4.92387 
4.50209 1.6513 4.76053 1.66809 2.13774 4.89099 2.68337 2.05037 5.01256 
0.779643 2.67024 4.89969 2.14776 3.07768 5.09908 4.28435 3.01733 4.88132 
1.37673 3.78354 5.29386 3.35578 4.08682 4.64949 0.74716 4.83603 5.0189 
2.40961 4.86392 4.80501 4.12503 4.99719 5.05654 1.33779 0.421673 5.89998 
2.63075 0.768524 5.75921 0.650226 1.6184 5.67918 3.7528 1.43328 5.92202 
1.83871 2.0201 5.86966 3.85655 2.42464 5.60664 4.84881 2.3741 5.47728 
0.811226 2.64476 6.00313 2.58388 2.69973 5.93474 0.258944 3.29786 5.4767 
3.23478 3.2518 5.40105 4.62767 3.30138 5.91323 0.625944 4.19007 5.81585 
2.51103 3.95285 5.71028 4.02063 3.88105 5.37057 1.58957 4.93081 5.54875 
3.55418 0.455337 6.00358 0.729526 0.922093 6.51318 1.95735 1.11129 6.41167 
4.48474 0.853127 6.42121 2.79755 1.7157 6.02376 3.49538 2.57804 6.52747 
4.7379 2.52426 6.53285 0.0788537 3.22472 6.46034 0.948226 3.70299 6.64985 
1.62624 3.22725 6.08563 3.21207 3.65299 6.33943 1.7004 4.22922 6.24953 
4.34285 4.16031 6.34313 0.0469485 4.9762 6.03554 0.961263 4.8868 6.48044 
2.48185 4.89712 6.04512 3.43138 4.58417 6.01503 1.35835 0.274856 6.94553 
2.55368 0.427396 6.88711 3.47708 0.036091 6.93973 3.27961 1.14351 6.7689 
2.34138 1.30218 7.31533 4.10516 1.79043 6.7801 0.799108 1.90228 6.70158 
2.076 2.21231 6.84593 3.0179 2.03139 7.21558 1.24984 2.77645 6.894 
2.43848 3.14508 6.82225 4.11455 3.30468 6.831 0.0656543 4.19772 6.71492 
2.58611 4.26941 6.86621 0.350817 5.01201 7.27899 1.57485 4.51826 7.19701 
3.58088 4.42527 6.99343 4.53838 4.53795 7.26876 0.324026 0.055888 7.93583 
1.7203 0.229479 7.87554 4.85404 0.14566 7.97306 0.606232 1.03651 7.49772 
1.51499 1.22391 7.87352 3.43967 0.665518 7.72573 4.40524 0.922997 7.46848 
0.178767 1.87041 7.89727 3.7499 1.61821 7.80148 1.11107 2.10879 7.63019 
4.6011 2.16115 7.67589 2.61385 2.91539 7.89996 3.65747 2.76464 7.70501 
4.85754 3.10808 7.48069 1.66846 3.54127 7.38997 3.12165 3.60693 7.38848 
0.712547 4.11548 7.53052 2.3781 3.99216 7.93288 4.02183 3.83489 7.75711 
2.39506 4.94432 7.58032 3.2476 4.49046 7.94222 2.29653 0.0200847 8.6695 
3.55152 0.0639466 8.51974 0.161333 1.00625 8.39157 2.5617 0.864176 8.1877 
4.26594 0.793723 8.47191 2.82803 1.86119 8.19339 1.87561 2.16483 8.26825 
4.34358 2.04952 8.63549 0.808634 3.07714 8.02616 4.20831 3.09228 8.48112 
0.01897 3.65781 8.40612 1.75068 3.15411 8.34747 3.18186 3.47584 8.55419 
1.10983 3.92634 8.43775 4.85583 3.86496 8.30726 0.347724 4.63823 8.31799 
2.10565 4.69729 8.58013 3.92128 4.95095 8.52547 4.84978 4.90507 8.15179 
0.0167871 0.211242 8.97179 1.31636 0.646814 8.68768 2.64798 1.00754 9.17553 
1.21518 1.6333 8.80362 3.54234 1.47258 8.77354 0.514031 2.33981 8.7168 
2.39155 1.98858 9.103 0.209984 3.08031 9.31602 1.92041 2.86652 9.29132 
4.89193 2.64106 9.26467 0.135717 4.24081 9.2392 2.31618 3.78031 8.97197 
4.12385 3.91007 9.18216 1.16885 4.77483 8.9543 3.24172 4.38007 9.03305 
1.87616 0.420978 9.48159 2.80849 0.222952 9.77972 3.81868 0.288642 9.55702 
4.72544 0.27179 9.98201 4.51211 1.12865 9.392 0.774101 1.43259 9.85573 
1.74434 1.42203 9.62142 3.59632 1.32388 9.86903 1.11985 2.31659 9.52244 
3.24474 2.26204 9.6238 4.29334 2.03772 9.79146 3.95582 2.95338 9.45051 
1.35347 3.70287 9.40959 2.29227 3.50509 9.99767 3.43597 3.85685 9.89979 
0.796269 4.64511 9.8895 1.92696 4.50311 9.54756 0.219256 5.42487 0.155692 
1.87752 5.20508 0.460559 2.90001 5.44073 0.582184 1.15119 6.11526 0.391189 
4.55448 6.01029 0.247839 3.03325 6.62139 0.49077 4.89732 6.85666 0.656716 
1.2531 7.03007 0.00498656 0.784368 7.82438 0.387815 2.05451 8.07271 0.506071 
3.40381 7.5313 0.323399 4.35783 7.63132 0.0637956 4.03671 8.55721 0.284945 
0.738897 9.26338 0.50564 2.59272 9.11915 0.460368 1.68972 9.53041 0.377613 
3.50505 9.45236 0.203105 0.933058 5.07643 0.874742 3.8871 5.56673 0.848682 
0.497024 5.96915 1.13234 2.0539 6.34314 0.797692 3.96599 6.57793 0.896144 
0.606871 6.91464 0.81215 1.60337 7.25639 0.916028 2.61807 7.48539 1.0896 
4.02503 7.6187 1.09957 1.42671 8.61125 1.08568 3.00895 8.4275 1.05332 
4.83885 8.17005 0.912623 0.264331 8.80593 1.25404 3.80322 9.07531 1.18969 
4.70548 9.14643 0.749386 1.17078 9.8635 1.18717 2.92827 9.53818 1.32155 
4.17243 9.98571 0.80481 0.564845 5.0988 1.84477 4.26069 5.04716 1.85026 
1.7251 5.67281 1.6283 3.29955 5.68021 1.89488 0.803107 6.6266 1.86295 
2.51087 6.54508 1.73544 3.50589 6.79122 1.75459 4.53709 6.40954 1.89767 
1.69071 7.07909 1.94781 4.94464 7.43601 1.68906 0.869987 7.56968 1.53878 
1.83818 8.06254 1.81143 3.28682 7.78589 1.77314 1.00991 8.58961 2.00251 
4.19227 8.45348 1.91665 2.4467 8.85488 1.87441 0.538787 9.52545 1.93969 
1.6173 9.40304 1.95405 4.58275 9.4227 1.71135 1.35881 5.26182 2.46339 
2.47334 5.11002 2.07726 1.67952 6.26422 2.63053 3.77387 6.36024 2.62228 
0.866767 7.37367 2.54596 3.21349 7.32028 2.65842 0.19239 8.0569 2.23106 
4.1783 7.55151 2.35008 3.29848 8.61502 2.33231 4.1305 9.37618 2.6135 
3.14589 9.60236 2.44571 3.63327 5.37221 2.79327 2.5714 5.79086 2.83602 
4.63103 5.6576 2.80325 0.721007 6.43067 2.86257 4.6919 6.68175 2.87337 
2.2125 7.34723 2.75472 0.552579 8.14337 3.27128 1.64297 8.48934 2.79952 
2.60677 8.2348 2.94932 3.59023 8.1909 3.18748 4.50126 8.49646 2.9101 
0.449099 9.01909 2.79856 2.41364 9.20259 3.06087 1.36562 9.44154 2.9216 
2.09807 5.36376 3.72599 4.0836 5.60756 3.65302 0.129025 6.06696 3.60661 
1.2151 5.81054 3.48339 3.0857 5.83152 3.69776 0.811506 6.76736 3.83645 
2.39319 6.64579 3.45205 3.39831 6.75031 3.46684 1.43833 7.42766 3.41449 
4.18605 7.35699 3.42895 2.91368 7.68763 3.72698 2.07441 8.48967 3.7609 
1.1294 8.82039 3.73994 3.55952 9.01893 3.74846 4.54758 8.88354 3.87796 
0.0948147 9.43789 3.67841 3.3619 10.0013 3.80198 4.46391 9.85947 3.42912 
0.660722 5.32932 4.15598 1.54933 5.41709 4.67957 2.4406 5.8533 4.55779 
3.63733 5.7154 4.5409 4.8324 5.92158 4.23501 1.71682 6.51371 4.18659 
3.13513 6.57724 4.46951 4.118 6.62355 4.19179 2.25714 7.49902 4.48634 
0.614018 7.79939 4.24369 4.05287 7.59214 4.42729 1.50161 8.15008 4.53408 
3.37183 8.30929 4.54132 4.99288 8.15099 4.58323 2.67353 9.28631 4.12627 
0.718118 9.62942 4.53493 1.68957 9.43846 4.34564 4.41243 9.84468 4.4351 
3.18831 5.24978 5.30221 0.387152 5.81772 5.03841 4.76217 5.75066 5.21802 
1.2806 6.28688 5.20571 2.20696 6.80954 5.21036 3.99943 6.63243 5.24661 
0.283938 6.95736 4.66987 1.25173 7.20832 4.79655 3.11894 7.43665 4.98856 
0.713408 8.49237 5.0418 2.41294 8.51646 4.70803 4.21862 8.6946 4.94664 
1.6303 8.85326 5.22625 2.65365 9.51232 5.10291 3.54915 9.38721 4.67773 
2.20543 5.73809 5.54241 0.375757 6.67394 5.62589 3.0643 6.36708 5.53721 
1.339 7.193 5.81691 3.29758 7.46979 5.97506 0.490731 7.73377 5.84996 
2.22578 7.87847 5.56497 4.32472 7.78236 5.36905 3.10476 8.3829 5.50983 
2.363 8.92571 5.89924 4.37247 8.75661 5.93497 0.891362 9.44067 5.53921 
[...]
POINT_DATA 1000
FIELD FieldData 7
id 1 1000 int
9 5 843 530 509 531 18 519 20 
506 526 600 11 595 255 109 510 6 
16 146 2 514 757 505 17 522 12 
513 1 501 504 516 8 748 14 548 
502 518 523 13 554 10 21 909 537 
794 529 4 34 640 35 555 23 534 
544 552 302 541 782 41 7 38 508 
546 547 532 22 170 533 26 30 24 
557 277 543 283 626 418 542 550 644 
29 545 71 33 40 63 535 47 551 
540 42 31 279 37 44 32 556 558 
67 28 900 561 560 570 654 553 49 
25 539 280 294 36 53 69 45 559 
408 54 55 562 187 566 80 59 51 
58 62 70 68 48 817 50 572 669 
43 683 220 588 57 61 84 538 569 
567 589 563 52 311 573 568 575 571 
663 64 578 582 583 574 96 303 99 
66 101 103 102 800 91 56 92 95 
202 699 78 72 74 337 580 97 585 
79 83 339 592 98 77 591 89 122 
118 870 579 590 576 82 88 104 86 
833 125 87 75 81 584 593 586 581 
577 235 226 715 127 120 123 602 107 
608 93 105 108 73 110 115 598 233 
601 228 743 124 119 604 116 128 111 
599 365 605 846 272 117 106 240 594 
112 735 507 633 372 606 607 528 610 
121 512 114 597 603 515 142 596 404 
503 511 612 143 135 984 152 611 625 
723 728 617 132 133 520 140 130 517 
892 129 151 148 147 134 616 138 144 
629 136 149 631 3 141 150 874 627 
632 613 139 131 614 620 622 383 641 
624 651 173 623 646 912 174 402 27 
168 642 653 659 657 160 615 647 157 
636 158 658 166 156 423 650 648 639 
171 652 161 163 154 167 162 668 924 
656 655 177 643 645 682 159 637 169 
649 155 660 436 638 172 450 190 194 
60 420 681 193 164 180 185 153 199 
182 940 661 677 673 192 207 948 674 
666 178 680 198 189 181 679 684 676 
670 188 662 664 183 675 179 196 176 
671 686 678 191 685 667 195 469 709 
211 215 970 693 701 689 703 206 665 
200 197 706 205 707 702 698 692 203 
214 218 691 690 209 210 700 201 216 
704 710 688 85 694 224 719 712 481 
219 741 708 992 705 222 221 212 961 
217 969 587 230 208 374 695 713 714 
737 736 720 238 227 727 726 733 696 
244 717 242 742 137 628 738 739 716 
239 225 991 734 234 237 246 722 725 
236 223 521 247 527 630 872 634 229 
618 243 635 245 231 732 718 248 724 
396 264 252 251 259 767 268 271 369 
358 525 260 380 896 773 747 891 758 
761 765 15 866 287 744 760 254 261 
609 262 269 250 382 904 257 524 768 
253 258 753 19 764 267 754 769 263 
265 762 756 413 763 778 755 282 781 
276 281 299 788 300 908 780 784 785 
790 746 777 775 536 293 286 292 786 
793 766 911 414 275 427 298 290 306 
818 289 774 285 816 296 274 783 313 
789 776 406 288 779 291 792 809 295 
324 325 813 323 278 811 284 321 301 
803 320 319 305 46 808 308 318 549 
812 316 796 814 807 322 672 310 314 
565 934 943 821 832 333 355 810 798 
802 797 307 805 815 343 345 312 315 
837 335 334 827 830 338 564 349 353 
340 831 819 332 94 348 952 801 835 
864 347 213 329 826 342 331 346 825 
354 823 100 336 327 804 351 824 829 
344 822 858 848 90 836 359 326 377 
352 350 834 341 371 328 855 373 126 
857 856 330 854 840 838 869 76 859 
850 845 466 861 839 989 363 362 863 
847 357 867 368 868 270 852 849 851 
378 1000 483 865 853 860 364 750 745 
256 862 356 366 842 841 361 367 360 
113 266 249 375 771 752 389 273 990 
385 884 394 391 232 390 895 987 400 
399 490 873 770 772 898 749 759 384 
871 878 395 887 405 621 879 886 881 
381 876 889 145 888 393 403 883 899 
387 885 894 901 398 893 386 432 791 
424 437 922 882 927 877 397 410 925 
412 426 411 921 905 751 906 928 297 
907 388 419 431 915 415 923 175 914 
926 438 422 39 417 903 918 919 439 
461 920 916 434 917 409 407 429 457 
787 435 433 430 902 939 459 425 942 
945 165 416 937 440 944 421 951 448 
910 913 806 304 309 317 449 428 453 
470 941 447 947 444 186 950 446 456 
454 795 946 462 929 452 799 933 442 
460 184 443 960 930 938 936 441 935 
931 949 65 445 464 472 468 204 451 
953 687 465 455 976 932 964 971 458 
954 474 478 965 828 967 977 697 476 
467 966 711 962 958 471 959 820 972 
463 473 497 379 489 956 955 998 974 
968 957 477 994 499 996 488 985 844 
973 475 995 493 494 721 999 485 975 
496 487 491 479 963 988 482 241 376 
978 729 495 486 730 480 986 740 484 
880 370 492 997 890 500 979 619 498 
401 392 875 981 897 983 982 993 731 
980 
type 1 1000 int
1 1 2 2 2 2 1 2 1 
2 2 2 1 2 1 1 2 1 
1 1 1 2 2 2 1 2 1 
2 1 2 2 2 1 2 1 2 
2 2 2 1 2 1 1 2 2 
2 2 1 1 2 1 2 1 2 
2 2 1 2 2 1 1 1 2 
2 2 2 1 1 2 1 1 1 
2 1 2 1 2 1 2 2 2 
1 2 1 1 1 1 2 1 2 
2 1 1 1 1 1 1 2 2 
1 1 2 2 2 2 2 2 1 
1 2 1 1 1 1 1 1 2 
1 1 1 2 1 2 1 1 1 
1 1 1 1 1 2 1 2 2 
1 2 1 2 1 1 1 2 2 
2 2 2 1 1 2 2 2 2 
2 1 2 2 2 2 1 1 1 
1 1 1 1 2 1 1 1 1 
1 2 1 1 1 1 2 1 2 
1 1 1 2 1 1 2 1 1 
1 2 2 2 2 1 1 1 1 
2 1 1 1 1 2 2 2 2 
2 1 1 2 1 1 1 2 1 
2 1 1 1 1 1 1 2 1 
2 1 2 1 1 2 1 1 1 
2 1 2 2 1 1 1 1 2 
1 2 2 2 1 2 2 2 2 
1 2 1 2 2 2 1 2 1 
2 2 2 1 1 2 1 2 2 
2 2 2 1 1 2 1 1 2 
2 1 1 1 1 1 2 1 1 
2 1 1 2 1 1 1 2 2 
2 2 1 1 2 2 2 1 2 
2 2 1 2 2 2 1 1 1 
1 2 2 2 2 1 2 2 1 
2 1 2 1 1 1 2 2 2 
1 2 1 1 1 1 1 2 2 
2 2 1 2 2 2 1 2 1 
2 1 2 1 2 1 1 1 1 
1 1 2 1 1 1 1 1 1 
1 2 2 2 2 1 1 2 2 
2 1 2 1 1 1 2 2 2 
2 1 2 2 1 2 1 1 1 
2 2 2 1 2 2 1 1 2 
1 1 2 2 2 2 2 1 2 
1 1 2 1 2 2 2 2 1 
1 1 2 2 1 1 2 1 1 
2 2 2 1 2 1 2 2 1 
1 2 2 2 2 1 1 1 2 
1 2 2 1 1 1 2 2 2 
2 2 2 1 1 2 2 2 2 
1 2 1 2 1 2 2 2 2 
1 1 2 2 1 1 1 2 2 
1 1 2 1 2 2 2 2 1 
2 1 2 1 1 2 2 1 2 
1 1 1 1 1 2 1 1 1 
1 2 1 1 2 2 2 2 2 
2 2 1 2 1 2 2 1 1 
2 1 1 1 1 2 1 2 2 
1 1 2 1 2 1 2 2 1 
1 2 2 1 2 2 2 1 2 
1 1 1 2 1 2 2 2 2 
2 2 2 2 2 1 1 1 2 
2 2 2 1 1 1 1 1 1 
2 1 2 1 2 1 1 2 1 
2 2 1 1 2 1 2 2 1 
1 1 2 1 1 2 1 1 1 
2 1 1 1 1 2 1 1 2 
2 1 2 2 2 1 2 1 1 
2 2 2 2 2 1 1 2 2 
2 2 1 2 2 1 1 1 1 
2 1 1 2 2 1 2 1 1 
1 2 2 1 1 1 2 2 2 
2 1 1 1 2 1 1 1 2 
1 2 1 1 1 2 1 2 2 
1 2 2 2 1 2 1 1 1 
1 1 2 1 1 1 2 1 1 
2 2 1 2 2 2 2 1 2 
2 2 1 2 2 2 1 1 2 
2 1 2 1 2 1 2 2 2 
1 2 1 2 2 2 1 2 2 
1 2 1 1 2 2 1 1 1 
1 1 1 1 2 2 1 1 2 
1 2 1 1 1 1 2 2 1 
1 1 2 2 2 2 2 2 1 
2 2 1 2 1 2 2 2 2 
1 2 2 1 2 1 1 2 2 
1 2 2 2 1 2 1 1 2 
1 1 2 2 2 2 1 1 2 
1 1 1 2 2 2 2 2 1 
2 1 1 1 2 1 2 1 2 
2 1 1 1 1 2 2 2 1 
1 2 2 1 2 1 1 1 1 
2 1 1 1 2 2 1 1 2 
2 1 1 2 1 2 1 2 1 
2 2 2 1 1 1 1 1 1 
1 2 1 2 1 1 2 1 1 
1 2 2 1 2 1 2 2 1 
1 1 1 2 2 2 2 1 2 
2 2 1 1 1 1 1 1 1 
2 2 1 1 2 2 2 2 1 
2 1 1 2 2 2 2 2 1 
1 2 2 2 2 1 2 2 2 
1 1 1 1 1 2 2 2 2 
2 2 1 2 1 2 1 2 2 
2 1 2 1 1 2 2 1 2 
1 1 1 1 2 2 1 1 1 
2 2 1 1 2 1 2 2 1 
2 1 1 2 2 1 2 2 1 
1 1 2 2 2 2 2 2 2 
2 
i 3 1000 int
0 0 0 0 0 0 1 0 1 
0 0 0 0 0 0 0 0 0 
0 0 0 0 0 0 0 0 0 
0 0 0 0 0 0 0 0 1 
0 0 0 0 0 1 1 0 0 
0 0 1 0 0 0 0 0 0 
0 0 0 0 1 0 0 0 0 
0 0 0 1 0 0 0 0 0 
0 0 0 0 0 0 0 0 0 
0 0 0 0 0 0 0 0 0 
0 0 0 0 0 0 0 0 0 
1 0 0 0 0 0 0 0 0 
0 0 0 0 0 0 0 0 0 
0 0 0 0 0 0 0 0 0 
0 0 0 1 0 0 0 0 0 
0 0 0 0 0 0 0 0 0 
0 0 0 0 1 0 0 0 0 
0 0 0 0 0 0 0 0 0 
0 0 0 0 0 0 1 0 0 
0 0 0 0 0 0 0 0 0 
0 0 0 0 0 0 0 0 0 
0 0 0 0 0 0 0 0 0 
0 0 0 0 1 0 0 0 0 
0 0 0 0 0 0 0 0 0 
0 0 0 0 0 0 0 0 0 
1 0 0 0 0 0 1 0 0 
0 0 0 0 0 0 0 1 0 
0 0 0 0 0 0 0 0 0 
0 0 0 0 0 0 0 0 0 
0 0 0 0 0 0 0 0 0 
0 0 0 0 0 0 0 0 0 
0 0 0 0 0 0 0 0 0 
0 0 0 0 0 0 0 0 0 
0 0 0 0 0 0 0 0 0 
0 0 0 0 0 0 0 0 0 
0 1 0 0 0 0 0 0 0 
0 0 0 0 0 0 0 0 0 
1 0 0 0 0 0 0 0 0 
0 0 0 0 0 0 0 0 0 
1 0 0 0 0 0 0 0 0 
0 0 0 0 1 0 0 0 0 
0 0 0 0 0 0 0 0 0 
0 0 0 0 0 0 0 0 0 
0 0 0 0 0 0 0 0 0 
0 0 0 0 0 0 0 0 0 
0 0 0 0 0 0 0 1 0 
0 0 0 0 0 0 0 0 0 
0 0 0 0 0 0 0 0 0 
0 0 0 0 0 0 0 0 0 
0 0 0 0 0 0 0 0 0 
0 0 0 0 0 0 0 0 0 
0 1 0 0 0 0 0 0 0 
0 0 0 0 0 0 0 0 0 
0 0 0 1 0 0 0 0 0 
0 0 0 0 0 0 0 0 0 
0 0 0 1 0 0 0 0 0 
0 0 0 0 0 0 0 0 0 
0 1 0 0 1 0 0 0 0 
0 0 0 0 0 0 1 0 0 
0 0 0 0 0 0 0 0 0 
0 0 0 0 0 0 1 0 0 
0 0 0 0 0 0 0 0 0 
0 0 0 0 0 0 0 0 0 
0 0 0 0 0 0 0 0 0 
0 0 0 0 0 0 0 0 0 
0 0 0 0 0 0 0 0 0 
0 0 0 0 0 0 0 0 0 
0 0 0 0 0 0 0 0 0 
0 0 0 0 0 0 0 0 0 
0 0 0 0 0 0 0 1 0 
0 1 0 0 0 0 0 0 0 
0 0 0 0 0 0 0 0 0 
0 0 0 0 0 0 0 0 0 
0 0 0 0 0 0 0 0 0 
0 0 0 0 0 0 0 0 0 
0 0 0 0 0 0 0 0 0 
0 0 0 0 0 0 0 0 0 
0 0 0 0 0 0 0 0 0 
0 0 0 1 0 0 0 0 0 
0 0 0 1 0 -1 0 0 0 
0 0 0 0 0 0 0 0 0 
0 0 0 0 1 0 0 0 -1 
0 1 -1 0 0 0 0 0 0 
0 0 0 0 0 -1 0 0 0 
0 0 0 0 0 -1 0 0 0 
0 0 0 0 0 0 0 0 -1 
0 0 -1 0 0 0 1 0 0 
0 0 0 0 0 0 0 0 0 
0 0 0 0 0 0 0 0 1 
0 0 0 0 0 0 0 0 0 
0 0 1 0 0 1 0 0 0 
0 0 0 0 0 0 0 -1 0 
0 0 0 0 0 0 0 0 0 
1 0 0 0 0 0 0 0 0 
0 0 0 0 0 0 0 0 0 
0 0 0 0 0 0 0 0 0 
0 0 0 0 0 0 0 0 0 
0 0 0 0 -1 0 0 0 0 
0 0 0 1 0 0 0 0 0 
0 0 0 0 0 0 0 0 0 
0 0 0 0 0 0 0 0 0 
0 0 0 0 0 0 0 0 0 
0 0 0 0 0 0 0 0 0 
0 0 0 0 0 0 1 0 0 
0 0 0 0 0 0 0 0 0 
0 0 0 0 0 0 0 0 0 
0 0 0 0 0 0 0 0 0 
0 0 0 0 0 0 0 0 0 
0 0 0 0 0 0 0 0 0 
0 0 0 0 0 0 0 0 0 
0 0 0 0 0 0 0 0 0 
0 0 0 0 0 0 0 0 0 
0 0 0 0 0 0 0 0 0 
0 0 0 0 0 0 1 0 0 
0 0 0 0 0 0 0 0 0 
0 0 0 0 0 0 0 0 0 
0 0 0 0 0 0 0 0 0 
0 0 0 0 0 0 0 0 0 
1 0 0 0 0 0 0 0 0 
1 0 0 0 0 0 0 0 0 
0 0 0 0 0 0 0 0 0 
0 0 0 0 0 0 0 0 0 
0 0 0 0 0 0 0 0 0 
0 0 0 0 0 0 0 0 0 
0 0 0 0 0 0 0 0 0 
0 0 0 1 0 0 0 0 0 
0 0 0 0 0 0 0 0 0 
0 0 0 0 0 0 0 0 0 
0 0 0 0 0 0 0 0 0 
0 0 0 0 0 0 0 0 0 
0 0 0 0 0 0 0 0 0 
0 0 0 0 0 0 0 0 0 
0 0 0 0 0 0 0 0 0 
0 0 0 0 0 0 0 0 0 
0 0 0 0 0 0 0 0 0 
0 0 0 0 0 0 0 0 0 
0 0 0 0 0 0 0 0 0 
0 0 0 0 0 0 0 0 0 
0 0 0 0 0 0 0 0 0 
0 0 0 0 0 0 0 0 0 
0 0 0 0 0 0 0 0 0 
0 0 0 0 0 0 0 0 0 
0 0 0 0 0 0 0 0 0 
0 0 0 0 0 0 0 0 0 
0 0 0 0 0 0 0 0 0 
0 -1 0 0 0 0 0 0 0 
0 0 0 0 0 0 1 0 0 
0 0 0 0 0 0 0 0 0 
0 0 0 0 0 0 0 0 0 
0 0 0 0 0 0 0 0 0 
0 0 0 0 0 0 0 -1 0 
0 0 0 0 0 0 1 0 0 
0 0 0 0 0 0 0 0 0 
0 0 0 0 0 0 0 0 0 
0 0 0 0 0 0 0 0 0 
0 0 0 0 0 0 0 0 0 
0 0 0 0 0 0 0 0 0 
0 0 0 0 0 -1 0 0 -1 
0 0 0 0 0 0 0 0 0 
0 0 0 0 0 0 1 0 0 
0 0 0 0 0 0 0 0 0 
0 0 0 0 0 0 0 0 0 
0 0 0 0 0 0 0 0 -1 
0 0 0 0 0 -1 0 0 -1 
1 0 -1 0 0 -1 0 0 0 
0 0 -1 0 0 0 0 0 -1 
0 0 0 0 0 0 0 0 0 
0 0 0 0 0 0 0 0 0 
0 1 0 0 0 0 0 0 0 
0 0 0 0 0 0 0 0 0 
0 0 0 0 0 0 0 0 1 
0 0 1 0 0 0 0 0 0 
0 0 1 0 1 0 0 0 0 
0 0 0 0 1 0 0 0 0 
0 0 0 0 0 0 0 0 0 
0 0 1 0 0 0 0 0 0 
0 0 0 0 0 0 0 0 0 
0 0 1 0 0 0 0 0 0 
0 0 0 0 1 0 0 1 0 
0 0 0 0 0 0 0 0 0 
0 0 0 0 0 0 0 0 0 
0 0 0 0 0 0 0 0 0 
0 0 0 0 0 0 0 0 0 
0 0 0 0 0 0 0 0 0 
0 1 0 0 0 0 0 0 0 
0 0 0 0 0 0 0 0 0 
0 0 0 0 0 0 0 0 0 
0 0 0 0 0 0 0 1 0 
0 0 0 0 0 0 0 0 0 
0 0 0 0 0 0 0 0 0 
0 0 0 -1 0 0 0 0 0 
0 0 0 0 0 0 0 0 0 
0 0 0 0 0 0 0 0 0 
0 0 0 0 0 0 0 1 0 
0 0 0 0 0 0 0 0 0 
0 0 0 0 0 0 0 0 0 
0 0 0 0 0 0 0 0 0 
0 0 0 0 0 0 0 0 0 
0 0 0 0 0 0 0 0 0 
0 0 0 0 0 0 0 0 0 
0 0 0 0 0 0 0 0 0 
0 0 0 0 0 0 0 0 0 
0 0 0 0 0 0 0 0 0 
0 0 0 0 0 0 0 0 0 
0 0 0 0 0 0 0 0 0 
0 0 0 0 0 0 0 0 0 
0 0 0 0 0 0 -1 0 0 
0 0 0 0 0 0 0 0 0 
0 0 0 0 0 0 0 0 0 
0 0 0 0 0 0 0 0 0 
0 0 0 0 1 0 0 1 0 
0 0 0 0 0 0 0 0 0 
0 0 0 0 0 0 0 0 0 
0 0 0 0 0 0 0 0 0 
0 0 0 0 0 0 0 0 0 
0 0 0 0 0 0 0 0 0 
0 0 0 0 0 0 0 0 0 
0 0 0 0 0 0 0 0 0 
-1 0 0 0 0 0 0 0 0 
0 0 0 0 0 0 0 0 0 
0 0 0 0 0 0 0 0 0 
0 0 0 0 0 0 0 0 0 
0 0 0 0 0 0 -1 1 0 
0 0 0 0 0 0 0 0 0 
0 0 0 0 0 0 0 0 0 
0 0 0 0 0 0 -1 0 0 
0 0 0 0 0 0 0 0 0 
0 0 0 0 0 0 0 0 0 
0 0 0 0 0 0 0 0 0 
0 0 0 -1 0 0 0 0 0 
0 0 0 0 0 0 0 0 0 
0 0 0 0 0 0 0 0 0 
0 0 0 0 0 0 0 0 0 
0 0 0 0 0 0 0 0 0 
0 0 0 0 0 0 0 0 0 
0 0 0 0 0 0 0 0 0 
0 0 0 -1 0 0 0 0 0 
0 0 0 0 0 0 0 0 0 
0 0 0 0 0 0 0 1 0 
0 0 0 0 0 0 0 0 0 
0 0 0 0 0 0 0 0 0 
0 0 0 0 0 0 0 0 -1 
0 0 0 0 0 0 0 0 0 
0 0 0 0 0 0 0 0 0 
0 0 0 0 0 0 0 0 0 
0 0 0 0 0 -1 0 0 -1 
0 0 -1 0 0 0 0 0 0 
0 0 0 0 0 0 0 0 0 
0 0 0 0 0 0 0 0 0 
0 0 0 0 0 -1 0 0 -1 
0 0 0 0 0 0 0 0 0 
0 0 0 0 0 0 0 0 1 
0 0 0 0 0 0 0 0 0 
0 0 0 0 0 1 0 0 0 
0 0 0 0 0 1 0 0 0 
0 0 0 0 0 1 0 0 0 
0 0 0 0 0 0 0 0 0 
0 0 0 0 0 0 0 0 0 
0 0 0 0 0 0 0 0 0 
0 0 0 0 0 0 -1 0 0 
0 0 0 0 0 0 0 0 0 
0 0 0 0 0 0 0 0 0 
0 0 0 0 0 0 0 0 0 
0 0 0 0 0 0 0 0 0 
0 0 0 0 0 0 0 0 0 
0 0 0 0 0 0 0 0 0 
0 0 0 0 0 0 0 0 0 
0 0 0 0 0 0 0 0 0 
0 0 0 0 0 0 0 0 0 
0 0 0 0 0 0 0 0 0 
0 0 0 0 0 0 0 0 0 
0 0 0 0 0 0 0 -1 0 
0 0 0 0 0 0 0 0 0 
0 0 0 0 0 0 0 0 0 
0 0 0 0 0 0 0 0 0 
0 0 0 -1 0 0 0 0 0 
0 0 0 0 0 0 0 0 0 
0 -1 0 0 0 0 0 0 0 
0 0 0 0 0 0 0 0 0 
0 0 0 0 0 0 0 0 0 
0 0 0 0 0 0 0 0 0 
0 0 0 0 0 0 0 0 0 
0 -1 0 0 0 0 0 0 0 
0 0 0 0 0 0 0 0 0 
0 0 0 0 0 0 0 0 0 
0 0 0 0 0 0 0 0 0 
0 0 0 0 0 0 0 0 0 
0 0 0 0 0 0 0 0 0 
0 0 0 0 0 0 0 -1 0 
0 0 0 0 0 0 0 0 0 
0 0 0 0 0 0 0 0 0 
0 0 0 0 0 0 0 0 0 
0 0 0 0 0 0 -1 0 0 
0 0 0 0 0 0 0 0 0 
0 0 0 0 -1 0 0 0 0 
0 0 0 0 0 0 0 0 0 
0 0 0 0 0 0 0 0 0 
0 0 0 0 0 0 0 0 0 
0 0 0 0 0 0 0 0 0 
0 0 0 0 0 0 0 0 0 
0 0 0 0 0 0 -1 -1 0 
0 0 0 0 0 0 0 0 0 
0 0 0 -1 0 0 0 0 0 
0 0 0 -1 0 0 0 0 0 
0 0 0 0 0 0 0 0 0 
0 0 0 0 0 0 0 0 0 
0 0 0 0 0 0 0 0 0 
0 0 0 0 0 0 0 0 0 
0 0 0 -1 0 0 0 0 0 
0 0 0 0 0 0 0 0 0 
0 0 0 0 0 0 0 0 0 
0 0 0 0 -1 0 0 0 0 
0 0 0 0 0 0 0 0 0 
0 0 0 0 0 0 0 0 0 
0 0 0 0 0 0 0 0 0 
0 0 0 0 0 0 0 0 0 
0 0 0 0 0 0 0 0 0 
0 0 0 0 0 0 0 0 0 
0 0 0 0 0 0 0 0 0 
0 0 0 0 0 0 -1 0 0 
0 0 0 0 0 0 0 0 0 
0 0 0 0 0 0 0 0 0 
0 0 0 0 0 0 0 0 0 
0 0 0 -1 0 0 0 0 0 
0 0 0 0 0 0 0 0 0 
0 0 0 -1 0 0 0 0 0 
0 0 0 0 0 0 0 0 0 
0 0 -1 0 -1 0 0 0 0 
0 0 0 0 0 -1 0 0 0 
0 0 0 0 0 -1 0 0 0 
0 0 -1 0 0 -1 0 0 -1 
0 0 0 0 0 -1 0 0 0 
0 0 0 0 0 0 0 0 0 
0 0 0 
v 3 1000 double
0.16371125489 -0.51285513173 -0.50938146998 -0.55516832456 0.29246378555 0.10175760569 0.88914298127 0.61826563474 0.86212828278 
0.57349656515 -0.26933317507 0.46886744 -0.22984608114 -0.036167485673 -1.5866926477 -0.84879945645 1.3882556841 0.094542285287 
0.97360050741 -0.36530410218 -1.0815652669 -1.0786733505 -0.61301641751 -0.34485273549 -0.36338782366 1.5318834951 0.75629317869 
-0.36444522735 -0.38548279932 -0.49273049783 0.2949225973 0.98366124841 -0.60159921707 -0.77645270094 -0.22217583448 -0.5226988214 
0.51410568341 0.74698584222 1.2088218477 -0.49650699605 -0.041276670967 -0.95853117596 0.83348896284 -0.8977862188 -0.26409347336 
1.2641221844 -0.63440040793 0.70895564041 1.2242885636 1.3892204558 1.0417905716 1.4904413921 -0.20136957035 -0.75576437549 
0.28844739623 -0.063683508559 -0.53399311586 -0.50037214187 -0.25548113125 0.43156417343 0.47727496276 -1.3528484794 -0.42922458325 
0.47871760656 -0.18788523958 -1.1977435463 -1.2077019405 -1.1723226433 -0.2332015898 -0.49081548989 0.1167079887 0.94670424632 
-0.9379716525 -2.6888774342 -0.066833255865 -0.82544519967 -0.78009175764 -0.076654378152 1.0238712782 -0.18074288476 -1.1966884065 
1.1464725525 -1.1313727449 -1.3283760009 -0.68208770135 -1.9064075411 0.03824837676 -0.71696976945 -0.58698382256 0.79038932873 
-1.6066587969 -1.8441208638 0.065199729326 2.7547635565 1.0805195451 -2.5633502868 -0.03355494205 0.014470943363 0.3045689676 
-1.2529538 -1.0200034995 0.44540432167 -1.5053260858 -0.58393767358 -0.70547967494 0.33104326644 -0.80290375843 -2.2439449533 
0.77236953437 -0.50602628716 0.00044802429127 -0.99333091624 -1.0092290512 -0.033646758365 -0.69006317449 -1.3098620876 -0.35838759356 
0.49691910778 -0.34071639829 -0.65108988283 0.49861599765 -0.69271039338 -1.6044209378 1.0729758477 -0.96117921813 -0.52619126205 
-0.46756889788 -0.042854492736 0.67236929031 2.3808263641 -1.5103841545 0.99669763175 1.3412167056 0.91592980809 -3.0052912271 
1.720819506 0.51861650152 -1.9732103428 0.23800584961 -0.97078109936 -2.218714406 -0.16495176366 0.4457491529 -2.4807369717 
-1.444773456 -0.047926512032 0.44931610619 -0.069127711638 0.056938181621 -2.2011659437 0.28478298081 0.20084459886 0.92064542153 
-0.0083958525812 0.42991588242 0.013756992858 1.539304809 -2.6069512788 2.2178499099 1.9717611704 -1.4908964173 -1.457812968 
0.53519883514 -0.85734415122 0.040854313296 -0.95747928525 0.26811246847 -1.3512523499 -1.3513394496 -1.0088200374 0.55153376096 
-0.46188302668 -1.2523107787 0.17270368553 -0.46435878814 -0.31023501724 -3.7233471374 -1.6110388957 -1.2700491211 0.46987896261 
-0.39059328225 -1.3063203721 -1.968993522 -0.25430213966 0.53673434558 -1.6933615414 -0.31145908893 -0.95173290719 -0.6889785113 
-0.56143584748 0.44993944064 -1.8191007044 -1.4410204566 -1.1829052435 -1.3137539501 -0.88941036517 0.14801504644 -2.4459869651 
2.3076932471 -1.8879829229 -1.6371660008 1.7077673733 1.3875796476 -0.60595750895 2.0871257484 0.96621860601 -1.572928742 
0.70695267515 -1.0242293153 -0.80574089419 -1.8554787801 -1.059021702 0.29533879956 -2.6496452316 -2.8527248473 -0.17090745119 
0.39322266844 0.11548141374 -1.6636284078 -0.18196118431 -1.7311809438 -1.552850733 -1.1034760975 1.8132960838 -0.19024280012 
0.0068930256438 -0.87177256339 -0.40731670549 0.36219910159 -1.8234626308 1.6053884039 1.2040859847 -1.318649669 0.031997344336 
-0.49365884154 -0.92425964822 -1.1921077963 0.83260683961 -0.13115302197 -2.0956048792 0.38470768172 -1.3227316706 0.22088318036 
0.024791558359 -0.68789942429 -0.66414180097 -0.35830111085 -0.96471206209 1.2303391569 0.043789023433 -1.0009788833 -1.8461139211 
1.3750515136 0.98368282556 -0.8740580442 0.70601550995 -1.4446983095 -0.74785674178 0.0082077432012 -1.1691830061 -1.4257596453 
1.4018870971 1.1143677225 0.1654591569 -0.3770542438 0.59983602674 -2.9895553634 1.2106924191 0.61758915031 -0.18430691927 
1.2503718865 1.1619719287 -0.86857899939 -0.24289854485 -0.01741599429 1.0409591745 0.1344280131 -0.25841081323 -1.6420116903 
-0.99893788427 -2.1839002319 0.10301064871 -1.4948720344 -2.2721373466 1.051885472 0.18122123817 -0.71782002274 -2.7119036785 
1.0925714969 -1.3071588555 1.0053691194 -0.61994598888 -0.4626968707 0.4995438478 1.7010240122 -1.02166831 -2.3233257916 
1.0518530561 -1.5131590384 -1.7135747317 0.89047561893 -1.0303815073 -1.9449305852 -0.8086438383 -0.6980436137 -1.1113399132 
1.1732925837 0.014073928105 -1.024291446 -1.4096129087 0.045756454854 -1.2837692251 1.4534075623 -0.50479985717 1.210316692 
1.0650353382 1.6242657359 -0.6488688262 0.91785214711 -1.3266252683 0.86736810783 1.3732520499 -0.34954535711 -0.60030895177 
-0.36687180249 -0.22627171235 0.96310465753 -0.41971763478 0.57639721551 -1.024265408 -2.3059974474 -0.51638134138 -1.4981162435 
2.0430784616 -1.0290552046 2.9993227204 -0.80716515363 -1.3471975924 0.90009451204 1.3607480805 -0.48402740347 -0.81351847421 
2.5618533499 -0.029653267491 -0.33084390119 -0.74566749902 -1.0589274439 1.5179094789 0.59708844108 -2.3195978537 -0.57610631064 
1.8389805499 -1.8848107389 -0.15682255339 1.0413363318 0.078227247552 -0.68674630617 -0.69761097806 -1.5550003963 1.0354451746 
-1.0731058516 1.2373778666 0.65071975712 -1.0160009376 1.343365549 -2.3703927263 0.076135345229 0.96091370849 0.59659653803 
-1.1441892688 0.52348672982 -1.8057346576 -0.92357345551 -1.1956241137 1.3405761453 -0.55918805166 -0.73005591085 0.32721046874 
-0.62034251049 -0.54601404337 -0.66119504515 -0.22890054138 0.68207093727 -0.55073556714 -0.91182726438 0.39589104024 -0.23109493394 
-0.012727224337 -1.9121508726 1.3990843408 1.5215356612 1.1523828645 0.1137678325 -0.076943362639 0.10707429789 -0.17392546724 
1.8452676835 0.93471424215 0.60936315242 1.5727816815 0.21962138885 -1.9549141617 2.0087545899 -0.51318335556 0.30404732497 
0.90528903446 -0.52427968748 -0.76332185107 -1.1882903346 -0.27511744423 -2.5597985326 -0.45155212381 1.3828516876 1.010015152 
-0.7969171644 0.58059582201 -1.6776294444 0.12374375531 1.771963397 -0.1276833239 -1.090044669 -0.79665356138 -0.11893822682 
0.78435342187 0.6103658821 -0.55035804239 1.4344844041 0.29315795732 0.74619782424 1.3467710716 0.69855854425 -1.0474306006 
1.3290885532 0.0028263893431 2.7327202393 1.2005948857 0.28705321205 0.34096206051 0.095789681932 -1.6333070561 0.78580095164 
1.0055440137 -0.094080801584 -0.69190195356 0.65814074928 -0.39930564291 -1.1848868384 -0.0098500197399 -0.28476712283 -0.78188333049 
2.1231430417 0.45524676806 2.0112833003 1.0021572057 -0.38371829542 -1.9192504564 1.1966450932 -0.027530151333 1.4181559682 
-1.2428502304 -0.14396471486 -0.87539034344 -1.5748346931 0.5777279702 0.46420440933 -0.94542115524 0.057011176838 -1.1276184704 
-0.21388893816 -0.7599882284 0.056080691357 -0.72651479386 0.0079351245164 0.75534984699 -0.86773183816 0.90887842082 -0.029117551105 
0.31928023716 -0.073238079072 -0.57550190506 -0.74074631685 0.97407436502 1.2843975035 -0.1067317764 1.4266991917 -0.41903704077 
0.10590639815 0.20932821767 1.0109214888 1.1167039801 0.69593868719 0.066601840893 1.8428271677 -0.015307665789 1.1820405351 
0.34197972403 -0.49163092033 -0.7656445914 0.40526390286 0.098788949759 -0.3340343386 0.34057107627 0.22970602079 -0.55957315084 
2.1775063692 1.3434712769 0.24183007516 2.1290264493 0.84685886826 -1.5314182412 -0.80753783603 0.56614996144 -0.31886336202 