# vtk DataFile Version 4.2
Generated by LIGGGHTS
ASCII
DATASET POLYDATA
POINTS 1000 float
1.04645 0.460223 0.320497 2.24393 0.627664 0.428774 3.85085 1.13177 0.104654 
4.97741 0.723658 0.700573 2.87424 1.41964 0.195609 1.06648 2.25047 0.583317 
2.16951 2.37657 0.00833048 0.213328 2.67931 0.300784 3.21937 2.99231 0.300937 
1.42939 3.12603 0.266133 4.32538 3.17263 0.298617 0.341563 3.81621 0.117154 
1.3546 4.12626 0.220366 2.37937 4.26067 0.402805 0.200325 0.299964 1.08111 
1.14393 -0.0137406 1.19914 2.17277 0.130191 1.3064 3.25378 0.496063 0.77722 
0.616586 1.19689 0.862828 2.63246 1.20226 1.13415 1.81069 1.58841 0.707503 
4.55271 1.63997 0.695858 0.216049 2.08067 1.11071 2.76214 2.44414 0.99263 
3.63501 2.03815 0.683164 0.761794 3.09039 1.0288 1.80196 2.70396 1.0943 
3.77288 3.01699 1.12306 4.78872 3.0892 1.20908 2.49026 3.41463 0.928666 
0.546138 4.06984 1.05088 1.51623 3.75357 1.12775 0.0461416 4.9301 0.941215 
3.39399 4.53426 0.682738 4.23682 4.50806 1.22186 0.611295 0.737012 1.87741 
1.53837 0.856958 1.54157 4.26206 0.876821 1.46088 1.12437 1.76262 1.53513 
3.48703 1.51441 1.54198 0.534011 2.46971 1.97319 2.18244 1.92868 1.70161 
3.40642 2.45369 1.86772 4.36096 2.22995 1.48921 1.7389 3.26363 1.95442 
3.01406 3.36796 1.78381 4.00902 3.69569 1.79749 4.84166 4.22204 1.96696 
0.861118 4.53429 1.87599 1.82207 4.8843 1.5107 3.24646 4.46181 1.73296 
1.25479 0.368628 2.54634 4.51028 0.239985 2.34339 2.42809 0.824865 2.02947 
3.63869 0.816573 2.23547 0.489777 1.57267 2.40533 1.48044 1.33742 2.47834 
2.94606 1.59013 2.42512 4.88879 1.59956 2.05971 1.46605 2.31431 2.29239 
2.43959 2.67987 2.35471 4.43887 2.86799 2.28954 0.734272 3.43659 2.11 
1.36028 4.04308 2.62567 2.2707 4.07698 2.19131 2.21536 0.0982747 2.67711 
0.422991 1.04828 3.24616 2.30159 1.08592 3.0045 3.88482 0.781517 3.28694 
4.74975 1.06133 2.89046 3.89203 1.70073 2.72361 0.0832151 2.10343 3.14754 
2.15064 2.12023 3.13055 0.823407 2.7706 2.90601 3.28962 2.55924 2.85767 
1.88557 3.34845 3.11464 2.95838 3.55802 2.76997 3.97132 3.56677 2.91713 
4.90176 3.20508 3.10189 0.358015 4.08363 2.7756 2.69595 4.88177 3.19041 
3.48783 4.41242 2.70094 4.48895 4.54368 2.89217 0.868052 0.197102 3.51947 
2.16386 0.320764 3.66801 1.41935 1.03722 3.47978 2.96562 1.07811 3.87514 
4.70076 0.772483 3.86792 4.77504 1.76753 3.73161 1.09187 2.00494 3.53339 
3.04784 2.06768 3.75187 0.455602 2.72423 3.83492 2.70213 3.01197 3.57122 
4.1723 2.69895 3.71933 0.958338 3.67131 3.45804 1.91429 4.32414 3.4694 
2.97208 4.0378 3.6533 4.59113 3.96106 3.69784 0.11243 4.91103 3.36587 
1.09931 4.90685 3.54346 3.78388 4.62706 3.6336 4.97669 4.9696 3.72827 
1.36482 0.411487 4.35975 2.72024 0.323142 4.49296 3.86756 0.57596 4.39623 
0.339858 0.714443 4.23105 1.019 1.39025 4.50826 2.069 1.45843 4.11546 
3.85885 1.52944 4.04981 2.26397 2.43148 4.25592 4.47392 1.99124 4.68127 
3.55338 2.55273 4.50049 0.0638314 3.59359 4.15162 1.49856 3.38233 4.24241 
2.81809 3.22538 4.53549 3.74151 3.65611 4.20319 0.8433 4.25854 4.25999 
2.25168 4.02351 4.35974 2.98321 4.92493 4.16816 4.37857 4.53185 4.49081 
0.521973 0.330008 5.20514 3.40144 0.193609 5.20517 2.42885 1.13169 4.98906 
4.36933 0.888313 5.19339 3.42829 1.29393 4.94447 1.56396 2.06625 4.99509 
2.71744 2.13431 5.0886 0.849258 2.82073 4.74779 1.97172 2.97225 5.0437 
4.28634 3.05552 5.00306 0.176797 3.60449 5.15166 1.18468 3.71657 5.13734 
2.17434 3.88972 5.36971 3.12247 4.15757 4.8807 0.498222 4.80028 5.02908 
2.25417 4.88054 4.86345 1.65383 0.274881 5.9043 1.49125 1.06496 5.32601 
2.71239 0.76507 5.9228 0.625014 1.42563 5.67783 2.89903 1.75296 5.98187 
3.85318 1.48619 5.83123 1.70314 1.91233 5.96853 3.59954 2.38783 5.49009 
4.59973 2.34033 5.6099 0.893896 2.61654 5.72383 2.51771 2.66928 5.94865 
1.67036 3.19831 5.96981 3.16301 3.28708 5.46305 4.62132 3.29999 5.93216 
0.631078 4.15561 5.86697 3.87353 3.98491 5.53405 4.82927 4.24038 5.65186 
1.41122 4.95362 5.3876 3.72475 0.45749 6.10373 0.900284 0.844832 6.44825 
2.00504 1.12277 6.53648 3.31856 1.1782 6.6563 4.50928 0.992913 6.38693 
0.731068 1.99869 6.49335 3.5547 2.46603 6.47955 0.1557 2.99754 6.3421 
4.58116 2.49963 6.59659 0.919246 3.56291 6.66881 3.22691 3.47183 6.435 
1.59514 4.18987 6.12291 2.48681 4.07973 6.70177 4.1804 4.26226 6.43613 
0.956419 4.87958 6.47295 2.33394 4.86117 6.09787 3.25931 4.49508 6.12955 
1.44225 0.150571 6.94143 2.51845 0.389587 6.99263 3.47659 0.0953175 6.99613 
4.5292 0.148385 6.90482 4.15202 1.69248 6.99481 2.1711 2.05016 6.838 
3.08155 1.97474 7.21722 1.39911 2.67511 6.78906 2.4842 2.99181 6.91341 
0.0142148 3.36765 7.32033 1.69093 3.47368 7.30269 4.12439 3.35522 6.83829 
0.0989406 4.14576 6.70932 1.63956 4.44279 7.08481 3.39162 4.38778 7.11594 
4.46568 4.68402 7.29403 1.82119 0.183333 7.87628 0.478734 1.02689 7.49121 
1.50742 1.1448 7.90444 2.38567 1.26588 7.44353 3.33502 0.916032 7.60601 
4.32998 0.874403 7.66917 3.75284 1.76409 7.90539 0.232344 1.97515 7.85784 
1.17136 2.03083 7.52356 4.82797 2.22272 7.53126 0.844531 2.93065 7.86828 
2.75368 2.66828 7.86182 3.8238 2.61066 7.41369 3.19474 3.45674 7.43324 
4.8901 3.3142 7.46473 0.832616 3.89963 7.64116 2.42757 3.93961 7.85775 
4.02937 3.87833 7.77224 0.387906 4.77085 7.42548 1.35673 4.94645 7.89665 
2.42638 4.98089 7.38148 4.86068 0.11859 8.0601 0.1947 0.926769 8.43344 
2.60401 0.691497 8.23923 2.80664 1.73653 8.19955 1.87478 2.15288 8.27596 
4.34984 3.06265 8.26066 1.9432 3.14385 8.20745 3.21114 3.52269 8.53567 
0.0185239 3.74638 8.24417 1.38095 3.97717 8.47375 4.864 4.10334 8.26554 
0.554824 4.57076 8.38012 2.19513 4.65095 8.52343 3.21498 4.49644 8.10584 
0.157034 0.0555547 8.92812 1.3115 0.660678 8.756 2.6008 1.00898 9.19243 
4.25836 0.749619 8.70516 1.13653 1.64203 8.71113 3.49521 1.40272 8.87875 
0.542417 2.45175 8.68836 2.56728 2.02133 9.11582 4.2968 2.14175 8.63819 
1.95677 2.80969 9.14231 4.89593 2.68593 9.23847 2.28325 3.73971 8.93023 
0.213998 4.08887 9.17555 4.07524 3.84002 8.92102 1.31592 4.89717 8.92376 
3.25164 4.46069 9.10076 1.74434 0.383906 9.60643 2.78032 0.145289 9.73372 
3.72032 0.181619 9.3995 4.58989 0.295444 9.87708 0.0135698 0.637928 9.98637 
0.733638 1.34599 9.88168 1.68718 1.45382 9.54904 4.64877 1.26482 9.45732 
1.15077 2.43222 9.60065 3.32423 2.17153 9.7418 4.33578 2.12201 9.84436 
0.263833 3.11112 9.39898 3.78973 3.0358 9.45829 1.31836 3.55671 9.37456 
2.37674 3.38829 9.9118 3.31666 3.90006 9.91639 4.88213 4.09252 9.45458 
0.650054 4.71316 9.82565 2.01941 4.5078 9.50582 4.37804 4.78526 9.96817 
0.228515 5.58931 0.0236815 1.80187 5.06766 0.522999 1.08051 6.06675 0.46313 
2.86293 5.91494 0.0459604 4.46306 5.90528 0.390267 0.266981 6.57487 0.10403 
2.04145 6.50154 0.0440788 1.18349 7.05953 0.0868283 3.54763 7.48413 0.232537 
4.68243 6.9232 0.457693 2.10978 8.11915 0.483414 3.05987 8.32926 0.0340143 
3.94984 8.37575 0.477911 2.58297 9.12079 0.424074 1.72891 9.66807 0.451139 
3.50613 9.68199 0.243497 0.983033 5.25738 1.05436 2.72172 5.2593 0.826619 
3.78429 5.48387 1.00273 4.9216 5.09215 0.745929 0.319181 6.00599 1.09512 
1.98908 5.98204 0.904966 2.832 6.55461 0.825893 3.82459 6.54975 0.80393 
0.490301 7.12676 0.902397 1.61845 7.37117 0.949026 4.08967 7.48897 1.12978 
0.789547 8.08528 0.629555 2.76554 7.61002 1.05173 4.84448 8.0514 0.795095 
3.02426 8.56203 1.18642 0.686689 9.26989 0.668235 1.52646 8.80351 1.00718 
3.87352 9.09991 1.19302 4.77194 9.04896 0.75517 2.98011 9.5518 1.27094 
4.29675 9.97843 0.777144 0.128881 5.31211 1.85816 1.51026 5.78271 1.78869 
3.25154 5.86425 1.78787 0.637017 6.67718 1.86332 2.38866 6.40679 1.83548 
4.37575 6.33803 1.65899 1.61528 7.04702 1.89203 3.45516 6.87 1.67611 
4.97555 7.37204 1.72944 0.882114 7.75013 1.57467 1.8495 7.99472 1.71093 
3.41912 7.8608 1.76784 0.22664 8.72393 1.36726 1.11973 8.65854 1.90238 
4.30387 8.36569 1.74848 2.33327 8.91837 1.96461 0.410233 9.73191 1.88029 
3.8102 9.99504 1.63973 4.73363 9.50536 1.66201 1.03986 5.37186 2.5855 
2.51162 5.08062 2.23907 4.25355 5.11988 2.02368 1.70196 6.36997 2.60924 
3.7863 6.36673 2.47287 4.74642 6.66078 2.56329 0.866852 7.3949 2.51231 
2.18611 7.30476 2.68571 3.17994 7.31151 2.55964 4.14053 7.40543 2.28545 
0.188343 8.08678 2.28266 2.6678 8.20954 2.70443 0.491327 8.98973 2.60014 
3.31291 8.76845 2.15696 4.08153 9.35113 2.3876 1.5883 9.58418 2.00032 
3.09423 9.72734 2.31813 3.60632 5.44142 2.81116 2.70916 5.96371 2.89573 
4.56182 5.74936 2.92954 0.658575 6.47101 2.83485 3.38279 6.69493 3.32572 
0.445893 8.03414 3.34172 3.66487 8.04563 3.13065 1.62898 8.55824 2.73327 
4.52736 8.51869 2.71065 2.66177 9.25281 3.1407 1.28274 9.46837 2.97548 
4.27521 9.79814 3.25375 4.13847 5.54247 3.85279 1.22286 5.92896 3.44627 
2.1453 5.61278 3.64057 3.14523 5.84049 3.79059 2.45362 6.60736 3.66074 
4.11574 6.57163 3.99658 0.00569825 7.15566 3.73825 1.36821 7.12708 3.33388 
2.89957 7.51427 3.63175 4.44391 7.28232 3.36248 1.16622 8.67819 3.6823 
2.31281 8.28578 3.86006 3.60679 8.92485 3.63205 4.61077 8.91724 3.61995 
0.0858973 9.57139 3.60746 3.38442 9.89086 3.84612 0.531806 5.52654 4.09513 
1.46632 5.43296 4.44713 2.48794 5.794 4.5451 4.89874 6.03421 4.31378 
0.828228 6.65287 4.03092 1.74602 6.43819 4.36387 3.2146 6.67077 4.42402 
2.24057 7.39053 4.50707 0.587874 7.79266 4.29243 4.20252 7.82885 4.17425 
1.56168 8.19441 4.50743 3.40797 8.3772 4.47383 0.0116725 8.91345 4.6015 
1.67812 9.27052 4.29862 2.712 9.15418 4.13473 0.692557 9.6363 4.40082 
4.4484 9.731 4.23227 0.467798 5.80275 5.05753 1.36243 6.19562 5.27046 
3.75075 5.6701 4.76716 4.83398 5.89743 5.30019 2.27505 6.6506 5.25864 
4.15096 6.58132 5.00618 0.183676 6.89962 4.75705 1.26881 7.23903 4.76477 
3.14398 7.52669 4.93455 4.29764 7.59927 5.13896 0.741695 8.37964 5.08252 
2.46211 8.50053 4.83909 4.33393 8.57744 4.95648 1.61516 8.86017 5.25134 
2.72437 9.35886 5.28419 3.59408 9.30382 4.80014 1.95142 9.92029 5.00521 
3.09544 5.1839 5.36976 4.30893 5.0453 5.35022 2.20035 5.67044 5.52936 
0.443719 6.62503 5.71214 3.15999 6.28568 5.57846 1.46968 7.05036 5.78299 
3.19541 7.4911 5.93046 4.07977 7.01916 5.91671 2.04358 7.78341 5.40783 
[...]
POINT_DATA 1000
FIELD FieldData 7
id 1 1000 int
9 530 528 773 531 519 20 526 11 
600 595 255 109 510 16 3 146 5 
2 514 509 18 757 505 506 17 522 
12 513 501 504 1 269 6 516 748 
14 502 518 13 302 523 554 10 41 
21 537 794 909 529 4 34 35 548 
555 23 534 544 524 541 7 38 508 
626 547 640 545 22 170 533 552 536 
26 30 557 24 543 546 277 283 542 
532 550 644 29 71 33 40 47 551 
540 42 31 279 37 32 556 558 418 
67 28 900 561 560 654 570 49 63 
535 539 58 25 294 36 53 44 69 
45 54 559 55 187 80 59 51 62 
70 68 48 817 563 50 568 572 669 
43 220 566 588 57 583 61 84 538 
569 567 589 66 52 311 573 575 345 
571 663 64 578 78 582 337 574 303 
96 99 101 103 592 102 91 56 92 
95 202 699 85 74 580 97 585 79 
350 81 83 339 77 591 89 118 579 
590 72 576 82 104 88 86 833 93 
125 87 584 75 593 586 581 98 694 
577 870 127 120 602 107 105 73 110 
108 115 598 233 601 235 124 119 604 
123 116 128 111 599 608 605 846 117 
272 106 240 594 112 735 507 633 843 
606 607 372 610 121 512 365 114 597 
603 515 113 142 596 527 404 503 612 
630 143 872 634 152 723 984 625 231 
617 133 520 140 130 511 517 770 892 
129 135 151 148 147 616 611 134 629 
144 132 138 149 631 141 150 874 632 
613 139 131 620 622 614 383 641 624 
651 136 173 623 646 912 8 402 27 
168 627 642 653 423 659 650 657 615 
160 171 163 647 157 174 636 158 658 
166 156 645 648 652 639 161 154 167 
172 668 656 162 655 643 164 920 682 
637 159 649 169 155 660 436 638 450 
190 194 420 177 681 193 180 185 153 
199 182 448 673 661 677 192 948 666 
60 674 178 680 198 189 181 686 679 
684 676 670 188 662 562 207 683 664 
183 675 179 196 703 671 191 678 685 
667 195 469 709 211 970 701 689 215 
176 690 206 665 200 205 197 706 707 
702 203 692 693 691 214 218 210 209 
700 201 216 704 710 688 698 224 712 
481 219 741 708 222 705 238 221 212 
122 587 217 230 208 374 695 743 713 
719 721 714 737 720 225 992 227 727 
726 733 696 715 717 742 228 739 242 
628 738 730 239 736 991 734 234 237 
725 244 226 223 521 247 137 229 618 
716 635 243 728 245 246 722 732 724 
236 718 248 252 251 259 767 268 369 
525 260 609 752 380 891 758 747 761 
765 15 866 754 744 254 261 262 382 
904 257 250 768 253 258 753 764 19 
287 760 769 263 265 772 762 413 756 
790 746 763 778 755 282 781 286 267 
788 281 766 791 300 908 780 784 785 
777 775 782 293 292 783 276 786 793 
275 427 298 290 306 818 289 774 285 
296 274 789 776 288 301 779 806 291 
792 809 295 553 325 813 816 323 280 
313 278 811 284 406 321 408 803 320 
319 324 808 308 305 812 318 797 549 
796 814 807 316 310 322 304 314 317 
565 934 943 821 810 46 832 333 355 
802 831 798 307 815 343 805 312 315 
801 837 335 334 827 830 338 564 349 
340 819 332 804 94 348 952 835 864 
800 213 329 826 342 353 346 823 825 
354 331 100 336 341 351 824 829 344 
347 996 822 858 330 848 90 359 326 
836 327 377 352 834 328 466 855 373 
126 857 856 852 854 840 838 869 76 
850 845 371 844 861 839 989 364 363 
362 863 847 357 867 368 868 270 849 
851 367 360 378 859 1000 483 865 853 
860 750 862 256 356 745 366 271 842 
841 361 249 358 266 375 389 273 990 
385 875 391 390 400 895 399 396 873 
264 749 759 403 384 871 395 878 884 
887 405 886 876 881 381 889 896 145 
898 888 393 883 899 387 901 885 621 
894 879 398 893 751 386 299 432 424 
437 922 877 882 927 397 410 426 411 
422 921 905 906 928 911 414 297 419 
388 915 415 923 431 175 914 925 412 
917 926 438 435 39 417 903 918 907 
919 924 439 916 461 434 409 407 429 
787 910 433 430 902 939 459 942 945 
165 425 416 447 937 457 940 944 421 
951 913 672 309 449 428 453 470 443 
947 941 444 186 938 440 950 446 456 
946 454 795 462 929 452 799 933 468 
442 460 184 960 930 936 455 932 935 
458 931 949 65 464 472 445 204 962 
953 451 465 976 964 441 954 474 971 
965 828 967 977 697 476 467 966 711 
687 958 471 959 820 972 463 473 478 
379 497 475 489 956 955 968 957 974 
961 477 479 994 499 969 963 488 985 
973 995 493 494 998 999 485 975 491 
370 988 482 241 376 978 495 486 729 
480 986 496 487 740 484 492 997 980 
890 500 771 979 498 619 401 392 897 
981 394 232 983 880 982 987 993 731 
490 
type 1 1000 int
1 2 2 2 2 2 1 2 1 
2 2 1 1 2 1 1 1 1 
1 2 2 1 2 2 2 1 2 
1 2 2 2 1 1 1 2 2 
1 2 2 1 1 2 2 1 1 
1 2 2 2 2 1 1 1 2 
2 1 2 2 2 2 1 1 2 
2 2 2 2 1 1 2 2 2 
1 1 2 1 2 2 1 1 2 
2 2 2 1 1 1 1 1 2 
2 1 1 1 1 1 2 2 1 
1 1 2 2 2 2 2 1 1 
2 2 1 1 1 1 1 1 1 
1 1 2 1 1 1 1 1 1 
1 1 1 2 2 1 2 2 2 
1 1 2 2 1 2 1 1 2 
2 2 2 1 1 1 2 2 1 
2 2 1 2 1 2 1 2 1 
1 1 1 1 2 1 1 1 1 
1 1 2 1 1 2 1 2 1 
1 1 1 1 1 2 1 1 2 
2 1 2 1 1 1 1 2 1 
1 1 2 1 2 2 2 1 2 
2 2 1 1 2 1 1 1 1 
1 1 2 1 2 1 1 1 2 
1 1 1 1 2 2 2 2 1 
1 1 1 2 1 2 2 2 2 
2 2 1 2 1 2 1 1 2 
2 2 1 1 2 2 1 2 2 
2 1 2 2 1 2 2 2 1 
2 1 2 1 1 2 2 2 2 
1 1 1 1 1 2 2 1 2 
1 1 1 1 2 1 1 2 2 
2 1 1 2 2 2 1 2 2 
2 1 1 2 2 2 1 1 1 
1 2 2 2 1 2 2 2 2 
1 1 1 2 1 1 2 1 2 
1 1 2 2 2 2 1 1 1 
1 2 2 1 2 2 1 2 2 
2 1 2 1 1 2 1 2 1 
1 1 1 1 2 1 1 1 1 
1 1 1 2 2 2 1 2 2 
1 2 1 2 1 1 1 2 2 
2 2 2 1 2 2 1 2 2 
1 2 1 1 2 2 1 2 2 
2 1 1 2 1 2 2 2 1 
1 2 1 2 1 1 1 2 2 
2 1 2 2 2 1 1 1 1 
2 1 1 2 2 2 2 1 2 
1 1 2 2 1 2 1 1 1 
1 2 1 1 1 1 2 2 2 
2 2 2 2 2 1 2 1 2 
2 2 2 2 2 2 1 2 1 
2 2 2 1 2 2 2 1 1 
2 1 1 1 2 1 1 1 2 
2 2 1 2 1 1 2 2 2 
1 2 1 1 1 1 2 1 1 
2 1 2 2 1 2 2 2 2 
2 1 2 2 2 1 1 1 1 
2 1 1 2 1 1 2 2 1 
1 2 2 1 1 2 2 1 2 
2 2 2 2 2 1 2 1 1 
2 1 2 2 1 2 2 2 2 
2 2 2 1 1 2 1 2 2 
1 1 1 1 1 2 1 2 1 
1 1 2 2 1 1 2 2 1 
2 2 1 2 1 2 2 1 1 
1 1 2 1 1 1 1 2 1 
1 1 2 1 1 2 1 2 2 
2 2 2 1 1 1 1 1 1 
2 2 2 2 2 1 2 1 1 
2 2 2 1 2 1 2 1 1 
2 2 1 1 2 2 1 2 1 
1 2 1 2 1 1 2 2 2 
2 1 1 2 1 1 1 2 2 
1 1 1 1 1 1 2 2 1 
1 2 2 2 1 2 1 1 1 
2 1 1 1 2 1 1 2 1 
1 2 2 2 2 2 2 2 1 
2 2 1 2 2 2 2 1 1 
1 2 2 1 2 1 2 1 2 
2 1 1 1 2 2 1 2 2 
2 2 2 1 1 2 1 1 2 
2 1 1 1 1 1 1 1 2 
1 2 1 1 1 2 1 1 2 
1 2 2 1 1 2 1 2 2 
2 1 2 2 2 1 2 2 1 
2 2 1 2 2 1 2 2 2 
2 2 1 2 2 1 1 1 1 
1 2 2 2 2 1 1 1 1 
1 2 2 2 2 2 1 1 1 
1 2 1 2 1 1 2 2 1 
2 2 1 1 1 1 2 2 2 
2 2 1 2 1 1 1 1 1 
2 2 1 1 2 2 1 2 2 
1 1 1 1 2 1 2 2 1 
2 2 2 1 1 1 1 1 1 
2 2 1 1 2 1 2 1 1 
2 1 2 1 2 1 2 2 1 
1 1 1 2 2 2 1 2 2 
1 2 2 1 1 1 1 1 2 
2 1 1 2 2 1 2 1 2 
2 2 2 2 2 1 1 2 2 
2 2 1 2 2 2 1 1 1 
1 1 1 1 2 2 2 2 2 
2 1 1 2 1 2 2 1 2 
2 2 1 1 2 2 1 2 1 
1 2 1 1 1 2 1 1 2 
1 2 1 1 2 1 1 2 2 
2 1 2 2 1 2 1 1 2 
2 1 1 2 2 2 2 2 2 
1 
i 3 1000 int
0 0 0 0 0 0 0 0 0 
0 0 0 0 0 0 0 0 0 
0 0 0 0 0 0 0 0 0 
0 0 1 0 0 1 1 0 0 
0 0 1 0 0 0 0 0 0 
0 0 0 0 1 0 0 0 0 
0 0 0 0 0 0 0 0 0 
0 0 0 1 0 0 0 0 0 
0 0 0 0 0 0 0 0 0 
0 0 0 0 0 0 0 0 0 
0 0 0 0 0 0 1 0 0 
0 0 0 0 0 0 1 0 0 
0 0 0 0 0 0 0 0 0 
0 0 0 1 0 0 0 0 0 
0 0 0 0 0 0 0 0 0 
0 0 0 0 0 0 0 0 0 
1 0 0 0 0 0 0 0 0 
0 0 0 0 0 0 0 0 0 
0 0 0 0 0 0 0 0 0 
0 0 0 0 0 0 0 0 0 
0 0 0 0 0 0 0 0 0 
0 0 0 0 0 0 0 1 0 
0 0 0 0 0 0 0 1 0 
0 0 0 0 0 0 0 0 0 
0 0 0 0 0 0 0 0 0 
0 0 0 0 0 0 0 0 0 
0 0 0 1 0 0 0 0 0 
0 0 0 0 0 0 0 1 0 
0 0 0 0 0 0 0 0 0 
0 0 0 0 0 0 0 0 0 
0 0 0 0 0 0 0 0 0 
0 0 0 0 0 0 0 0 0 
0 0 0 0 0 0 1 0 0 
0 0 0 0 0 0 0 0 0 
0 0 0 0 0 0 0 1 0 
0 0 0 0 0 0 0 0 0 
0 0 0 0 0 0 0 0 0 
0 0 0 1 0 0 0 0 0 
0 0 0 0 0 0 0 0 0 
0 0 0 0 0 0 0 0 0 
0 0 0 0 1 0 0 0 0 
0 0 0 0 0 0 0 0 0 
0 0 0 0 0 0 0 0 0 
0 0 0 0 0 0 0 0 0 
0 0 0 0 0 0 0 0 0 
0 0 0 0 1 0 0 0 0 
0 0 0 0 0 0 0 0 0 
0 0 0 0 0 0 0 0 0 
0 0 0 0 0 0 0 0 0 
0 0 0 0 0 0 0 0 0 
0 0 0 0 0 0 0 0 0 
0 0 0 0 1 0 0 0 0 
0 0 0 0 0 0 0 0 0 
1 0 0 0 0 0 1 0 0 
0 0 0 0 0 0 0 0 0 
0 0 0 0 0 0 0 0 0 
0 0 0 0 0 0 0 0 0 
0 0 0 0 1 0 0 1 0 
0 0 0 0 0 0 0 0 0 
0 0 0 0 0 0 0 0 0 
1 0 0 0 0 0 0 0 0 
1 0 0 0 0 0 0 0 0 
0 0 0 0 0 0 0 0 0 
0 0 0 0 0 0 0 0 0 
0 0 0 0 0 0 0 0 0 
0 0 0 0 0 0 0 0 0 
0 0 0 0 0 0 0 0 0 
0 0 0 0 0 0 0 0 0 
0 0 0 0 0 0 0 0 0 
0 0 0 0 0 0 0 0 0 
0 0 0 0 0 0 0 0 0 
0 0 0 0 0 0 0 0 0 
0 0 0 0 0 0 0 0 0 
0 0 0 0 0 0 0 0 0 
0 0 0 0 0 0 0 0 0 
0 0 0 0 0 0 0 0 0 
0 0 0 0 0 0 0 0 0 
0 0 0 0 0 0 0 0 0 
1 0 -1 0 0 0 0 0 0 
0 0 0 0 0 0 0 1 0 
0 0 -1 0 1 -1 1 0 0 
0 0 0 0 0 0 0 0 0 
0 0 0 0 0 0 0 0 -1 
1 0 0 0 0 0 0 0 0 
0 0 0 0 0 -1 0 0 0 
0 0 -1 0 0 0 0 0 -1 
1 0 0 0 0 0 0 0 0 
0 0 0 0 0 0 1 0 0 
0 0 0 0 0 0 0 0 1 
0 0 1 0 0 0 0 0 1 
0 0 0 0 0 0 0 -1 0 
0 0 0 0 0 0 0 0 0 
0 0 0 0 0 0 1 0 0 
0 0 0 0 0 0 0 0 0 
0 0 0 0 0 0 0 0 0 
0 0 0 0 0 0 0 0 0 
0 0 0 0 0 0 0 0 0 
0 0 0 0 0 0 0 0 0 
0 0 0 1 0 0 0 0 0 
0 0 0 0 0 0 0 0 0 
0 0 0 0 0 0 0 0 0 
0 0 0 0 0 0 0 0 0 
0 0 0 0 0 0 0 0 0 
0 0 0 0 0 0 1 0 0 
0 -1 0 0 0 0 0 0 0 
0 0 0 0 0 0 0 0 0 
0 0 0 0 0 0 0 0 0 
0 0 0 0 0 0 0 0 0 
0 0 0 0 0 0 0 0 0 
0 0 0 0 0 0 0 0 0 
0 0 0 0 0 0 0 0 0 
0 0 0 0 0 0 0 0 0 
0 0 0 0 0 0 0 0 0 
0 0 0 0 0 0 0 0 0 
0 0 0 0 0 0 0 0 0 
0 0 0 0 0 0 0 0 0 
0 0 0 1 0 0 0 0 0 
0 0 0 0 0 0 0 0 0 
0 0 0 0 0 0 0 0 0 
1 0 0 0 0 0 1 0 0 
0 0 0 0 0 0 0 0 0 
0 0 0 0 0 0 0 0 0 
0 0 0 0 0 0 0 0 0 
0 0 0 0 0 0 1 0 0 
0 0 0 0 0 0 0 0 0 
0 0 0 1 0 0 0 0 0 
0 0 0 0 0 0 0 0 0 
0 0 0 0 0 0 0 0 0 
0 0 0 0 0 0 0 0 0 
0 0 0 0 0 0 0 0 0 
0 0 0 0 0 0 0 -1 0 
0 0 0 0 0 0 0 0 0 
0 0 0 0 0 0 0 0 0 
0 0 0 0 0 0 0 0 0 
0 0 0 0 0 0 0 0 0 
0 0 0 0 0 0 0 0 0 
0 0 0 0 0 0 0 0 0 
0 0 0 0 0 0 0 0 0 
0 0 0 0 0 0 0 0 0 
0 0 0 0 0 0 0 0 0 
0 0 0 0 0 0 0 0 0 
0 0 0 0 0 0 0 0 0 
0 0 0 0 0 0 0 0 0 
0 0 0 0 0 0 0 0 0 
0 0 0 0 0 0 0 0 0 
0 0 0 0 0 0 0 0 0 
0 0 0 0 0 0 0 0 0 
1 0 0 0 0 0 0 0 0 
0 0 0 0 0 0 0 0 0 
0 0 0 0 0 0 0 0 0 
0 -1 0 0 -1 0 0 0 0 
0 0 0 0 0 0 1 0 0 
0 0 0 0 0 0 0 0 0 
0 0 0 0 0 0 0 0 0 
0 0 0 0 0 0 0 0 0 
0 0 0 0 0 0 0 0 0 
0 0 0 0 0 0 0 0 0 
0 0 0 0 0 0 0 0 0 
0 0 0 0 0 0 0 0 0 
0 0 -1 0 0 0 0 0 0 
0 0 0 0 0 0 1 0 0 
0 0 0 0 0 0 0 0 0 
0 0 0 0 0 0 0 0 0 
0 0 0 0 0 -1 0 0 0 
0 0 -1 0 0 0 0 0 -1 
0 0 0 0 0 -1 0 0 0 
0 0 0 0 0 0 0 0 0 
0 0 0 0 0 0 0 0 0 
0 0 0 0 0 0 0 0 0 
0 0 0 0 0 0 0 0 0 
0 0 0 0 0 0 0 0 1 
0 0 0 0 0 0 0 0 1 
0 0 0 0 0 1 0 1 0 
0 0 0 0 0 0 0 0 0 
0 0 0 0 0 0 0 0 1 
0 0 0 0 0 0 0 0 0 
0 0 0 0 0 0 0 1 0 
0 1 0 0 0 0 0 0 0 
0 0 0 0 0 0 0 0 0 
0 0 0 0 0 0 0 0 0 
0 0 0 0 0 0 0 0 0 
0 0 0 0 0 0 0 0 0 
0 0 0 0 1 0 0 0 0 
0 0 0 0 0 0 0 0 0 
0 0 0 0 0 0 0 0 0 
0 0 0 0 0 0 0 0 0 
0 0 0 0 0 0 0 0 0 
0 0 0 0 0 0 0 1 0 
0 0 0 0 0 0 0 0 0 
0 0 0 0 0 0 0 0 0 
0 0 0 0 0 0 0 0 0 
0 0 0 0 0 0 0 0 0 
0 0 0 0 1 0 0 0 0 
0 0 0 0 0 0 0 0 0 
0 0 0 0 0 0 0 0 0 
0 0 0 0 0 0 0 0 0 
0 0 0 0 0 0 0 0 0 
0 0 0 0 0 0 0 0 0 
0 0 0 0 0 0 0 0 0 
-1 0 0 0 0 0 0 0 0 
0 0 0 0 0 0 0 0 0 
0 0 0 0 0 0 0 0 0 
0 0 0 0 0 0 0 0 0 
0 0 0 0 0 0 0 0 0 
0 0 0 0 0 0 0 0 0 
0 0 0 0 0 0 0 0 0 
0 0 0 0 0 0 -1 0 0 
0 0 0 0 0 0 0 0 0 
0 0 0 0 0 0 0 0 0 
0 0 0 0 0 0 0 0 0 
0 0 0 0 1 0 0 1 0 
0 0 0 0 0 0 0 0 0 
0 0 0 0 0 0 0 0 0 
0 0 0 0 0 0 0 0 0 
0 0 0 0 0 0 0 0 0 
0 0 0 0 0 0 0 0 0 
0 0 0 0 0 0 0 0 0 
0 0 0 0 0 0 0 0 0 
0 0 0 -1 0 0 0 0 0 
0 0 0 0 0 0 0 0 0 
0 0 0 0 0 0 0 0 0 
0 0 0 0 0 0 0 0 0 
0 0 0 -1 1 0 0 0 0 
0 0 0 0 0 0 0 0 0 
0 0 0 0 0 0 0 0 0 
0 0 0 0 0 0 -1 0 0 
0 0 0 0 0 0 0 0 0 
0 0 0 0 0 0 0 0 0 
0 0 0 0 1 0 0 0 0 
0 0 0 0 0 0 0 0 0 
-1 0 0 0 0 0 0 0 0 
0 0 0 0 0 0 0 0 0 
0 0 0 0 0 0 0 0 0 
0 0 0 0 0 0 0 0 0 
0 0 0 0 0 0 0 0 0 
0 0 0 0 0 0 0 0 0 
0 0 0 0 0 0 -1 0 0 
0 0 0 0 0 0 0 0 0 
0 0 0 0 0 0 0 0 0 
0 1 0 0 0 0 0 0 0 
0 0 0 0 0 0 0 0 0 
0 0 0 0 0 0 0 0 0 
0 0 0 0 0 -1 0 0 0 
0 0 0 0 0 0 0 0 0 
0 0 0 0 0 0 0 0 0 
0 0 0 0 0 0 0 0 0 
0 0 0 0 0 -1 0 0 0 
0 0 -1 0 0 0 0 0 -1 
0 0 0 0 0 -1 0 0 0 
0 0 0 0 0 0 0 0 -1 
0 0 0 0 0 -1 0 0 0 
0 0 0 0 0 0 0 0 1 
0 0 0 0 0 0 0 0 0 
0 0 0 0 0 0 0 0 0 
0 0 0 0 0 0 0 0 0 
0 -1 0 0 0 0 0 0 0 
0 0 0 0 0 0 0 0 0 
0 0 0 0 0 0 0 0 0 
0 0 0 0 0 0 0 0 0 
0 0 0 0 0 0 0 0 0 
0 0 0 0 0 0 0 0 0 
0 0 0 0 0 0 0 0 0 
0 0 0 0 0 0 0 0 0 
0 0 0 0 0 0 -1 0 0 
0 0 0 0 0 0 0 0 0 
0 0 0 0 -1 0 0 0 0 
0 0 0 0 0 0 0 0 0 
0 0 0 0 0 0 0 0 0 
0 0 0 0 0 0 0 0 0 
0 0 0 0 0 0 0 0 0 
0 0 0 0 0 0 0 0 0 
0 0 0 0 0 0 0 0 0 
0 0 0 0 0 0 0 0 0 
0 0 0 0 0 0 0 0 0 
0 0 0 0 0 0 -1 0 0 
0 0 0 0 0 0 0 0 0 
0 0 0 0 0 0 0 0 0 
0 0 0 0 -1 0 0 0 0 
0 0 0 0 0 0 0 0 0 
0 0 0 0 0 0 0 0 0 
0 0 0 0 0 0 0 0 0 
0 0 0 0 0 0 0 0 0 
0 -1 0 0 0 0 0 0 0 
0 0 0 0 0 0 0 0 0 
0 0 0 0 0 0 0 0 0 
0 0 0 0 0 0 0 0 0 
0 0 0 0 0 0 0 0 0 
0 0 0 0 0 0 0 0 0 
0 0 0 0 0 0 0 0 0 
0 0 0 0 0 0 0 0 0 
0 0 0 0 0 0 0 0 0 
0 0 0 0 0 0 0 0 0 
-1 0 0 0 0 0 0 0 0 
0 0 0 0 0 0 0 0 0 
0 0 0 0 0 0 0 -1 0 
0 0 0 0 0 0 0 0 0 
0 0 0 0 0 0 0 0 0 
0 0 0 0 0 0 0 0 0 
0 0 0 0 0 0 0 0 0 
0 0 0 0 0 0 0 0 0 
0 0 0 0 0 0 0 0 0 
-1 -1 0 0 0 0 0 0 0 
0 0 0 -1 0 0 0 0 0 
0 0 0 0 0 0 0 0 0 
0 0 0 0 0 0 0 0 0 
0 0 0 0 0 0 0 0 0 
0 0 0 0 0 0 0 0 0 
0 0 0 -1 0 0 0 0 0 
0 0 0 0 0 0 0 0 0 
-1 0 0 0 0 0 0 0 0 
0 0 0 0 -1 0 0 0 0 
0 0 0 0 0 0 0 0 0 
0 0 0 0 0 0 0 0 0 
0 0 0 0 0 0 0 0 0 
0 0 0 0 0 0 0 0 0 
0 0 0 0 0 0 0 0 0 
0 0 0 0 0 0 0 0 0 
0 0 0 0 0 0 0 0 0 
0 0 0 0 0 0 0 0 0 
0 0 0 0 0 0 0 0 0 
0 0 0 0 0 0 0 0 0 
0 -1 0 0 0 0 0 0 0 
-1 0 0 0 0 0 0 0 0 
0 0 0 0 0 0 0 0 0 
0 0 0 0 0 0 0 0 0 
0 0 0 0 0 0 0 0 0 
0 0 0 0 0 0 0 0 0 
0 0 -1 0 0 0 0 0 -1 
0 0 0 0 0 0 0 0 -1 
0 0 -1 0 0 -1 0 0 -1 
0 0 0 0 0 -1 0 0 0 
0 0 0 0 0 -1 0 0 0 
0 0 0 0 0 0 0 0 0 
0 0 0 
v 3 1000 double
3.0683940602 0.063485275466 -0.48968791644 0.80431847759 1.5055342773 0.37768820265 -2.0166160689 2.6640969967 -2.8561122949 
0.075595986878 -1.5647355089 4.3920187751 -2.7289906702 1.3009162538 -2.1145747586 -2.6041325252 -0.23254496574 -0.92306203663 
3.2202032192 0.21240214503 0.27486137644 -0.94402867056 -0.76660190914 -0.64728609334 -0.10660128099 -0.65438255909 -0.21981374024 
-0.4916468007 -0.45365781279 -0.02482919742 3.2359053326 -1.2875751416 -0.057517817546 -0.53249965494 -0.48243569802 -0.87557394931 
2.7536979987 0.98112797526 1.6351763943 3.6378246062 2.9445683856 1.4319036073 0.55380708972 -1.6135958312 0.44553104299 
1.4523313734 -1.9711655711 -1.8560010536 0.88792319784 0.49701045553 -2.0821918087 0.1271459984 -1.1213040225 -1.86305775 
0.4678973068 -0.73747919562 -0.65854114219 0.92396971404 1.3256842914 -0.85265720707 -0.87577623023 2.0348053503 1.0837913511 
0.99587372912 -0.46292538107 -0.36951856479 0.48199122384 -0.97977993166 -0.037420891307 -1.2222359477 -1.0585240414 -0.52344843812 
1.5546587009 1.0616561599 0.56806321919 -0.33057331791 -1.6793061164 0.043197285701 -1.018252278 -1.2007212058 -1.002384717 
1.9921115029 -3.1037621562 -1.2774393259 1.1046345996 -1.15874804 0.38545512373 -0.25064616637 -1.1534059554 -2.9425876934 
-2.1694460116 -1.5917286269 0.078039544581 -2.6590864941 -0.56640986001 0.91426911885 -1.5517447433 -0.32056814037 1.355540721 
1.1252262375 2.1136145682 -2.1033209163 1.2729828341 2.8388915141 -2.1878293645 -0.39963371044 -1.3305553452 1.0756190175 
-0.080542060208 -1.0450059779 2.3517463985 1.9776384899 -1.1458164974 -0.25446128174 0.7494659306 -0.12542371539 -0.38236062882 
1.5998903862 0.31752561514 -2.7033481073 -0.63110693561 -1.1555526354 0.33353225969 -3.5761472163 -0.67364528642 -2.7329511432 
-0.96436117622 -0.2438479745 -0.45037984231 0.37558484413 -1.1344654756 0.54163512559 -1.1214028687 -1.4658179966 0.53251971234 
-1.851697746 -0.36817970595 -1.1000034403 2.2902130065 1.2353585984 -3.0145336336 0.29727239624 0.92362766705 -1.752870315 
4.2097217876 -6.0796794195 -1.2397465048 1.6762291591 -2.5335424835 -1.2016709673 0.0051104303124 0.43487286761 -1.9803044213 
3.5632909108 -0.71665568878 -1.2292367334 -0.6125352077 -2.3353917715 -2.016606413 2.4774871819 0.81304251783 -0.57149189851 
-0.34272675517 -0.12453266649 -1.2429619294 2.3587164511 -0.83484154451 1.7629829122 3.1631874854 -0.53782296449 0.81166733883 
0.077731302672 2.8204852193 -0.91681297924 2.6255700599 -2.561327016 -2.3092949241 -0.72537907156 -1.0852283357 1.4519475467 
-0.0083716853131 -1.3414967826 -2.4548961968 0.93380182754 0.45991543486 0.28194746853 1.7666411563 -1.4847285544 0.088681718569 
-2.1949545142 -3.9087038359 -2.3328398152 -2.3123300652 0.69618091187 -2.7460691982 -0.053191426427 -0.41141294768 -2.6274482507 
-0.45325964796 0.060288331524 2.3693089764 3.7933991085 -1.8437258123 -0.25221458608 3.2455303615 1.9792862116 -3.0387724085 
1.2665921087 -3.3281762243 -3.4666821864 0.52968274122 0.86159842292 -1.4796376799 0.098156122902 -4.2519415347 1.2007397119 
-3.1036496569 -0.49804462417 -2.4256330612 -1.8263342168 -2.503988366 1.0817822269 -4.7635501899 -0.38890719506 -0.06979040327 
-3.4494155406 -4.6724585097 0.03490614048 -2.2545198665 2.8008060432 -0.72237766791 -0.40292200248 0.54386997656 -3.8758042123 
-2.2955863851 -0.7829370957 -1.0931197378 1.7878710052 -2.0389314856 0.27568707879 -1.0393846292 -1.0166546319 -0.3854016739 
0.19219155996 2.2962631213 -1.7393282559 0.77262183837 -1.7373962862 -0.33770022274 0.050088616856 -0.93144012292 -0.83916292117 
0.28576193067 -2.5468470366 -4.1571947113 2.1722430681 -1.5935029064 -2.2972776112 2.8615741811 -1.2121734058 -1.5943051846 
2.6513000847 -0.46455821467 -0.90360189488 -1.5717777591 0.5923220683 -2.9664080483 2.094443472 -1.6518329072 2.904702141 
-0.5300968488 -0.73182292769 -1.6012201945 -1.3557415759 -2.8639196175 1.4357894226 1.0446945279 -0.14137016146 -1.0402046575 
-6.2272813564 1.5197981223 0.70245236314 0.43703228228 -3.3352295422 0.63455681564 0.0075062415465 -2.1601812886 -0.52545036945 
-0.19739050805 1.081336314 0.92576390115 0.45743065783 -0.50660699898 -4.4009720419 -0.18511498325 -1.8121788982 -1.131120198 
0.29008217363 -0.34764940352 -2.4040711229 1.9095459881 -1.1858400669 -1.3735197492 -1.0679396058 -1.1641653709 1.3190408603 
1.0781703238 0.11850017352 -1.6121119474 -1.240776019 -1.6866467147 -2.3650787721 0.36332846902 3.0310408118 -1.8891914932 
2.3283164254 -0.99804896413 2.8613090108 2.6541277805 1.8182763122 -3.222844433 2.9895384343 -0.76427657456 -3.1269628684 
-1.9342713926 1.533141376 -0.44075773627 -0.17508568802 0.23296817154 -0.50720021256 0.20436968509 -6.493469797 2.0165695365 
-1.5974025709 -4.8976734836 4.2345635742 1.2007776439 -1.3714008703 3.1792736716 0.05314190176 -1.6824856491 1.8258142141 
1.6270854311 0.18887106643 -1.1938727257 3.305571133 -1.4834055091 -4.1757060961 2.2974381087 0.49503504794 -0.87745893361 
-1.0171652294 0.036308069999 0.95980988989 0.61628202631 -1.4050334513 -2.3998549174 -0.56638321898 -2.5233646167 -2.8740703532 
0.28018727892 1.209331744 0.27016223035 1.0200169535 1.4348785363 -3.0764683977 0.027240514477 0.085878634575 -1.3316743027 
-0.26284760848 0.71657293474 -0.61429640328 1.0204256681 2.675663093 0.71388771542 2.5566898906 -0.29552867969 1.1273356479 
4.1887740419 -1.713823718 -2.6454959975 -1.9841365187 -0.13821120173 2.2339207102 2.4864483119 0.30277824139 2.1465999306 
0.54072285646 -1.7557988287 -0.36305033604 1.1506753537 -4.634130906 3.8567135724 1.4563296034 0.87256650205 2.0634254464 
3.3223181955 0.97525048598 3.3597939797 3.0520403155 -2.3306302549 -1.7119935352 2.7081010704 1.2203782918 0.096048442834 
1.9634598713 1.1838902982 0.06539050376 -5.0932057511 2.5000006114 -0.62353173636 -0.24956200511 3.0299520394 -1.7375024229 
-0.55704415971 -0.034603464587 -0.65399050316 0.45497289064 2.1441156433 0.5967960007 -1.4870806239 -0.050527617792 -0.015202709715 
-1.4767926987 -1.0875178978 1.0011378528 3.9756582994 2.6183267608 1.3357145074 2.4507403266 0.95935362952 2.9848814678 
5.4952908905 -0.51099109124 -0.83854792666 -1.7874625079 0.82405197993 3.3328701353 -0.83857758928 0.13061515377 -1.178388587 
-0.27850548748 -0.15825659771 2.0322006511 0.69111672978 0.064721236491 -0.71654069969 -0.037000779656 0.68638973151 0.58899570166 
0.47227564379 1.2239648972 0.51887905787 1.2436744081 -1.3872824084 0.13473204578 0.89033873719 0.69802277367 -0.043251156367 
2.7359507378 0.32647287167 1.8713792235 -2.3480052263 0.39092874861 -0.97384349714 -1.0337639145 1.3460090345 0.97487788947 
0.75331591297 -0.52203954622 -0.98244097565 -0.27104271785 0.23116643056 0.89136907368 -0.62840941534 -1.4530032546 0.2889838369 
1.8234700603 -1.4657561381 2.9390985166 0.62097889276 1.5808362486 -0.086673510399 0.49146428036 2.0148881488 2.3291487305 
2.8903272921 0.45197984522 -0.43176526327 0.84170222516 1.1760698668 1.8056615986 -1.1885621195 2.0384753329 -0.51325060212 
0.084677364094 -0.50120634934 1.9385292354 0.51916453052 3.0040805735 3.5965243147 1.3623974048 -2.1126130018 -1.4233187297 
0.057736770738 0.54576641677 0.99451510447 -0.19712909795 -0.3277679742 -1.0090287132 1.2902737303 1.51875355 -1.3223703107 
0.64601518007 -0.66059903481 -1.3741154823 0.90622999957 2.6668830396 -0.29426279191 0.51098142542 1.2201134724 0.63569580364 