# vtk DataFile Version 4.2
Generated by LIGGGHTS
ASCII
DATASET POLYDATA
POINTS 1000 float
3.76364 0.102385 0.231795 0.276741 0.894469 0.269238 1.72719 1.00977 0.556272 
2.72181 0.785886 0.264396 3.65895 1.12462 0.350595 4.5088 0.639583 0.627065 
2.46569 1.73522 0.490215 0.745689 1.9932 0.411906 3.69195 2.11896 0.24563 
4.63816 2.38561 0.447749 0.0634444 2.69625 0.628757 1.6315 2.76456 0.0683818 
2.71641 2.65604 0.182193 4.5885 3.37591 0.579065 0.138805 4.27966 0.475237 
3.55008 4.03984 0.11432 0.905761 0.600869 0.993294 1.73384 0.0556593 0.85831 
2.76731 0.0413948 1.14171 3.62948 0.550825 1.16906 2.77217 1.10558 1.21405 
0.0431076 1.63507 1.19726 4.20871 1.70106 1.0369 3.21287 2.02565 1.11845 
2.86597 2.94919 1.31857 3.77366 2.89394 0.902324 0.945787 3.27387 1.00245 
1.89182 3.69256 0.867842 3.71548 3.88439 1.08831 0.819023 5.02068 0.928181 
1.87385 4.69557 0.851385 2.88436 4.53909 0.699551 4.43717 4.57434 0.671585 
0.658084 1.09282 1.8281 4.57184 0.906811 1.58893 1.57867 1.56866 1.80755 
3.62144 1.35216 1.76733 1.37683 2.44084 1.36148 4.97718 1.96511 1.65319 
0.364522 2.52517 1.60364 4.20368 2.59099 1.75277 2.00415 3.22683 1.74599 
0.297269 4.34227 1.46522 1.25476 4.05609 1.61195 2.74526 3.91793 1.59181 
4.74713 3.94842 1.38801 3.40825 4.72066 1.54441 1.42955 0.521543 2.10822 
2.41946 0.457111 1.98205 3.42842 0.209011 2.09981 4.32658 0.244309 2.54658 
2.01618 1.18711 2.6221 3.00577 1.07557 2.50526 0.078651 1.79662 2.23913 
4.57428 1.25212 2.52743 0.816835 2.34628 2.63387 2.5435 1.88538 2.07253 
3.45889 2.22206 2.30874 1.78776 2.55653 2.45777 2.71753 2.92357 2.37836 
5.00566 2.73601 2.34912 0.145644 3.71754 2.23127 1.0205 3.18128 2.11869 
3.54301 3.38705 2.05611 4.4939 3.59397 2.28819 1.14736 4.03284 2.62773 
2.13983 3.91644 2.45897 0.402107 4.6907 2.42344 3.0056 4.41727 2.43717 
4.00382 4.47154 2.46212 2.39167 0.362787 3.06657 3.44642 0.396608 3.09513 
0.637446 0.990876 2.85923 3.67614 1.58178 3.04933 1.51384 2.12056 3.31885 
2.77887 2.19708 3.07837 4.55904 2.12051 3.0233 3.77984 2.74367 3.23937 
0.530776 3.40483 3.10365 1.48641 3.12776 3.25646 4.63273 3.3479 3.25018 
2.64284 4.144 3.33053 3.68906 3.73828 3.08288 1.41353 4.99185 2.73608 
4.53795 4.61209 3.29578 0.757377 0.0518732 3.44063 1.43618 0.859888 3.45456 
2.87823 1.12957 3.49561 4.24773 1.09345 3.70881 2.27211 1.9724 3.9567 
3.36736 2.098 3.88235 4.95086 1.85688 3.92729 0.497292 2.51963 3.62872 
2.48227 3.15157 3.34899 3.19882 3.53474 3.93211 0.702561 4.29069 3.76664 
1.66267 4.11226 3.54545 3.41785 4.77473 3.37034 2.61482 0.203649 4.07345 
3.52689 0.59659 4.19212 0.69916 0.810327 4.43757 1.70659 0.779775 4.4711 
2.64943 1.12272 4.48127 0.245956 1.6899 4.29246 1.23551 1.5947 4.12303 
3.94812 2.44427 4.62136 4.89105 2.85199 4.08051 0.30619 3.41398 4.10056 
1.81704 3.16097 4.24403 4.11011 3.46493 4.65942 2.33785 4.09697 4.28458 
3.93468 4.20725 4.01131 4.87742 3.911 4.16492 1.4299 4.93542 4.43415 
4.61953 4.87579 4.40189 2.42348 0.172836 5.08316 3.29631 0.652463 5.17465 
4.28546 0.726102 5.04643 1.44317 1.35442 5.24603 3.56507 1.48955 4.65136 
4.55444 1.6636 4.82555 0.600009 2.47586 4.80062 1.58402 2.31398 4.7245 
2.82097 2.19986 4.83661 0.822677 3.43818 4.95955 2.69478 3.19997 4.72968 
1.59322 4.09577 4.95289 3.2213 4.3008 4.70945 0.649436 4.40306 4.76199 
1.73235 0.444349 5.90759 4.92297 0.157446 5.56641 0.792869 0.644378 5.57843 
2.41357 1.10417 5.46445 0.474507 1.58213 5.35239 3.81399 1.54597 5.621 
1.90802 2.18157 5.66138 3.44552 2.49315 5.57914 4.45467 2.46432 5.48471 
0.839186 2.73541 5.73686 2.5253 2.96386 5.84693 0.133507 3.46823 5.68389 
1.6287 3.33442 5.60164 3.41025 3.47233 5.37903 4.49286 3.47598 5.5862 
0.907935 4.12741 5.68829 2.515 3.98963 5.35078 1.8233 4.4352 5.94789 
2.75792 4.80491 5.90298 3.6672 4.89998 5.37512 4.84394 4.40489 5.36656 
0.123739 0.263188 6.23858 1.02629 0.453826 6.65005 4.26551 0.0892052 6.57007 
2.726 1.2289 6.41105 3.50433 0.65411 6.15465 4.46752 0.937417 6.07127 
1.50217 1.35867 6.24433 0.653091 1.91567 6.27899 2.10748 2.07912 6.63602 
4.09664 2.36381 6.41434 0.693447 3.51027 6.51192 3.77561 3.32896 6.50954 
2.54862 3.94279 6.431 3.53382 4.19919 6.07935 0.869108 4.70003 6.51043 
4.39107 4.51962 6.5095 3.44326 0.00250087 7.14073 0.430458 1.21871 6.96066 
1.75905 0.988408 7.13705 2.70599 0.669441 7.25174 3.99495 1.03283 6.9485 
4.74124 1.67243 6.74215 3.20904 2.04187 6.7452 0.924998 2.62222 6.93253 
2.39882 3.02773 6.84525 1.62115 3.74463 6.80458 4.69703 3.51027 6.92415 
0.50972 4.14723 7.26226 3.30568 4.07175 7.07238 1.78365 4.98721 6.79529 
0.646539 0.512125 7.63581 2.0118 0.309437 7.89707 0.5475 1.45447 7.95668 
2.41292 1.70456 7.51196 3.34881 1.32295 7.65452 0.517778 2.4485 7.8435 
3.16037 2.29676 7.81441 4.06465 2.03149 7.38616 1.66126 2.94937 7.71562 
3.93965 3.02274 7.44737 4.9712 2.68705 7.42162 0.100628 3.24629 7.40748 
1.01413 3.71293 8.00888 2.37753 3.93605 7.43061 4.23039 4.22823 7.45518 
1.06098 4.94933 7.51585 2.94496 4.84527 7.67797 3.13808 0.37861 8.14233 
4.03559 0.283021 8.59355 2.08552 1.22712 8.3276 4.24593 1.08096 8.02796 
2.99569 1.57253 8.55622 1.49884 2.04712 8.11746 3.9164 1.96042 8.37595 
3.74555 3.02034 8.58164 4.69303 2.77037 8.37886 2.61005 3.15148 8.0062 
4.96215 3.70813 8.59935 1.90744 3.86852 8.43211 2.79023 4.31631 8.57983 
3.50459 3.8106 8.01703 0.240948 4.88782 8.09135 1.33758 4.71536 8.48837 
3.97156 4.8019 8.3695 1.74622 0.479959 8.89923 2.76506 0.503506 9.08846 
4.95208 0.256119 9.23243 0.343491 0.79845 8.68369 4.65962 1.1721 8.94571 
1.19218 1.34041 8.76617 2.05418 2.02188 8.94882 3.96798 2.33084 9.30454 
0.932134 2.87529 8.72891 1.89567 3.07869 9.04663 2.8807 2.55825 8.77793 
0.0151702 3.28512 8.7646 2.98187 3.50962 9.29019 4.4238 3.22221 9.28944 
0.531631 4.1787 8.75089 3.87271 3.97663 8.93178 2.11737 4.90925 9.16698 
1.7735 0.208179 9.86434 1.13594 1.02693 9.71479 2.1743 1.22043 9.53494 
3.81918 0.814965 9.4131 3.11621 1.57434 9.55056 4.4382 1.5327 9.86004 
0.757042 2.17107 9.42031 3.61865 3.0611 9.91756 0.741559 3.75883 9.83308 
2.21429 3.58065 9.9279 1.56079 4.10377 9.37062 4.63061 4.03866 9.83122 
1.43254 4.92864 9.95876 2.99821 4.72314 9.622 4.00236 4.79613 9.64125 
4.96806 4.98211 9.83372 2.35455 5.28921 0.183899 0.971195 6.015 0.324245 
3.3027 5.62099 0.0903455 2.11207 6.49466 0.0995785 0.91616 7.24551 0.425064 
1.85735 7.46022 0.154162 4.71128 7.4102 0.241493 2.78236 7.83422 0.222034 
3.78027 7.80224 0.163069 0.639128 8.19044 0.605365 4.62329 8.44075 0.29719 
1.24761 8.79415 0.0811966 2.08595 9.21048 0.445518 3.68572 8.85417 0.423938 
0.948312 9.71856 0.321609 2.81792 9.8031 0.105087 4.58938 9.6132 0.641997 
0.728525 6.15568 1.2894 1.62385 5.67906 1.00338 2.57756 6.04781 0.863632 
3.91722 5.89119 0.871391 4.87371 5.80407 1.30965 0.0912473 6.72498 0.679581 
1.574 6.6806 0.949185 2.97258 6.98306 0.920976 3.96993 7.06827 0.90396 
0.244566 7.53737 1.2604 4.36539 7.95734 1.13503 1.94311 8.22974 0.832409 
3.29764 8.1116 1.03374 -0.00581936 8.97968 0.715246 1.01675 8.89767 1.20333 
2.8384 9.01341 1.08796 3.67923 9.55249 1.13976 1.53126 5.01258 1.74317 
2.5298 5.08689 1.86681 4.30422 5.1132 1.75515 2.16715 6.02104 1.9611 
3.20604 5.80755 1.61025 1.31056 6.64871 1.93682 3.96824 6.45339 1.6971 
4.87889 6.79589 1.43717 2.09721 7.19763 1.62954 3.41106 7.31383 1.81899 
1.26097 7.75095 1.50127 1.79492 8.55895 1.80493 2.77693 8.36079 1.85447 
3.78904 8.27246 1.88969 4.5569 8.92091 1.43057 0.335246 9.47791 1.65092 
2.05976 9.5194 1.6489 4.50266 9.90791 1.59438 0.773282 5.56878 2.10867 
3.4539 5.37531 2.49799 4.65086 5.78186 2.49574 0.274956 6.44752 2.26467 
2.87064 6.53016 2.47324 0.551009 7.40714 2.20559 1.56967 7.41326 2.52802 
4.37818 7.39813 2.05896 2.55173 7.58557 2.45087 0.812651 8.77931 2.22015 
3.08752 9.25725 2.17191 4.17278 9.04266 2.4071 0.18716 9.96668 2.51194 
1.19016 9.64985 2.53583 0.366768 5.77949 3.00374 1.46973 5.99129 2.69066 
2.54953 5.65439 2.83641 0.923684 6.78382 2.96618 2.20047 6.65819 3.20521 
3.82788 6.32136 2.67933 4.62832 6.37362 3.33502 3.17154 7.23638 3.16025 
4.16574 7.20095 3.01604 0.685255 7.95225 3.03332 1.56084 8.38898 2.76217 
2.51553 8.48384 3.0481 3.46693 8.25912 2.83645 4.46488 8.13691 2.82565 
0.412424 8.95722 3.26291 3.49995 9.21877 3.14841 2.23387 9.4645 2.65583 
0.986185 5.27031 3.6022 2.07722 5.04526 3.48668 4.03172 5.56438 3.35461 
5.00667 5.45762 3.55194 1.5935 6.05541 3.7239 3.01845 5.64992 3.74553 
0.622734 6.3458 3.82039 3.65365 6.41569 3.84655 0.214199 7.34372 3.91263 
1.25374 7.1208 3.85444 3.81526 7.39868 3.93437 1.06973 8.10431 3.96504 
2.13366 7.63462 3.41293 4.84731 7.51644 3.77871 1.97876 8.58508 3.96848 
3.93331 8.38634 3.83069 1.38595 9.14658 3.39103 2.58781 9.30286 3.62982 
4.59033 8.98055 3.36596 1.6614 9.97873 3.87235 4.21279 9.89715 3.49949 
0.20566 5.15565 4.27354 2.23336 5.52555 4.35533 3.64924 5.14213 4.35221 
4.34598 5.86138 4.31115 1.56854 6.61377 4.66676 2.51146 6.47565 4.21397 
2.82634 7.4188 4.10761 1.8963 7.67445 4.38414 2.96263 8.40884 4.07196 
4.87651 8.45055 4.16424 0.684398 8.82817 4.53971 2.29929 9.30094 4.59369 
0.8168 9.81812 4.4787 3.33829 9.37843 4.29066 4.17262 9.89555 4.49872 
0.0486709 5.07507 5.26141 2.0654 5.10704 5.24788 4.546 5.3693 5.2787 
0.839507 5.75972 4.75991 2.5779 5.97919 5.18421 3.64907 5.85175 5.06822 
0.635943 6.86264 5.02639 3.30671 6.73987 4.76071 4.50322 6.36873 5.1615 
2.42874 7.28792 5.14089 0.48047 7.85128 4.73253 1.33781 8.09233 5.20182 
3.39385 7.65996 5.14278 4.2737 7.87899 4.72097 2.30231 8.31451 5.03643 
3.24538 8.64523 5.00161 4.16029 8.90721 4.69456 1.12076 5.18652 5.56624 
0.30065 6.03493 5.55658 1.36789 6.16778 5.53903 2.28304 6.62664 5.88733 
3.64911 6.66383 5.74501 0.450065 6.91676 6.00848 1.44687 7.16473 5.56239 
4.50929 7.18974 5.82939 0.336506 8.24621 5.64198 4.60287 8.20573 5.62944 
0.263507 9.382 5.78597 1.13072 8.81105 5.86745 2.6369 9.24113 5.53346 
3.68756 8.89977 5.86171 4.60284 9.21047 5.60533 1.17851 9.73179 5.40697 
3.80791 9.82118 5.42693 0.141583 5.33719 6.25588 3.87435 5.33644 6.25297 
1.04769 5.75036 6.38947 2.0533 5.6519 6.094 3.07247 5.89844 6.05008 
[...]
POINT_DATA 1000
FIELD FieldData 7
id 1 1000 int
43 5 37 36 404 927 418 541 142 
175 7 501 20 147 607 152 561 49 
588 61 70 26 762 263 600 521 1 
531 242 116 605 117 635 551 776 30 
50 504 674 41 872 526 860 610 109 
646 597 562 663 87 235 566 589 518 
592 17 283 766 508 255 419 891 519 
272 659 251 841 768 365 899 74 105 
644 79 42 84 408 783 758 765 749 
358 752 368 154 673 197 584 515 294 
571 698 302 269 286 253 767 979 114 
268 78 608 546 570 583 510 215 774 
744 669 769 177 193 866 647 782 277 
848 554 12 361 68 578 110 755 276 
764 262 324 279 338 833 44 104 274 
594 532 558 97 577 325 296 322 214 
318 814 285 292 664 164 85 123 473 
559 867 488 543 512 27 54 278 28 
702 284 307 680 880 557 556 747 280 
482 393 128 529 580 658 797 630 816 
13 170 540 162 53 505 424 656 11 
139 641 72 602 742 511 323 737 535 
45 539 746 450 542 300 612 134 148 
729 596 736 503 57 567 940 25 32 
379 544 939 67 874 892 547 21 922 
236 634 129 120 229 125 62 24 626 
288 130 759 909 601 604 603 121 234 
107 628 999 237 586 579 238 225 585 
714 477 150 362 99 975 548 80 52 
534 48 568 88 86 77 696 963 869 
81 718 839 100 654 22 538 694 133 
51 59 111 73 144 240 625 115 140 
750 716 560 593 661 187 46 574 3 
188 591 854 138 633 367 174 845 884 
502 662 29 75 581 167 169 862 849 
717 378 160 638 402 172 35 108 684 
192 301 349 173 598 582 356 380 141 
629 375 639 842 149 360 648 565 682 
636 40 676 354 182 840 377 82 846 
259 261 415 157 384 171 180 920 342 
353 199 357 195 851 838 778 281 652 
369 791 190 254 155 446 637 426 198 
830 291 347 858 836 813 781 788 945 
660 313 917 795 186 934 178 181 10 
330 331 685 868 312 153 406 902 297 
456 919 948 335 470 474 329 856 822 
821 949 126 372 47 789 211 835 321 
916 453 675 943 686 363 256 827 552 
573 317 314 935 334 348 933 709 857 
463 91 870 988 998 689 223 15 993 
957 219 938 332 66 971 825 807 196 
954 224 863 958 969 875 961 745 507 
555 966 590 206 972 691 996 831 688 
994 479 861 533 63 33 69 599 103 
820 337 997 471 90 727 210 18 563 
809 953 231 58 486 374 233 239 520 
60 720 991 391 523 9 616 439 879 
509 723 606 101 611 328 730 146 692 
981 194 132 522 873 631 655 370 420 
399 484 995 621 640 405 136 970 624 
575 311 881 650 449 843 651 469 289 
423 620 102 912 524 14 71 719 929 
385 2 264 657 777 383 345 8 431 
815 89 413 16 34 228 386 23 56 
295 896 468 801 165 681 645 877 304 
310 290 94 832 928 545 952 712 904 
695 763 207 476 802 623 748 113 106 
834 257 757 775 743 184 478 425 452 
410 923 320 436 649 352 779 790 670 
819 818 1000 258 536 359 808 738 351 
306 489 443 461 679 678 305 806 326 
55 355 677 707 553 4 859 6 247 
985 65 499 667 665 699 576 230 513 
241 308 202 900 564 340 703 826 829 
38 371 462 448 666 200 179 710 208 
706 506 191 220 587 810 527 989 595 
343 496 700 222 671 895 209 715 725 
704 642 217 271 549 168 64 693 98 
708 218 722 690 212 201 221 528 572 
733 244 205 95 672 216 481 804 741 
705 734 246 724 92 721 227 112 735 
245 726 156 982 976 622 119 344 713 
490 487 732 31 990 530 924 252 514 
632 683 248 226 855 653 491 668 127 
465 962 131 760 968 955 805 445 525 
828 327 823 977 243 614 847 364 617 
392 619 299 494 480 475 956 93 817 
350 341 853 232 615 492 852 740 918 
613 76 516 493 973 466 498 96 395 
316 983 761 773 366 267 569 396 794 
986 401 890 137 83 844 495 886 387 
811 731 728 786 485 145 517 250 166 
249 756 394 885 889 376 905 894 914 
151 796 381 143 984 282 260 987 897 
437 400 265 609 784 865 771 798 903 
398 403 275 389 293 753 382 432 754 
785 921 871 812 770 333 273 163 39 
907 390 876 882 298 887 772 500 319 
417 878 185 780 901 159 992 428 161 
422 411 942 430 751 883 906 414 793 
893 898 433 438 397 427 457 409 442 
435 915 925 309 908 412 388 926 792 
888 951 429 701 189 447 451 287 967 
739 787 440 407 459 910 416 803 434 
913 937 176 421 346 978 946 467 931 
965 799 944 800 441 950 941 183 203 
270 373 118 458 947 483 537 550 454 
959 455 497 837 460 687 204 697 643 
711 122 936 911 964 158 960 336 974 
444 824 850 315 618 980 135 124 19 
213 932 627 266 930 472 464 303 864 
339 
type 1 1000 int
1 1 1 1 1 2 1 2 1 
1 1 2 1 1 2 1 2 1 
2 1 1 1 2 1 2 2 1 
2 1 1 2 1 2 2 2 1 
1 2 2 1 2 2 2 2 1 
2 2 2 2 1 1 2 2 2 
2 1 1 2 2 1 1 2 2 
1 2 1 2 2 1 2 1 1 
2 1 1 1 1 2 2 2 2 
1 2 1 1 2 1 2 2 1 
2 2 1 1 1 1 2 2 1 
1 1 2 2 2 2 2 1 2 
2 2 2 1 1 2 2 2 1 
2 2 1 1 1 2 1 2 1 
2 1 1 1 1 2 1 1 1 
2 2 2 1 2 1 1 1 1 
1 2 1 1 2 1 1 1 1 
2 2 1 2 2 1 1 1 1 
2 1 1 2 2 2 2 2 1 
1 1 1 2 2 2 2 2 2 
1 1 2 1 1 2 1 2 1 
1 2 1 2 2 2 1 2 2 
1 2 2 1 2 1 2 1 1 
2 2 2 2 1 2 2 1 1 
1 2 2 1 2 2 2 1 2 
1 2 1 1 1 1 1 1 2 
1 1 2 2 2 2 2 1 1 
1 2 2 1 2 2 1 1 2 
2 1 1 1 1 2 2 1 1 
2 1 2 1 1 1 2 2 2 
1 2 2 1 2 1 2 2 1 
1 1 1 1 1 1 2 1 1 
2 2 2 2 2 1 1 2 1 
1 2 2 1 2 1 1 2 2 
2 2 1 1 2 1 1 2 2 
2 1 1 2 1 1 1 1 2 
1 1 1 1 2 2 1 1 1 
2 1 2 2 1 1 2 2 2 
2 1 2 1 1 2 1 1 2 
1 1 1 1 1 1 1 2 1 
1 1 1 1 2 2 2 1 2 
1 2 1 1 1 1 2 1 1 
2 1 1 2 2 2 2 2 2 
2 1 2 2 1 2 1 1 1 
1 1 2 2 1 1 1 2 1 
1 2 2 1 1 1 1 2 2 
2 2 1 1 1 2 1 2 1 
2 1 2 2 2 1 1 2 2 
2 1 1 2 1 1 2 2 2 
1 1 2 2 2 2 1 1 2 
2 1 2 1 1 2 2 2 1 
2 1 2 2 2 2 2 2 2 
2 2 2 1 2 2 2 2 2 
2 1 2 2 1 1 1 2 1 
2 1 2 1 1 2 1 1 2 
2 2 1 1 1 1 1 1 2 
1 2 2 1 2 1 2 1 2 
2 2 2 1 2 1 2 1 2 
2 1 1 2 2 2 2 1 1 
1 1 2 2 2 1 1 2 2 
2 1 2 2 1 2 2 1 1 
1 2 1 2 2 1 1 2 2 
1 1 1 2 2 1 1 1 1 
2 1 1 1 1 1 1 1 1 
1 2 1 2 1 2 2 2 1 
1 1 1 2 2 2 2 2 2 
2 2 1 1 2 2 2 1 1 
2 1 2 2 2 1 1 1 1 
1 2 1 1 2 1 2 2 2 
2 2 2 1 2 1 2 2 1 
1 1 1 1 2 2 1 2 1 
1 1 2 2 2 1 2 1 1 
2 1 1 2 2 2 2 1 2 
1 1 1 2 2 1 2 2 2 
1 1 1 1 2 1 1 2 1 
2 2 1 1 2 2 2 2 2 
1 1 2 1 2 2 1 2 2 
2 2 1 1 2 1 1 2 1 
2 1 2 2 1 1 1 2 2 
2 1 1 1 2 1 1 2 2 
2 2 1 2 1 2 1 1 2 
1 2 1 2 2 2 1 1 2 
1 1 2 1 2 2 2 1 2 
2 2 1 1 2 2 1 2 1 
1 2 1 2 2 2 2 1 2 
2 1 2 2 1 2 2 1 2 
1 2 1 1 1 1 2 1 2 
1 1 2 1 2 1 2 2 2 
2 1 2 1 2 1 1 1 1 
1 2 2 2 1 1 2 1 2 
2 1 2 1 1 2 1 2 1 
2 2 2 2 1 1 2 1 1 
1 2 1 2 2 1 2 2 2 
1 2 1 1 2 1 1 2 2 
1 1 1 2 2 2 2 2 2 
1 1 1 1 1 2 1 1 2 
2 2 2 2 2 1 1 1 1 
2 1 2 2 1 2 2 1 1 
1 2 1 2 2 1 2 1 1 
1 1 2 1 2 2 2 1 2 
2 2 1 1 1 1 1 1 1 
1 2 2 1 2 1 1 2 2 
2 2 1 2 1 1 1 1 2 
2 2 1 1 1 2 1 2 1 
2 2 1 1 1 2 2 1 2 
2 2 2 2 1 2 2 1 1 
1 1 1 1 2 1 2 2 1 
2 1 1 2 1 2 1 2 2 
2 1 2 2 2 1 2 1 2 
1 2 2 1 2 2 1 1 1 
1 2 2 1 2 1 1 1 2 
1 
i 3 1000 int
0 0 0 0 0 0 0 0 0 
0 0 0 1 0 0 1 0 0 
1 0 0 0 0 0 0 0 0 
0 0 0 0 0 0 0 0 0 
0 0 0 0 0 0 0 0 1 
0 0 0 0 0 0 0 0 0 
0 0 0 0 0 0 0 0 0 
0 0 0 1 0 0 1 0 0 
0 0 1 0 0 0 0 0 0 
0 0 0 0 0 1 0 0 1 
0 0 1 0 0 1 0 0 0 
0 0 0 1 0 0 0 0 0 
0 0 0 0 0 0 0 0 0 
0 0 0 1 0 0 0 0 0 
1 0 1 0 0 1 0 0 1 
0 0 0 0 0 1 0 0 0 
0 1 0 0 0 0 0 0 0 
0 0 0 0 0 0 0 0 0 
0 0 0 0 0 0 1 0 0 
1 0 0 0 0 0 1 0 0 
1 0 0 1 1 0 0 0 0 
1 0 0 0 0 0 1 0 0 
1 0 1 1 0 0 1 0 1 
1 0 0 0 0 0 0 0 0 
0 1 0 0 0 0 0 0 0 
0 0 0 1 0 0 1 0 0 
1 0 0 1 0 0 1 0 0 
1 0 1 1 0 0 1 0 1 
0 0 0 0 1 0 0 1 0 
0 0 0 0 0 -1 1 0 0 
0 0 0 0 0 0 1 0 0 
1 0 0 1 0 0 1 0 0 
1 0 0 1 0 1 0 0 0 
0 0 -1 0 0 0 0 0 0 
0 0 -1 0 0 0 0 0 0 
0 0 -1 0 0 0 1 0 0 
1 0 0 0 0 0 1 0 0 
0 0 0 0 0 0 1 0 1 
0 0 0 0 0 -1 0 0 -1 
0 0 0 0 0 -1 0 0 -1 
0 0 0 0 0 0 0 0 0 
0 0 0 1 0 0 1 0 0 
1 0 0 1 0 0 1 0 0 
0 0 -1 0 0 0 0 0 0 
0 0 -1 0 0 0 0 0 -1 
0 0 0 0 0 -1 0 0 -1 
0 0 0 0 0 0 1 0 0 
1 0 0 1 0 0 0 0 0 
1 0 0 1 0 0 1 0 0 
1 0 0 0 0 0 0 0 0 
0 0 0 0 0 0 0 1 0 
0 0 -1 0 0 0 0 1 0 
0 0 -1 0 0 -1 0 0 -1 
0 0 -1 1 0 0 0 0 -1 
0 0 0 1 0 0 1 0 0 
0 0 0 0 1 -1 0 0 -1 
0 0 -1 0 0 -1 0 0 -1 
0 1 0 1 0 -1 0 0 0 
0 0 -1 0 0 0 0 0 -1 
1 0 0 0 0 -1 1 0 0 
0 0 -1 0 1 -1 0 0 -1 
0 0 -1 0 0 -1 0 0 -1 
1 0 -1 0 0 -1 0 0 -1 
0 0 -1 0 0 -1 0 0 0 
0 0 0 0 0 0 0 0 -1 
1 0 0 0 0 0 0 0 -1 
0 0 -1 0 0 -1 0 0 -1 
1 0 -1 0 0 -1 1 0 -1 
0 0 -1 0 0 -1 0 0 -1 
0 0 0 0 0 0 0 0 0 
0 0 -1 0 0 0 0 0 0 
0 0 0 0 0 -1 0 0 -1 
0 1 0 0 0 -1 1 0 -1 
0 0 -1 1 0 -1 1 0 -1 
0 0 -1 0 0 -1 1 0 -1 
0 1 0 0 0 -1 0 0 -1 
0 0 0 0 0 0 0 0 0 
0 0 -1 0 0 -1 0 0 -1 
1 0 -1 0 0 -1 1 0 -1 
1 0 -1 0 0 0 0 0 0 
0 0 0 0 0 0 0 0 0 
0 0 0 0 0 -1 0 0 0 
0 0 0 0 0 1 0 0 1 
0 0 1 0 0 1 0 0 1 
0 0 1 0 0 1 0 0 0 
0 -1 1 0 0 1 0 0 1 
0 -1 0 0 -1 0 0 -1 0 
0 -1 0 0 -1 0 0 -1 0 
0 0 1 0 0 1 0 0 1 
0 0 1 0 0 1 1 0 1 
0 0 1 0 0 1 0 -1 1 
0 0 1 0 0 0 0 -1 0 
0 -1 0 0 0 1 0 0 0 
0 -1 0 0 -1 0 0 0 1 
0 0 1 0 0 0 0 0 1 
0 0 0 0 0 1 0 0 0 
0 -1 0 0 0 1 0 -1 0 
0 0 1 0 0 0 0 0 0 
0 -1 0 0 -1 0 0 -1 0 
0 0 0 0 -1 0 1 0 1 
0 0 0 0 0 0 1 0 1 
0 0 0 1 0 1 1 0 0 
0 -1 0 0 0 0 0 -1 0 
0 -1 0 0 -1 0 0 0 0 
0 0 0 1 0 1 1 0 1 
0 0 1 1 0 1 0 0 0 
0 0 0 0 0 0 0 0 0 
0 -1 0 0 0 1 0 0 0 
0 0 0 0 -1 0 0 -1 0 
0 0 0 0 -1 0 0 -1 0 
1 0 1 1 0 1 0 0 0 
0 0 0 1 0 1 0 0 0 
1 0 1 0 0 0 1 0 1 
0 0 0 0 -1 0 0 0 0 
0 0 0 0 -1 0 0 0 0 
0 -1 0 0 0 0 0 -1 0 
0 -1 0 0 -1 0 0 -1 0 
1 0 0 1 0 0 1 0 0 
0 0 0 1 0 0 0 0 0 
0 0 0 1 0 0 0 -1 0 
0 -1 0 0 0 0 0 -1 0 
0 0 0 0 -1 0 0 -1 0 
1 0 0 1 0 0 0 0 0 
1 0 1 1 0 0 0 0 0 
1 0 0 0 0 0 0 0 0 
0 0 0 1 0 0 0 0 0 
0 -1 0 0 -1 0 0 -1 0 
0 -1 0 0 -1 0 1 0 0 
1 0 0 1 0 0 1 0 0 
0 0 0 1 0 0 1 0 0 
0 -1 0 0 0 0 0 0 0 
0 0 0 0 0 0 0 -1 -1 
0 -1 0 0 -1 0 0 0 0 
0 -1 0 1 0 0 0 0 0 
1 0 0 1 0 0 1 0 0 
0 0 0 1 0 0 1 0 0 
0 -1 0 1 0 0 0 0 0 
0 -1 0 0 -1 0 0 -1 0 
0 -1 0 0 0 0 0 -1 0 
0 -1 0 0 -1 -1 1 0 0 
0 0 0 1 0 0 1 0 0 
0 0 0 1 0 0 0 0 0 
0 0 0 0 0 0 0 -1 0 
0 -1 -1 0 -1 0 0 -1 -1 
0 0 0 1 0 0 1 0 0 
0 0 0 0 -1 0 1 0 0 
1 0 0 0 0 0 0 -1 0 
0 0 0 0 0 0 0 -1 0 
0 0 0 0 0 0 0 0 0 
0 0 0 0 -1 -1 0 0 0 
0 0 0 0 0 0 0 0 0 
1 0 0 0 0 0 0 0 0 
1 0 0 1 0 0 0 0 0 
0 0 0 0 0 0 0 -1 0 
0 0 0 0 0 0 0 0 -1 
0 0 0 0 -1 -1 0 -1 -1 
0 -1 -1 0 0 0 0 0 0 
0 0 0 0 0 0 0 0 0 
0 0 0 1 0 0 0 0 0 
0 0 0 0 0 0 0 -1 0 
0 -1 -1 0 -1 -1 0 -1 -1 
0 -1 -1 0 0 0 0 0 0 
0 -1 0 1 0 0 0 0 0 
0 0 0 0 0 0 0 0 0 
0 0 0 0 -1 -1 0 0 0 
0 -1 -1 0 0 0 0 0 0 
0 -1 -1 0 0 0 0 1 1 
-1 1 1 -1 1 1 -1 0 0 
0 0 0 -1 1 1 0 1 1 
0 1 0 -1 0 0 -1 0 0 
0 0 0 0 0 0 0 1 0 
-1 0 0 0 0 1 -1 0 1 
0 0 0 -1 1 0 0 1 1 
-1 1 1 -1 1 0 0 0 0 
0 1 1 0 0 0 -1 1 0 
-1 0 0 0 1 0 0 0 0 
0 0 0 0 -1 1 0 0 0 
0 1 0 0 1 1 0 1 1 
-1 1 0 -1 1 0 0 1 0 
-1 1 0 0 0 0 0 0 0 
0 0 0 0 0 0 0 1 0 
0 0 0 0 0 0 0 0 1 
0 0 0 0 0 0 0 0 0 
0 0 0 0 0 0 0 0 0 
0 1 0 0 0 0 -1 0 0 
-1 0 0 0 0 0 0 0 0 
0 1 0 -1 0 0 0 0 0 
0 0 0 0 0 0 0 0 0 
0 0 0 0 -1 0 0 0 0 
0 0 0 0 0 0 0 1 0 
-1 0 0 -1 0 0 0 0 0 
0 1 0 -1 0 0 0 0 0 
0 0 0 0 1 0 0 0 0 
0 0 0 0 0 0 0 0 0 
0 0 0 0 0 0 0 0 0 
0 0 0 0 0 0 0 0 0 
0 0 0 0 1 0 -1 0 0 
0 0 0 0 0 0 0 1 0 
0 0 0 0 0 0 0 0 0 
0 0 0 0 0 0 0 0 0 
0 0 0 0 0 0 0 0 0 
0 0 0 0 0 0 0 0 0 
0 0 0 0 0 0 0 0 0 
0 0 0 0 0 0 0 0 0 
0 0 0 0 0 0 0 0 0 
0 1 0 -1 1 0 0 0 0 
0 0 0 0 0 0 -1 1 0 
0 0 0 0 0 0 0 0 0 
0 0 0 -1 0 0 0 0 0 
0 0 0 0 0 0 0 0 0 
0 0 0 0 0 0 0 0 0 
0 0 0 -1 1 0 -1 1 0 
0 0 0 0 0 0 0 0 0 
-1 0 0 0 0 0 -1 1 0 
-1 1 0 -1 0 0 0 0 -1 
0 0 0 0 0 -1 0 0 0 
0 0 0 -1 0 0 0 1 0 
-1 1 0 -1 1 0 -1 1 0 
-1 0 0 -1 1 0 0 0 -1 
-1 1 0 0 0 0 -1 1 0 
0 0 -1 -1 0 0 0 0 0 
0 0 0 0 0 0 0 0 0 
0 0 -1 0 0 0 0 1 0 
0 1 0 -1 1 0 -1 1 0 
-1 1 0 -1 1 0 -1 1 0 
-1 1 0 -1 0 -1 -1 1 0 
-1 1 0 -1 0 0 0 0 0 
0 0 -1 0 1 0 0 0 0 
0 0 0 0 1 0 -1 1 0 
-1 1 0 -1 1 0 0 1 -1 
-1 1 0 -1 1 0 -1 1 0 
-1 1 0 0 0 -1 -1 1 0 
0 0 -1 -1 0 0 0 0 -1 
-1 0 0 -1 1 0 -1 1 0 
-1 1 0 -1 1 0 -1 1 0 
-1 1 0 -1 1 0 -1 1 0 
-1 1 0 -1 0 -1 0 0 -1 
-1 1 0 -1 1 0 -1 1 0 
-1 0 0 0 0 -1 -1 1 0 
0 1 0 0 1 0 -1 1 0 
-1 1 0 -1 1 0 -1 1 0 
-1 1 0 0 0 -1 -1 1 0 
-1 1 0 -1 0 0 -1 1 0 
-1 1 0 -1 1 0 0 0 -1 
0 1 0 0 0 0 0 0 -1 
-1 0 0 0 1 0 -1 1 0 
0 1 0 0 1 0 -1 1 0 
-1 0 -1 1 0 0 -1 0 -1 
1 0 -1 0 0 -1 -1 0 -1 
0 0 -1 0 0 -1 -1 1 0 
-1 1 0 0 -1 1 0 0 0 
0 0 1 0 0 0 -1 0 1 
0 0 1 0 0 1 0 0 0 
0 0 0 0 0 1 0 0 1 
0 0 1 0 0 1 0 0 0 
0 0 1 0 0 1 0 0 1 
0 0 1 -1 0 1 0 0 0 
0 0 1 0 0 1 0 0 0 
0 0 0 0 0 0 0 0 0 
0 0 1 0 0 1 0 0 1 
0 0 1 -1 0 1 0 -1 0 
0 0 1 0 0 1 0 0 1 
0 0 1 0 0 0 0 0 1 
0 0 1 0 0 1 0 0 0 
0 0 0 -1 0 1 0 0 0 
0 0 1 0 0 1 0 0 1 
0 0 1 0 -1 0 0 0 0 
0 0 0 0 0 1 0 0 0 
0 -1 0 0 0 1 0 0 0 
0 -1 0 0 0 0 0 0 0 
0 0 1 0 0 0 0 0 0 
-1 0 0 0 -1 0 0 0 1 
0 0 1 0 0 0 0 0 0 
0 0 0 0 0 1 0 0 1 
0 0 0 0 0 1 0 0 0 
0 0 0 0 -1 0 0 0 0 
0 0 0 0 -1 0 0 0 0 
0 0 0 0 0 0 0 0 1 
0 0 0 0 0 0 0 0 0 
0 0 0 0 0 0 0 0 0 
0 0 0 0 0 1 0 0 0 
0 0 0 0 0 1 0 0 0 
0 0 0 0 0 0 0 0 0 
0 0 1 0 -1 0 0 0 1 
0 0 0 0 -1 0 0 0 0 
0 0 0 0 0 0 0 -1 0 
0 0 0 0 0 0 0 0 0 
0 0 0 0 0 0 0 0 0 
0 -1 0 0 0 0 0 0 0 
0 -1 0 0 0 0 0 -1 0 
0 0 0 -1 0 0 0 -1 0 
0 0 0 0 0 0 0 0 0 
0 0 0 0 -1 0 0 0 0 
0 0 0 0 0 1 0 -1 0 
0 0 0 0 0 0 -1 0 0 
0 -1 0 0 0 0 0 0 0 
0 0 0 0 0 0 0 0 0 
0 0 0 0 0 0 0 0 0 
0 0 0 0 -1 0 0 0 0 
0 0 0 0 0 0 0 0 0 
0 0 0 0 0 0 0 0 0 
0 0 0 0 0 0 0 0 0 
0 0 0 0 0 0 0 0 0 
0 0 0 0 0 0 0 0 0 
0 0 0 0 0 0 0 0 0 
0 0 0 0 0 0 0 -1 0 
0 0 0 0 0 0 0 0 0 
-1 0 0 -1 0 0 0 0 0 
0 0 0 0 0 -1 0 0 0 
0 0 0 0 -1 0 0 0 0 
0 0 0 0 0 0 0 0 0 
0 0 0 0 -1 0 0 0 0 
0 0 0 0 0 0 -1 0 0 
0 0 0 0 0 0 0 0 0 
0 0 0 0 0 0 0 0 0 
0 0 0 0 0 0 0 0 0 
0 0 0 0 0 0 0 0 0 
0 0 0 -1 0 0 -1 0 0 
0 0 -1 0 0 0 -1 0 0 
0 0 0 0 0 0 0 0 0 
0 0 -1 0 0 -1 0 0 0 
0 0 0 0 0 0 0 0 0 
0 0 0 0 0 0 -1 0 0 
-1 0 0 -1 0 0 0 0 -1 
0 0 0 -1 0 0 0 0 0 
0 0 -1 0 0 0 0 0 -1 
0 0 0 0 0 0 0 0 0 
0 0 0 0 0 0 0 0 0 
0 0 0 0 0 -1 0 1 0 
0 0 -1 -1 0 0 0 0 -1 
-1 1 0 0 0 0 0 0 -1 
0 0 -1 0 0 0 0 0 0 
0 0 0 0 0 0 0 0 0 
0 0 0 
v 3 1000 double
-0.027532870049 -0.022690602263 -0.044875571209 -0.020110015243 0.059136523627 0.0050244503865 -0.023476951619 0.014224554329 -0.050818828487 
-0.020911837024 -0.01753839823 -0.063458992072 -0.013312303249 -0.03719930279 -0.06237024904 -0.0243003612 -0.043531888729 -0.022751031922 
-0.016854826084 -0.013010449021 -0.05830941425 0.002189924616 0.020809106444 -0.02644415502 -0.0063563264439 -0.038080789972 -0.044343118759 
-0.011871933205 -0.017675929683 -0.028821443429 0.017129660871 0.027943424506 0.00098273545899 0.02569122466 0.0039506572618 -0.02629513609 
0.0087719803483 -0.01016804568 -0.037182216274 0.012542573644 -0.018502988878 -0.0076917904567 0.019304941437 0.031437688134 0.026437142803 
0.020800625187 -0.04021159481 0.014104027762 -0.011705929832 0.014418828206 -0.015055657161 -0.004525979627 0.027673677679 -0.029802271189 
0.005920658556 -0.030621009383 -0.047941279174 0.002497178277 -0.02596358294 -0.053881336756 0.0022207263094 -0.015581025288 -0.062724498295 
0.012353840181 0.042627450616 -0.012322235396 0.009150677442 -0.050060335171 -0.05069969745 -0.0092746560495 -0.03136171235 -0.045040868741 
0.025753335575 -0.021059453225 -0.011375127987 0.014177210585 -0.040361394805 -0.034243795027 0.033683517839 0.025778674148 -0.0047264761082 
0.038612045256 0.018792464756 -0.0069538247218 0.022502772184 -0.04235710589 0.013658442685 0.041594391943 0.053979415314 0.010652171647 
0.036610209955 0.010723622946 0.027455459807 0.034769418803 -0.028343863802 -0.0018350928945 0.028083699613 -0.040115928036 -0.025799875967 
0.0033786935521 0.01615313392 -0.012207808364 0.0062089745285 -0.040446693382 -0.025489878065 0.016608925845 0.0017658318144 -0.045687955212 
-0.013076540608 -0.024915014082 -0.055957776998 0.029220342643 0.017833610513 -0.021555477197 -0.00308796717 -0.032679618412 -0.010335958849 
0.024134435008 0.024670267238 0.0074441716494 0.0038848703684 -0.020979053103 -0.021073102155 0.026303410539 0.00052625077084 -0.013434761252 
0.050250875377 0.04914245703 0.022076992092 0.045934200073 0.0094696883964 -0.0017460573985 0.012088236642 -0.022091072305 0.0076968713652 
0.039891773871 -0.017105149254 -0.0086845065756 0.023351057878 -0.040945663108 0.011756082266 0.0049738300427 0.0017501305962 -0.043277643439 
0.0023955560463 -0.016867860582 -0.057383083501 0.0099479703117 -0.025082537293 -0.079320424771 -0.017408589357 -0.045757161525 -0.020484388762 
0.00037669953964 -0.003950198401 -0.039106613398 -0.0016070742934 -0.021526207673 -0.046606780092 0.022050941904 0.019413492687 0.0053247703502 
0.0080987663057 -0.039325551067 -0.025892508365 0.0360068031 0.012754409197 -0.0040781032691 -0.0012623067994 -0.022019674913 -0.068760148077 
-0.013043590698 -0.034513032762 -0.038632209181 0.036939758248 -0.007322217183 -0.016203289097 0.031226002934 -0.0030609948193 -0.018270723112 
0.016030199542 -0.048396955885 -0.027975715556 0.062196297601 0.029320353037 0.0085380643947 0.052040364905 0.015881744297 8.8611390369e-05 
0.038851406616 -0.035057687319 -0.033417452106 0.036216280629 -0.03687206359 -0.017247742164 0.040057405753 0.017072416342 0.0015353496824 
0.036406008911 -0.019707436015 0.0075401004869 0.050658547729 0.039305328231 0.035645538684 0.04486080622 -0.033953065343 0.0082958877487 
0.044863337763 -0.031999335249 0.0053927165757 -0.023541994821 -0.030344133901 -0.058681917816 -0.0088785649614 -0.049340952184 -0.068083662689 
0.0052767024874 0.039379382935 -0.019535829111 0.0010856132915 -0.038668495985 -0.063446001465 0.031968319692 0.0012282698137 -0.011132337158 
-0.020680047241 -0.046173374685 -0.05301851685 0.01608806691 -0.034403703534 -0.033905061098 0.023837667309 -0.049368345933 -0.058046141585 
0.043158235698 0.018488547535 0.0065200128167 0.035820866748 -0.0079926218432 -0.0077654522972 0.030563590171 -0.04446415369 -0.015189536337 
0.027291057252 -0.016294074339 0.0049435376774 0.018508704222 -0.039102489952 -0.0065247466198 0.032775443285 0.017254862851 0.031510934919 
0.030297839458 -0.028027328291 0.014145278751 -0.027758015923 0.011177098147 -0.011331035993 0.014566605269 0.0088819575633 -0.035327213014 
-0.0073802700091 -0.032502799725 -0.04652273627 0.0045895252668 -0.031300818031 -0.060901728492 0.02487194852 -0.023556528835 -0.0057891725118 
-0.0066979713476 -0.033503148991 -0.060339101729 0.010714152763 -0.045718026251 -0.035636381817 0.036478600033 0.020508252167 0.0073920028545 
0.036022813357 -0.023200375438 -0.0070197801372 0.031121714659 -0.031996771277 0.0052154031765 0.028767599465 0.011340947524 0.016935107769 
0.025117505069 -0.0058606246736 0.0095856183182 0.02920379269 -0.018869851612 0.0052768315148 -0.0055557715386 -0.015234462361 -0.04259739136 
0.00043156662225 -0.025100483997 -0.060593367478 -0.0056551459975 0.0043868334514 -0.0079040979715 -0.011218309749 -0.0058642238058 -0.014555383539 
-0.0079322171821 -0.0018736950316 -0.063459365334 -0.0063783888491 0.0057300170145 0.0021098761453 -0.0039619301511 -0.001749263317 -0.024562063611 
-0.0024759549048 -0.038126593348 -0.058655314497 0.0091567130972 -0.046796875462 -0.0085437419357 0.035177996461 0.0052044439445 0.01070408838 
0.029849430952 0.019209715088 -0.016012807972 0.015034336938 -0.04699886465 -0.016500576516 0.028495880226 -0.011580121025 0.0076210466916 
0.026295811216 -0.026092708673 0.001121347731 0.023676999611 -0.041453004017 -0.014230846505 0.021263205396 0.0070723187061 0.014843578338 
0.028180677055 -0.041977280057 0.016993623945 -0.036710144238 -0.014287119238 -0.04438587708 -0.032777914459 -0.016506571344 -0.066183969099 
-0.028109098928 -0.035916308581 -0.04414650992 -0.034438720255 0.0099066844791 -0.033157420725 0.0018877353765 -0.02638839917 -0.055573520416 
-0.0098876298532 -0.041095740139 -0.044579102353 0.0031823555732 0.021840249209 -0.026545971493 0.0005958076437 0.011004962341 -0.041479779886 
-0.0070723595982 -0.031844312112 -0.060747687627 0.027226278416 0.010228493651 0.019026471097 0.020258695245 -0.0097826041026 0.0076865748689 
0.033470506567 0.0083499206338 0.01414789834 0.032439510525 -0.03409497881 0.013285929477 0.021426134456 0.0089866885134 0.018410366641 
-0.02743372611 0.0068197019491 -0.048089007435 -0.016506898777 -0.018837104504 -0.039203867362 -0.040664730747 0.011737791127 -0.011438435655 
-0.026231763682 0.0019787801876 -0.069157809392 -0.032933637605 0.016872160551 -0.010702274732 -0.04602964623 -0.025469696847 -0.04176452423 
-0.019444221277 -0.011710435411 -0.037239344401 -0.010530066921 -0.025745693711 -0.047032158878 -0.020699946112 -0.031434965469 -0.046815790133 
-0.045644216404 0.01464026761 -0.010246189751 -0.01723374383 -0.0087275485159 -0.022080923399 0.010534647866 0.018648896077 0.0022609403655 
-0.024087981559 -0.010655880436 -0.0017171324245 0.033461556166 -0.010028483904 -0.00044135649361 0.0037438888481 -0.029134047989 -0.019098797703 
0.024919883119 -0.0024877716822 0.014710548274 0.031087903568 -0.018381109814 0.023437535293 0.019031998949 0.0094735913304 0.020133104673 
0.029031186963 0.0086559442889 0.015185998833 0.022341278075 -0.015003409239 0.003966016691 0.040266230766 -0.033129205824 -0.0086426768295 