# vtk DataFile Version 4.2
Generated by LIGGGHTS
ASCII
DATASET POLYDATA
POINTS 1000 float
1.19945 0.380682 0.202026 4.67292 0.258886 0.0937898 0.0962531 0.685614 0.0499421 
2.23429 0.666442 0.46308 1.75098 1.55798 0.5842 2.56964 1.67911 0.00418423 
4.75932 1.40778 0.481973 0.874028 2.05009 0.458569 3.61021 1.9751 0.547458 
0.135349 2.70454 0.260123 1.2534 3.06355 0.161814 2.27211 2.66735 0.204648 
3.13739 3.104 0.526494 0.443448 3.63872 0.0456977 2.3423 3.65769 0.0650502 
4.63013 3.21582 0.169291 1.49917 4.03528 0.471694 2.69457 4.64058 0.389932 
3.86036 4.68884 0.399403 4.81314 4.96003 0.610197 0.237754 0.170115 0.925609 
2.05778 0.0845018 1.27431 3.19323 0.450447 0.671154 4.09029 0.0667136 0.8819 
0.700651 1.04142 0.762583 2.82338 1.34439 0.911556 1.603 2.44635 1.02568 
2.60926 2.30374 1.07958 4.4747 2.02925 1.21575 0.500479 2.62363 1.18751 
4.04396 2.88773 0.91402 0.128321 3.59567 1.10158 1.26227 3.3792 1.18963 
2.2877 3.24838 1.03667 4.36643 3.92723 1.00868 1.0164 4.87142 0.848328 
1.92177 4.60818 1.17024 3.29846 4.56499 1.22801 0.268869 0.501136 1.87428 
3.69835 0.011181 1.80332 1.24735 0.684147 1.54495 2.78325 0.706485 1.68049 
4.49127 0.747854 1.51555 0.915316 1.65001 1.52628 1.93782 1.66135 1.57091 
3.72935 1.36974 1.33523 3.4994 2.31526 1.56404 4.42077 2.99984 1.83527 
3.00196 3.27283 1.8537 1.14113 4.0744 1.93611 2.11032 3.85721 1.81944 
2.59048 4.94753 1.82912 1.00847 0.243939 2.50559 4.52227 0.23211 2.42957 
2.08309 0.999542 2.33516 3.64602 0.919019 2.22765 2.91373 1.59633 2.28844 
3.9428 1.86668 2.36091 0.256998 2.18859 2.05434 1.28606 1.92557 2.41334 
2.37723 2.45512 2.03991 4.94026 2.09813 2.09988 1.49069 2.92861 2.08598 
3.25073 2.57093 2.52711 0.528031 3.18776 2.01241 3.87338 3.6119 2.40401 
3.33038 4.43965 2.26961 4.60714 4.45794 2.30646 2.8696 0.542247 2.7537 
0.725938 1.17197 2.74827 1.59783 0.763991 3.18544 4.21392 1.03245 3.04549 
2.16686 1.88946 2.88509 4.63318 1.94241 3.08036 0.471922 2.51228 2.97564 
1.52199 2.68448 3.05493 2.68378 2.9576 3.2549 4.80755 2.88138 2.7591 
0.42008 3.72438 2.87213 1.42123 3.64335 2.79816 2.68239 3.77344 2.67389 
4.85102 3.80011 3.14599 1.35057 4.6086 3.05099 2.51665 4.69706 3.03224 
3.93495 4.45247 3.07327 3.37562 0.0445616 3.75739 0.373885 0.835284 3.6203 
3.31556 1.0361 3.56994 4.91144 0.718067 3.68937 1.27551 1.84861 3.54184 
2.34568 1.26789 3.64854 3.91977 1.75538 3.91412 2.99329 2.02827 3.49114 
0.860377 3.11392 3.67419 3.8246 2.57243 3.34601 4.62094 2.93598 3.82855 
3.90227 3.5932 3.58358 1.96998 3.99522 3.57082 2.96457 3.94076 3.67551 
0.389369 4.62879 3.33686 3.22759 4.89888 3.94093 4.79763 4.73847 3.53457 
0.638935 0.60504 4.56296 1.51586 0.409987 4.12608 2.51122 0.330813 4.18487 
2.25013 1.20592 4.64381 4.05369 0.791766 4.25608 0.1622 1.46215 4.36801 
1.29147 1.3445 4.40366 0.283308 2.45068 4.19379 1.42279 3.08792 4.5019 
2.15884 2.58915 4.02225 3.12976 3.16165 4.29572 1.33894 4.3725 4.26126 
2.18921 3.90907 4.5426 3.4563 4.1112 4.53714 4.44192 4.14344 4.25452 
0.311529 4.38367 4.32838 1.70199 0.247586 5.13884 3.29041 0.400575 4.82815 
3.45494 1.38461 4.9265 4.42314 1.6012 4.78691 0.660288 2.42683 5.11798 
1.65668 2.17278 4.83635 2.64177 2.06371 5.03574 3.57179 2.37398 4.74763 
2.34163 3.09826 5.13291 4.36386 2.9909 4.81265 0.488151 3.39987 4.72076 
3.39064 3.23721 5.29381 4.19455 3.90738 5.19397 0.945596 4.73551 5.13571 
2.57033 4.83184 4.69766 3.9821 4.92585 4.76917 0.403905 0.266065 5.47174 
1.23136 0.545104 5.97005 3.38439 0.405666 5.86869 2.50977 0.850257 5.54194 
4.20836 0.724009 5.33869 0.727669 1.67775 5.76973 1.56233 1.30636 5.36482 
3.65817 1.37159 5.90856 1.84865 2.16887 5.82383 4.0756 2.46969 5.71878 
4.99998 2.40384 5.33956 2.6687 2.71496 5.99977 0.227267 3.15201 5.65455 
4.73172 3.27498 5.7516 0.549092 4.09352 5.79164 1.64046 3.95173 5.38449 
2.67736 4.1099 5.72701 1.74031 4.94481 5.70648 3.5801 4.5573 5.78157 
4.50458 4.95559 5.72086 0.508286 0.965369 6.562 1.91087 1.20239 6.2957 
4.48268 0.719554 6.30306 2.75936 1.72833 6.16365 0.895093 2.59275 6.15113 
3.49528 2.68527 6.56434 4.75298 2.55014 6.44202 0.0279933 3.4541 6.59333 
1.62967 3.27055 6.11664 3.34951 3.64617 6.33224 1.8575 4.2183 6.38545 
4.36695 4.09037 6.20357 1.00746 4.89359 6.38298 1.212 0.346899 6.95643 
2.45095 0.447533 6.84682 3.22465 1.11209 6.86504 4.38662 0.885355 7.28908 
2.29037 1.43574 7.18981 4.05797 1.86449 6.68452 0.710456 1.90217 6.85205 
1.95466 2.45406 6.80801 2.96133 2.17268 7.23562 0.118709 2.63692 7.19481 
1.13203 2.978 7.10793 2.35496 3.37035 6.79774 3.15738 3.65923 7.31977 
4.20808 3.33262 6.83733 0.972094 3.87537 6.69454 0.0180721 4.42919 6.81503 
1.54521 4.72514 7.2092 2.68198 4.46257 6.89157 3.6819 4.43181 6.84821 
4.61187 4.43045 7.22707 0.305708 0.224015 7.9535 1.66154 0.264068 7.8516 
3.52499 0.517861 7.64652 4.73131 0.0893022 7.80581 0.650114 1.10136 7.59534 
0.0545661 1.8677 7.85665 1.58769 1.29236 7.88513 3.58723 1.53146 7.6965 
1.00689 2.16195 7.77156 4.43361 2.063 7.70111 2.39353 3.01262 7.86609 
3.38241 2.83536 7.85205 4.89638 3.1156 7.53248 4.06108 3.74267 7.73969 
0.687387 4.32869 7.55172 1.58163 3.76575 7.61337 2.37994 4.93135 7.72347 
3.30575 4.55489 7.76606 2.33902 0.229154 8.58657 3.53129 0.244711 8.65929 
0.150469 1.07733 8.46295 1.21491 0.65581 8.66391 2.56436 1.06077 8.07524 
4.25188 0.830652 8.28281 1.90196 2.2148 8.21635 2.88121 2.0099 8.22322 
0.614673 3.00981 8.12831 4.12387 3.05773 8.5838 1.56114 3.16332 8.41107 
4.8543 3.71617 8.34813 0.94015 3.94657 8.44715 2.47901 3.99186 8.05075 
0.196423 4.69847 8.34348 2.04532 4.68827 8.63918 4.02024 4.67313 8.45612 
4.96443 4.68515 8.12708 2.72033 1.00473 9.08189 4.40189 1.03671 9.28124 
1.20469 1.66165 8.73136 3.5422 1.41077 8.68674 0.386729 2.24022 8.73583 
2.34001 2.03019 9.0965 4.30477 2.0577 8.69572 0.157377 3.03376 9.30243 
4.92089 2.62352 9.25322 3.15038 3.32896 8.69346 2.33674 3.81049 9.04802 
3.20519 4.30666 8.97279 0.0686766 4.40403 9.29642 0.977606 4.80731 8.95889 
1.84462 0.456512 9.4361 2.7678 0.209368 9.74963 3.76099 0.354671 9.69516 
0.698385 1.40957 9.71005 1.68905 1.44135 9.57862 3.44792 1.30418 9.70484 
1.06836 2.32436 9.50473 3.22368 2.25817 9.50636 4.17933 1.99252 9.70947 
1.83661 2.9753 9.35363 3.86664 3.02279 9.55133 1.27168 3.79498 9.43321 
3.50863 3.85952 9.96608 4.40713 4.02679 9.38413 0.837697 4.55267 9.91904 
1.87262 4.56963 9.64611 3.93101 4.90576 9.42468 0.202072 5.38144 0.392741 
2.09928 5.44658 0.378475 3.10149 5.55411 0.365911 1.27994 6.02892 0.413689 
4.68256 6.02784 0.172529 3.14076 6.55027 0.278687 0.696385 7.80736 0.180651 
2.09306 8.10125 0.590763 3.29436 7.52776 0.423992 4.29865 7.51305 0.344988 
4.01668 8.57424 0.17502 0.706458 9.20305 0.424764 2.54819 9.1113 0.554564 
1.65454 9.50027 0.333628 3.43217 9.40291 0.156678 4.01947 5.59745 0.783357 
0.684112 5.76782 1.17649 0.707092 6.75066 0.802117 2.24354 6.48158 0.731621 
4.06315 6.57395 0.992036 1.56386 7.28135 0.856883 2.54204 7.36367 1.10176 
3.8902 7.78242 1.23559 1.25438 8.39415 1.09624 2.99034 8.31558 0.97452 
4.76855 8.24758 1.05714 0.256675 8.83288 1.24395 3.7045 8.98428 1.17855 
4.59264 9.19516 0.769219 1.12196 9.75734 1.14486 0.834527 5.0262 1.83134 
3.36687 5.57296 1.75671 4.24139 5.00119 1.55414 1.94159 5.69058 1.33686 
0.885517 6.46545 1.86129 2.63579 6.51201 1.69595 3.69081 6.77831 1.89722 
0.0159093 7.14993 1.64181 1.72042 7.01444 1.84883 4.88702 7.43145 1.63714 
0.923882 7.56627 1.59129 1.8485 8.01584 1.92909 3.10096 7.71526 1.85325 
4.23148 8.48905 1.99479 1.60493 9.25673 1.90276 2.48225 8.78325 1.81505 
0.619832 9.4472 1.95485 2.91067 9.57003 1.36756 4.52327 9.44215 1.78584 
1.74993 5.18923 2.34266 0.277979 5.72496 2.40015 1.70077 6.19868 2.52353 
2.5684 5.67788 2.65642 4.71003 6.47838 2.15385 0.931978 7.41861 2.58041 
0.128455 7.97007 2.23144 4.19292 7.62232 2.50482 0.950212 8.50718 2.04215 
3.29763 8.55897 2.35271 2.18982 9.98825 2.26882 3.17995 9.54181 2.56316 
3.56466 5.30689 2.70791 4.69585 5.50925 2.6982 0.791771 6.4688 2.86056 
2.34902 6.53094 3.28908 3.75851 6.34383 2.79729 4.62922 6.59056 3.27043 
2.17143 7.31308 2.691 3.27001 7.33226 2.76121 0.690971 8.14092 3.23059 
1.58541 8.405 2.81348 2.60229 8.13082 3.07709 3.59815 8.15585 3.233 
4.52413 8.52507 3.14274 0.428026 9.02818 2.85241 2.32687 9.08041 2.81983 
4.14907 9.35314 2.72634 1.37325 9.39134 2.88394 2.2176 9.95897 3.28859 
1.97003 5.00132 3.82004 0.344234 6.14898 3.69592 1.33113 5.74039 3.42706 
2.95697 5.78711 3.56911 4.06163 5.69599 3.48769 3.35106 6.7848 3.59678 
0.92195 7.0309 3.68575 4.14783 7.41393 3.634 1.58603 7.77354 3.60796 
3.00479 7.6708 3.90791 1.88593 8.72443 3.73013 0.923981 8.98975 3.81839 
3.50344 9.05621 3.66142 0.829686 9.94962 3.56097 4.48985 9.69555 3.60995 
0.829661 5.2248 4.13342 2.4913 5.81169 4.52215 3.53902 5.73684 4.38619 
4.83829 5.75858 4.11528 0.383931 6.85296 4.58527 1.72979 6.56948 4.07602 
3.09725 6.63789 4.55089 4.19897 6.49444 4.34918 3.93698 7.41245 4.65359 
0.554785 7.82912 4.19026 2.22192 7.53315 4.51413 1.43506 8.2354 4.48031 
2.38869 8.51937 4.5771 3.42499 8.32616 4.53738 2.61611 9.33534 4.04602 
4.39029 8.82093 4.08877 1.67999 9.45864 4.38622 3.4505 9.44415 4.58445 
4.36159 9.8975 4.58276 1.55842 5.499 4.77473 3.12804 5.51203 5.27751 
0.428558 5.84368 4.94875 4.61311 5.72304 5.08851 1.25046 6.3531 5.21517 
1.291 7.26214 4.78532 2.0697 6.92042 5.32189 3.03495 7.4849 5.09038 
4.88319 8.05502 4.87474 0.716023 8.52111 5.11185 1.67569 8.88134 5.20252 
4.11564 8.83529 5.05051 0.688614 9.62368 4.7587 2.52823 9.60585 5.01884 
2.10793 5.88191 5.5154 0.368471 6.75324 5.58108 2.93322 6.4598 5.52007 
3.93076 6.75714 5.48064 1.28685 7.32399 5.7937 4.94979 6.95652 5.68418 
0.415478 7.81498 5.75087 2.31428 7.84318 5.78403 4.1518 7.86463 5.53811 
3.12126 8.45141 5.4847 0.857394 9.31892 5.69639 2.32561 8.92494 5.99485 
2.49317 9.91454 5.96837 4.03047 9.71591 5.51262 0.0858107 5.03314 6.02075 
1.78223 5.50843 6.54616 2.71091 5.04944 6.06828 0.968209 5.86776 6.04304 
2.63156 6.01191 6.3845 3.60856 6.14832 6.21776 4.59502 5.97163 6.06738 
[...]
POINT_DATA 1000
FIELD FieldData 7
id 1 1000 int
9 633 843 530 509 531 18 519 506 
526 600 20 11 255 603 595 109 510 
6 516 16 146 5 150 2 514 522 
505 10 17 12 504 1 501 537 130 
529 4 748 8 14 548 502 518 523 
13 554 38 21 909 547 168 34 35 
534 555 544 552 302 541 7 782 41 
557 508 546 532 550 22 23 71 170 
26 47 30 24 31 277 283 626 543 
558 67 542 28 638 545 33 40 551 
63 535 540 37 279 280 44 32 556 
418 54 900 570 561 560 80 654 553 
49 42 36 539 53 69 45 572 559 
408 562 187 51 58 68 62 70 25 
48 817 294 52 575 669 43 683 55 
220 663 588 59 57 566 61 84 538 
569 589 563 311 573 50 568 571 92 
469 64 578 582 583 567 574 96 303 
66 101 103 102 91 95 202 78 82 
72 74 337 580 97 100 585 79 584 
83 99 339 77 592 591 89 122 118 
576 870 579 88 590 104 86 833 125 
87 75 581 593 81 577 235 226 715 
127 119 120 123 107 602 93 105 73 
598 115 586 233 601 228 743 604 372 
116 128 111 599 608 365 846 110 117 
594 272 240 112 735 507 606 607 528 
610 121 512 605 114 597 515 106 142 
596 247 404 503 511 612 143 135 611 
625 723 728 617 132 133 520 140 517 
892 148 129 151 147 134 616 138 144 
629 136 149 631 3 874 613 627 632 
139 131 614 899 622 383 641 624 651 
623 174 646 912 141 402 27 922 642 
658 620 659 160 615 173 647 640 636 
158 166 156 643 653 423 650 657 648 
639 171 652 161 163 154 157 167 29 
162 924 656 655 668 645 177 159 682 
637 169 649 155 644 172 450 194 60 
420 198 681 193 164 153 185 180 199 
684 182 661 660 673 662 192 190 207 
948 674 666 189 178 181 940 679 670 
676 677 188 664 183 675 680 179 184 
176 671 686 678 667 191 707 195 800 
702 56 709 211 215 970 693 701 689 
196 703 206 700 665 200 685 197 706 
205 98 698 692 203 214 219 218 691 
690 209 210 201 704 710 688 216 699 
85 719 224 712 481 737 992 708 741 
705 222 221 212 961 969 587 217 230 
208 694 242 695 374 713 739 714 736 
720 225 734 727 238 999 227 696 726 
733 244 717 137 628 738 239 991 234 
237 246 725 732 722 236 223 521 742 
527 630 872 634 618 716 152 229 635 
245 243 231 248 724 718 396 490 264 
252 860 251 259 271 767 268 260 369 
358 525 380 896 773 747 891 758 765 
757 15 761 866 513 287 760 254 261 
609 269 250 382 524 768 253 258 19 
764 753 744 267 754 794 265 788 262 
762 257 533 756 413 904 763 778 755 
282 781 276 786 769 281 263 299 300 
908 780 785 790 746 777 775 536 774 
293 286 292 793 766 911 414 427 784 
298 290 818 289 285 813 296 274 816 
783 776 313 811 789 288 275 792 779 
291 809 295 306 324 318 325 812 323 
796 284 672 301 934 319 305 46 832 
808 308 549 278 316 814 807 322 310 
314 317 943 320 821 333 355 810 797 
798 802 307 805 815 343 345 312 315 
801 837 334 827 830 338 564 349 353 
340 831 819 332 94 952 835 348 864 
347 213 329 826 342 331 825 354 346 
823 336 804 351 824 829 344 822 488 
858 90 840 836 359 326 377 327 352 
350 834 371 341 857 126 330 848 373 
357 856 854 838 869 76 859 108 1000 
850 845 483 861 989 124 363 863 847 
867 868 270 852 849 851 367 378 865 
853 362 364 750 745 256 862 356 368 
366 842 841 361 113 266 360 249 375 
771 752 273 389 498 385 884 232 390 
394 895 987 400 399 731 873 772 770 
898 749 990 984 384 871 878 395 887 
405 621 879 886 881 381 876 386 432 
759 145 393 403 883 397 387 885 894 
398 901 893 921 889 437 791 424 882 
888 877 927 410 426 411 926 905 751 
906 928 419 907 388 431 415 175 914 
925 412 422 429 438 39 417 903 918 
406 297 919 439 915 923 461 920 916 
409 434 917 407 457 787 435 436 433 
430 902 321 939 459 425 945 942 416 
937 440 944 421 913 951 448 910 806 
304 309 799 449 453 470 165 941 447 
947 444 186 454 950 446 456 946 795 
803 462 929 452 933 468 428 960 442 
460 443 930 938 455 936 441 935 964 
565 931 65 967 445 472 464 697 467 
204 451 953 687 465 932 971 458 954 
474 949 478 965 476 977 966 711 962 
958 976 471 959 820 972 335 463 473 
497 466 828 328 956 379 489 974 955 
998 968 957 477 994 499 996 985 844 
973 475 493 494 721 491 485 496 479 
487 963 482 855 988 241 978 376 995 
729 730 480 486 740 975 880 982 370 
492 997 890 500 619 979 401 495 392 
986 981 897 875 391 983 484 839 993 
980 
type 1 1000 int
1 2 2 2 2 2 1 2 2 
2 2 1 1 1 2 2 1 2 
1 2 1 1 1 1 1 2 2 
2 1 1 1 2 1 2 2 1 
2 1 2 1 1 2 2 2 2 
1 2 1 1 2 2 1 1 1 
2 2 2 2 1 2 1 2 1 
2 2 2 2 2 1 1 1 1 
1 1 1 1 1 1 1 2 2 
2 1 2 1 2 2 1 1 2 
1 2 2 1 1 1 1 1 2 
1 1 2 2 2 2 1 2 2 
1 1 1 2 1 1 1 2 2 
1 2 1 1 1 1 1 1 1 
1 2 1 1 2 2 1 2 1 
1 2 2 1 1 2 1 1 2 
2 2 2 1 2 1 2 2 1 
1 1 2 2 2 2 2 1 1 
1 1 1 1 1 1 1 1 1 
1 1 1 2 1 1 2 1 2 
1 1 1 1 2 2 1 1 1 
2 2 2 1 2 1 1 2 1 
1 1 2 2 1 2 1 1 2 
1 1 1 1 1 2 1 1 1 
2 1 2 1 2 1 2 2 1 
1 1 1 2 2 1 2 1 1 
2 1 1 1 2 2 2 2 2 
2 1 2 2 1 2 2 1 1 
2 1 1 2 2 2 1 1 2 
2 2 2 2 1 1 2 1 2 
2 1 1 1 1 1 2 1 1 
2 1 1 2 1 2 2 2 2 
1 1 2 2 2 1 2 2 2 
2 1 2 2 1 1 1 2 2 
2 2 2 1 2 1 2 2 2 
1 1 1 2 2 1 2 2 2 
2 1 2 1 1 1 1 1 1 
1 2 2 2 2 2 1 1 2 
2 1 2 1 2 1 1 1 1 
1 1 2 1 1 1 1 1 1 
2 1 2 2 2 2 1 1 1 
2 2 2 1 1 1 2 2 2 
2 2 1 2 1 2 2 1 1 
1 2 2 2 2 1 2 1 2 
2 1 2 1 1 2 2 2 2 
1 2 1 2 2 1 2 1 2 
1 1 2 2 1 1 1 1 2 
2 1 1 1 2 2 2 1 2 
1 2 1 2 1 2 2 2 2 
2 1 1 1 2 2 2 1 1 
1 2 1 2 1 2 2 2 2 
2 1 2 2 1 2 1 2 2 
2 1 2 1 2 2 1 2 1 
1 1 2 2 2 1 1 2 2 
2 2 2 2 2 2 1 1 2 
1 1 1 1 2 2 1 1 1 
1 2 1 1 1 2 1 1 1 
1 2 1 2 2 2 2 2 2 
2 1 2 2 2 1 2 1 1 
2 1 1 1 2 2 1 1 1 
2 2 2 1 2 2 1 2 1 
2 1 2 2 1 2 2 2 2 
1 2 1 2 2 1 1 1 1 
2 2 2 2 2 2 2 2 2 
1 1 1 2 2 2 1 1 2 
1 1 2 1 1 2 1 1 2 
2 2 1 2 2 1 1 2 2 
1 2 1 1 1 1 1 2 1 
2 1 2 1 2 1 1 1 2 
2 1 2 1 1 2 2 1 1 
1 1 2 1 2 1 1 2 2 
2 2 1 2 2 1 1 1 1 
2 2 1 2 2 1 2 1 1 
1 2 2 1 1 2 2 1 2 
1 1 1 2 1 1 2 1 1 
2 1 2 1 2 2 1 2 1 
2 1 2 2 1 1 1 1 1 
1 2 1 1 2 1 1 2 1 
1 2 2 2 2 1 2 1 2 
2 2 1 2 2 1 1 2 2 
2 2 1 2 2 2 1 1 2 
2 1 1 2 2 1 2 1 1 
1 2 2 1 1 1 1 1 1 
2 2 1 1 1 1 2 1 1 
1 2 2 1 1 2 2 2 2 
2 2 2 2 1 2 2 1 2 
1 2 2 2 2 1 2 1 1 
2 1 1 1 2 1 1 2 2 
1 2 2 2 2 1 2 1 2 
2 2 2 1 1 1 2 2 2 
2 2 1 2 1 1 1 1 2 
2 1 1 1 1 1 1 2 2 
1 1 2 1 2 2 1 2 2 
1 1 2 1 1 2 1 1 1 
1 2 1 2 1 1 2 2 1 
2 1 2 1 2 2 1 2 2 
1 1 2 1 1 1 1 2 1 
2 1 1 1 2 1 1 2 2 
2 1 2 1 2 1 1 2 1 
1 1 2 2 1 2 1 2 2 
2 2 1 2 1 1 1 2 1 
1 1 2 2 1 2 2 1 2 
1 2 1 2 1 2 2 2 2 
2 2 1 2 2 2 1 1 1 
1 1 2 1 2 1 1 2 2 
2 2 2 1 2 1 2 2 2 
2 1 1 1 2 1 1 1 1 
1 2 1 2 2 1 2 1 2 
2 2 1 1 2 2 2 2 1 
1 2 2 1 2 2 1 1 1 
2 2 2 2 1 2 1 2 2 
2 
i 3 1000 int
0 0 0 0 1 0 1 0 1 
0 0 0 0 0 0 0 0 0 
0 0 0 0 0 0 0 0 0 
0 0 0 0 0 1 0 0 0 
0 0 0 1 0 0 0 0 1 
0 0 1 0 0 1 0 0 0 
0 0 0 0 0 0 0 0 0 
0 1 0 0 0 0 0 1 0 
0 0 0 0 0 0 0 0 0 
0 0 0 0 0 0 0 0 0 
0 0 0 0 0 0 0 0 0 
0 0 0 0 0 0 0 0 0 
0 0 0 0 0 0 1 0 0 
0 0 0 0 0 0 0 0 0 
0 0 0 0 0 0 0 0 0 
0 0 0 0 0 0 0 0 0 
0 0 0 1 0 0 0 0 0 
0 0 0 0 0 0 0 0 0 
0 0 0 0 0 0 0 0 0 
0 0 0 1 0 0 0 0 0 
0 0 0 0 0 0 0 0 0 
0 0 0 0 0 0 0 0 0 
0 0 0 0 0 0 0 0 0 
0 0 0 0 0 0 0 1 0 
0 0 0 0 0 0 0 0 0 
0 0 0 0 0 0 0 0 0 
1 0 0 0 0 0 0 0 0 
0 0 0 0 0 0 0 0 0 
0 0 0 0 1 0 0 0 0 
0 0 0 0 0 0 0 0 0 
0 0 0 0 0 0 0 0 0 
0 0 0 0 0 0 0 0 0 
0 0 0 0 0 0 0 0 0 
1 0 0 0 0 0 0 0 0 
0 0 0 0 0 0 0 0 0 
0 0 0 0 1 0 0 0 0 
0 0 0 0 0 0 0 0 0 
0 0 0 0 0 0 0 0 0 
0 0 0 0 0 0 0 0 0 
1 0 0 0 0 0 0 1 0 
0 0 0 0 0 0 0 0 0 
0 0 0 0 0 0 0 0 0 
0 0 0 0 0 0 1 0 0 
0 0 0 0 0 0 0 0 0 
0 0 0 0 0 0 0 0 0 
0 1 0 0 1 0 0 0 0 
0 0 0 0 0 0 0 0 0 
0 0 0 0 0 0 0 0 0 
0 0 0 0 0 0 0 0 0 
0 0 0 0 0 0 0 0 0 
0 0 0 0 0 0 0 0 0 
0 0 0 0 0 0 0 0 0 
0 0 0 0 0 0 0 0 0 
0 0 0 0 0 0 1 0 0 
0 0 0 0 0 0 0 0 0 
0 0 0 0 0 0 0 0 0 
0 1 0 0 0 0 0 0 0 
0 0 0 0 0 0 1 0 0 
0 0 0 0 0 0 0 0 0 
0 0 0 0 0 0 0 0 0 
0 0 0 0 0 0 1 0 0 
0 0 0 0 0 0 0 0 0 
0 0 0 0 0 0 0 0 0 
0 0 0 0 0 0 0 0 0 
0 0 0 0 0 0 0 0 0 
0 0 0 0 0 0 0 0 0 
0 0 0 0 0 0 0 0 0 
0 0 0 0 0 0 0 0 0 
0 0 0 0 1 0 0 1 0 
0 0 0 0 0 0 0 0 0 
0 0 0 0 0 0 0 0 0 
0 0 0 0 0 0 0 0 0 
0 0 0 0 0 0 0 0 0 
0 0 0 0 0 0 0 0 0 
0 0 0 0 0 0 0 0 0 
0 0 0 0 0 0 0 0 0 
0 0 0 0 0 0 1 0 0 
0 0 0 0 0 0 0 0 0 
0 0 0 1 0 -1 0 0 0 
0 0 0 0 1 0 0 0 -1 
0 0 0 0 0 0 0 0 -1 
0 0 0 0 0 0 0 0 -1 
0 0 0 0 0 0 0 0 0 
0 0 -1 0 0 0 0 0 -1 
0 0 0 0 0 0 1 0 0 
0 0 0 0 0 0 0 0 0 
0 0 0 0 0 0 0 0 0 
0 0 0 0 0 1 0 0 1 
0 0 0 0 0 0 0 0 0 
0 -1 0 0 0 0 0 0 0 
1 0 0 0 0 0 0 0 0 
0 0 0 0 0 0 0 0 0 
0 0 0 0 0 0 0 0 0 
0 0 0 0 0 0 0 0 0 
0 0 0 0 -1 0 1 0 0 
0 0 0 0 0 0 0 0 0 
0 0 0 0 0 0 0 0 0 
1 0 0 0 0 0 0 0 0 
0 0 0 0 0 0 0 0 0 
0 0 0 0 0 0 0 0 0 
1 0 0 0 0 0 0 0 0 
0 0 0 1 0 0 0 0 0 
0 0 0 0 0 0 0 0 0 
0 0 0 0 0 0 0 0 0 
0 0 0 0 0 0 0 0 0 
0 0 0 0 0 0 0 0 0 
0 0 0 0 0 0 0 0 0 
0 0 0 0 0 0 0 0 0 
0 0 0 0 0 0 0 0 0 
0 0 0 0 0 0 0 0 0 
0 0 0 0 0 0 0 -1 0 
0 0 0 1 0 0 0 0 0 
0 0 0 0 0 0 0 0 0 
0 0 0 0 0 0 0 0 0 
0 0 0 0 0 0 0 0 0 
0 0 0 0 0 0 0 0 0 
1 0 0 0 0 0 0 0 0 
0 0 0 0 0 0 0 0 0 
0 0 0 0 0 0 0 0 0 
0 0 0 0 0 0 0 0 0 
0 0 0 0 0 0 0 0 0 
0 0 0 0 0 0 0 0 0 
0 0 0 0 0 0 0 0 0 
1 0 0 0 0 0 0 0 0 
0 0 0 0 0 0 0 0 0 
0 0 0 0 0 0 0 0 0 
0 0 0 0 0 0 0 0 0 
0 0 0 0 0 0 0 0 0 
0 0 0 0 0 0 0 0 0 
0 0 0 0 0 0 0 0 0 
0 0 0 0 0 0 0 0 0 
0 0 0 0 0 0 1 0 0 
0 0 0 0 0 0 0 0 0 
0 0 0 0 0 0 0 0 0 
0 0 0 0 0 0 0 0 0 
0 0 0 0 0 0 0 0 0 
0 0 0 0 0 0 0 0 0 
0 0 0 0 0 0 0 0 0 
0 0 0 0 0 0 0 0 0 
0 0 0 0 0 0 0 0 0 
0 0 0 0 0 0 0 0 0 
0 0 0 0 0 0 0 0 0 
0 0 0 0 0 0 0 0 0 
0 0 0 0 0 0 0 0 0 
0 -1 0 0 0 0 0 0 0 
0 0 0 1 0 0 0 0 0 
0 0 0 0 0 0 0 0 0 
0 0 0 0 0 0 0 0 0 
0 0 0 0 0 0 0 0 0 
0 -1 0 0 0 0 0 0 0 
0 0 0 0 0 0 0 0 0 
0 0 0 1 0 0 0 0 0 
0 0 0 0 0 0 0 0 0 
0 0 0 0 0 0 0 0 0 
0 0 0 0 0 0 0 0 0 
0 0 0 0 0 0 0 0 0 
0 0 0 0 0 0 0 0 0 
0 0 -1 0 0 -1 0 0 0 
0 0 0 1 0 0 0 0 0 
0 0 0 0 0 0 0 0 0 
0 0 0 0 0 0 0 0 0 
0 0 0 0 0 -1 0 0 0 
0 0 -1 0 0 -1 1 0 -1 
0 0 -1 0 0 -1 0 0 0 
0 0 -1 0 0 0 0 0 -1 
0 0 0 0 0 0 0 0 0 
0 0 0 0 0 0 0 0 0 
0 1 0 0 1 1 0 0 0 
0 0 0 0 0 1 0 0 0 
0 0 0 0 0 0 0 0 0 
0 0 0 0 0 0 0 0 1 
0 0 1 0 0 0 0 0 1 
0 1 0 0 0 0 0 0 0 
0 1 0 0 0 0 0 0 0 
0 0 0 0 0 0 0 0 0 
0 0 1 0 0 0 0 0 0 
0 0 0 0 0 0 0 0 0 
0 0 1 0 0 0 0 0 0 
0 1 0 0 0 0 0 0 0 
0 0 0 0 0 0 0 0 0 
0 0 0 0 0 0 0 0 0 
0 0 0 0 0 0 0 0 0 
0 0 0 0 0 0 0 0 0 
0 0 0 0 0 0 0 0 0 
0 0 0 0 1 0 0 1 0 
0 0 0 0 0 0 0 0 0 
0 0 0 0 0 0 0 0 0 
0 0 0 0 0 0 0 0 0 
0 0 0 0 0 0 0 0 0 
0 1 0 0 0 0 0 0 0 
0 0 0 0 0 0 0 0 0 
0 0 0 -1 0 0 0 0 0 
0 0 0 0 0 0 0 0 0 
0 0 0 0 0 0 0 0 0 
0 0 0 0 1 0 0 0 0 
0 0 0 0 0 0 0 0 0 
0 0 0 0 0 0 0 0 0 
0 0 0 0 0 0 0 0 0 
0 0 0 0 0 0 0 0 0 
0 0 0 0 0 0 0 0 0 
0 0 0 0 0 0 0 0 0 
0 0 0 0 0 0 0 0 0 
0 0 0 0 0 0 0 0 0 
0 0 0 0 0 0 0 0 0 
0 0 0 0 0 0 0 0 0 
0 0 0 0 1 0 0 0 0 
0 0 0 0 0 0 0 0 0 
0 0 0 0 0 0 -1 0 0 
0 0 0 0 0 0 0 0 0 
0 0 0 0 0 0 0 0 0 
0 0 0 0 0 0 0 1 0 
0 0 0 0 0 0 0 0 0 
0 0 0 0 0 0 0 0 0 
0 0 0 0 0 0 0 0 0 
0 0 0 0 0 0 0 0 0 
0 0 0 0 0 0 0 0 0 
0 0 0 0 0 0 0 0 0 
0 0 0 0 0 0 0 0 0 
-1 0 0 0 0 0 0 0 0 
0 0 0 0 0 0 0 0 0 
0 0 0 0 0 0 0 0 0 
0 0 0 0 0 0 0 0 0 
0 0 0 -1 1 0 0 0 0 
0 0 0 0 0 0 0 0 0 
0 0 0 0 0 0 0 0 0 
0 0 0 0 0 0 0 0 0 
0 0 0 0 0 0 0 0 0 
0 0 0 0 0 0 0 1 0 
0 0 0 -1 0 0 0 0 0 
0 0 0 0 0 0 0 0 0 
0 0 0 0 0 0 0 0 0 
0 0 0 0 0 0 0 0 0 
0 0 0 0 0 0 0 0 0 
0 0 0 0 0 0 0 0 0 
0 0 0 0 0 0 0 0 0 
0 0 0 0 0 0 -1 0 0 
0 0 0 -1 0 0 0 0 0 
0 0 0 0 0 0 0 0 0 
0 0 0 0 1 0 -1 0 0 
0 0 0 0 0 0 0 0 0 
0 0 0 0 0 0 0 0 -1 
0 0 0 0 0 0 0 0 0 
0 0 0 0 0 0 0 0 0 
0 0 0 0 0 0 0 0 0 
0 0 -1 0 0 -1 0 0 -1 
0 0 0 0 0 0 0 0 0 
0 0 0 0 0 0 0 0 0 
0 0 0 0 0 0 0 0 -1 
0 0 0 0 0 -1 0 0 0 
0 0 0 0 0 0 0 0 0 
0 0 0 0 0 1 0 0 0 
0 0 0 0 0 1 0 0 0 
0 0 0 0 0 0 0 0 1 
0 0 0 0 0 0 0 0 1 
0 0 0 0 0 0 0 0 0 
0 0 0 0 0 0 0 0 1 
0 0 1 0 0 0 0 0 0 
0 0 0 0 0 0 0 0 0 
0 0 0 -1 0 0 0 0 0 
0 0 0 0 0 0 0 0 0 
0 0 0 0 0 0 0 0 0 
0 0 0 0 0 0 0 0 0 
0 0 0 0 0 0 0 0 0 
0 0 0 0 0 0 0 0 0 
0 0 0 0 0 0 0 0 0 
0 0 0 0 0 0 0 0 0 
0 0 0 0 0 0 0 0 0 
0 0 0 0 0 0 0 0 0 
0 0 0 0 0 0 0 0 0 
0 0 0 0 0 0 0 -1 0 
0 0 0 0 0 0 0 0 0 
0 0 0 0 0 0 0 0 0 
0 0 0 -1 0 0 0 0 0 
0 0 0 0 0 0 0 0 0 
0 0 0 0 0 0 0 -1 0 
0 0 0 0 0 0 0 0 0 
0 0 0 0 0 0 0 0 0 
0 0 0 0 0 0 0 0 0 
0 0 0 0 0 0 0 0 0 
0 0 0 0 0 0 0 0 0 
0 0 0 0 0 0 0 -1 0 
0 0 0 0 0 0 0 0 0 
0 0 0 0 0 0 0 0 0 
0 0 0 0 0 0 0 0 0 
0 0 0 0 0 0 0 0 0 
0 0 0 0 0 0 0 0 0 
0 0 0 0 0 0 0 0 0 
0 0 0 0 0 0 0 -1 0 
0 0 0 0 0 0 0 0 0 
0 0 0 0 0 0 0 0 0 
0 0 0 0 0 0 0 0 0 
0 0 0 0 0 0 -1 0 0 
0 0 0 0 0 0 0 0 0 
0 0 0 0 0 0 0 -1 0 
0 -1 0 0 0 0 0 0 0 
0 0 0 0 0 0 0 0 0 
0 0 0 0 0 0 0 0 0 
0 0 0 0 0 0 0 0 0 
0 0 0 0 0 0 0 0 0 
0 0 0 0 0 0 0 0 0 
0 -1 0 0 0 0 -1 -1 0 
0 0 0 0 0 0 0 0 0 
0 0 0 -1 0 0 0 0 0 
-1 0 0 0 0 0 0 0 0 
-1 0 0 0 0 0 0 0 0 
0 0 0 0 0 0 0 0 0 
0 0 0 0 0 0 0 0 0 
0 0 0 0 0 0 0 0 0 
0 0 0 0 0 0 0 0 0 
0 0 0 0 0 0 0 0 0 
0 0 0 0 -1 0 0 0 0 
0 -1 0 0 0 0 0 0 0 
0 0 0 0 0 0 0 0 0 
0 0 0 0 0 0 0 0 0 
0 0 0 0 0 0 0 0 0 
0 0 0 0 0 0 0 0 0 
0 0 0 0 0 0 0 0 0 
0 0 0 0 0 0 0 0 0 
0 0 0 0 0 0 0 0 0 
0 0 0 -1 0 0 0 0 0 
0 0 0 0 0 0 0 0 0 
0 0 0 0 0 0 0 0 0 
0 -1 0 0 0 0 -1 0 0 
0 0 0 0 0 0 0 0 0 
0 0 0 -1 0 0 0 0 0 
0 0 0 0 0 0 0 0 0 
0 0 -1 0 0 0 0 -1 0 
0 0 0 0 0 0 0 0 -1 
0 0 0 0 0 -1 0 0 0 
0 0 -1 0 0 0 0 0 -1 
0 0 0 0 0 0 0 0 -1 
0 0 -1 0 0 -1 0 0 0 
0 0 0 0 -1 0 0 0 0 
0 0 0 
v 3 1000 double
-0.47976671365 -0.44282413919 -0.4972336764 -0.48312140079 -0.30441159514 0.76437186224 -0.20912572256 0.013497888486 -0.26538747656 
-0.096400810643 0.13003072761 -0.23121745805 -0.26169679115 -0.34098915982 -0.11994933806 -0.24687582427 0.66807302129 0.0083420145598 
0.33402553041 -1.8350387438 -0.66749089148 -0.51319846296 -0.57964527299 -0.31350558606 -0.57298688135 -0.37062482582 -0.23662361655 
-0.52079460028 -0.14269579827 -0.12199259043 -0.27011127032 -0.34378580838 0.33008880505 -0.70296719393 1.1038192645 0.60826100054 
-0.5199972188 0.59505450222 0.78021735146 -0.16464110863 -0.21699419885 -0.0091751132746 0.67451723156 1.0296024098 0.22266860396 
0.49966880399 1.7801576603 -0.65972298259 -0.72228458152 -1.1648117773 -0.031976095508 0.23487665306 0.10656095324 -1.6901827248 
1.8206475635 0.020453426661 -0.33956199219 1.689229755 2.4466775422 -1.9851398296 0.14991998086 -0.13645766886 -1.1708925414 
-0.40906153284 -0.3010806208 -0.32865523582 -0.5144672314 -0.46843627553 -0.12635072367 -0.47936054516 0.098990370495 0.61433860642 
0.095094609247 0.052666600269 -0.50942490003 0.2885612401 0.086181153077 -0.27636755062 -0.35631659138 -1.0995658409 0.034025131357 
-0.2542359185 -0.1029710977 0.07114697978 0.20007660932 -0.40947310757 -1.7599993819 -0.7363782049 -1.1027924781 -0.04557913016 
0.59288605001 0.27590813011 -1.0841776815 -0.41937034025 -1.7215390542 1.2617667605 -0.92310643195 -1.222125364 -0.16177314008 
-0.79447489581 -0.39708486607 -0.45979438631 1.3412167056 0.91592980809 -3.0052912271 0.32859519342 -1.0867649079 0.41661205582 
-0.0077107767957 -0.51038153735 -0.62478409882 0.7846156152 0.36755652536 -1.4681180163 -1.0374459451 -1.1462175589 -0.54539884186 
-0.10503731463 -0.18036650818 0.65121496028 -1.448945846 -0.75278680654 -0.62164134537 1.4418020482 -1.0132486961 -1.1514781882 
1.0540143198 -0.25915864579 0.35506949082 -0.40938134513 -0.20313507653 -0.053273794441 -0.45298464826 -0.80559966944 0.12666571283 
0.69357474775 -1.0059397429 -0.82145013417 0.58211415803 -0.8358619142 -1.3327121932 0.73203620887 0.0297075799 -1.3095161277 
0.39720352251 0.3516691343 -1.1977175079 -0.40339848235 -1.4240031254 -0.13790543638 -0.094397219801 -0.24085066737 -0.46406392217 
0.5335985709 -0.11069312812 -1.5407727676 -1.0532067825 -0.79887859827 -0.20981070237 0.11144832129 0.011406894228 0.49253900565 
1.6402001321 -1.8004469116 -0.47160566115 0.77008341887 0.24572600022 -0.0076107743559 0.036505045225 -0.54724056255 -0.77384877546 
0.60000595292 0.51190601843 -1.68055981 -0.41674534675 -0.53622566614 0.39934035892 -0.40369525297 -1.0967494767 0.34201387083 
-1.1071684738 -0.091926192357 -0.13240686292 0.76073098494 -0.29830576751 -2.0003653683 -0.44827889359 -1.1408628742 -0.29173943093 
-0.3797923214 -0.34456400565 -1.0208827445 -0.5127073499 -0.97099352816 -0.091683783808 0.033586777025 -0.66770572176 -0.82024159924 
0.012721671661 -0.24828202904 -0.37268057199 0.46111521026 -0.62375584474 -2.0165925157 1.2751276769 -2.300083889 -0.40951680993 
-0.31236330237 -0.75665424071 0.29487619313 0.45866257682 -0.81890466753 -0.63485504896 0.45729490383 0.13741932061 0.27960254287 
0.18690664029 -0.26855752693 -0.8016098898 0.17677556912 0.22332094749 -1.2027593287 -0.77946266439 -0.22809303927 0.43141990425 
0.18675412884 -0.86360546818 -0.10443692305 -0.22588551976 -0.36238493965 -0.7936997362 -0.47112758386 -0.087758344122 -2.176643482 
0.24237698972 -0.94596625136 0.57312809878 0.095386329009 -0.87172733182 -0.13901649387 -0.42252715376 -0.25760873992 -0.66916803186 
-0.001219197801 0.078703104756 -1.9380505384 1.0144766605 -0.73583456925 -1.4609273622 -0.62270303311 -0.40863132315 -0.063007580597 
-0.17323010197 -0.32527293809 -2.5761671042 0.054339019861 0.52152640655 -0.26732938326 -0.30048093814 -0.35252339646 0.60327295152 
1.058979269 0.11226553103 -1.1838104493 -0.15438211487 0.053273680988 -0.73622331832 -0.25736750133 -1.3020193686 -0.97656347671 
0.85166722451 -0.63302276752 -1.198084991 0.42324437315 0.20811979894 -0.37525552401 0.085350129648 -0.44355593376 -0.51326516991 
0.140674491 -1.4765600028 0.63029456609 0.10076405176 -0.63507427696 -1.3519248236 -0.32350805288 -0.43683453944 -0.4859502396 
0.26426691882 -0.096483917406 -1.8889741567 0.031245849366 -0.94636608357 0.14624738619 0.23165143379 0.042756954881 -0.3704960873 
1.597023802 -0.66155725574 0.26527912866 0.88727435075 -0.22682390771 -0.85653649564 -0.32808046527 -0.7696781277 -1.4468500652 
0.36522434495 -0.64944177191 -0.056183035832 0.20669975954 -0.27756950428 -0.72510377593 0.19057724913 0.8823694522 -1.4776973498 
-0.51372302127 0.58436844707 -1.0503091458 0.079864040786 0.2247657907 0.21866258862 1.0838336343 -0.0051442531387 0.84181985868 
-0.14667513222 -0.23775330587 -0.28987285465 0.52060600192 -0.2089175987 0.74719671914 0.68901918125 0.089948082423 0.4295865522 
-0.64517350794 0.38260542079 -0.67950424059 0.96000667929 0.15161908711 -1.0681134646 1.0101334523 -0.057486802485 0.95329105895 
1.0385810409 -0.11856638351 0.027876965351 -0.24865929192 -0.6511436591 -0.45902552319 0.51490363322 -1.0070837042 -1.0636026659 
0.66925910672 -0.31065551699 -0.27705140456 -0.66815582787 1.0343621397 -0.0084622451993 -0.47286415112 0.025712135901 -0.077570563111 
-0.70844703687 0.079597628491 0.019583771278 -0.55999802003 -0.16506643365 0.27098377062 -0.8508534343 -0.87471194988 1.126492831 
0.019813129434 -0.36797177179 -0.12527420785 0.28875057073 -0.068606872449 0.34880348567 0.24097773976 0.30709386776 0.47425322752 
0.97931743654 -0.41008075988 0.031768850027 0.78102502381 -0.058310794998 -0.4455145978 0.59948234591 -0.050606365837 1.3729259233 
1.0055440137 -0.094080801584 -0.69190195356 0.92964895763 0.24717579464 -0.59502809831 0.99403534368 -0.5252248828 0.72121639141 
1.1950787739 -0.051966891816 -0.58086507005 -0.354814328 0.19149560536 -1.3972436255 -0.77913971126 0.41570427021 0.39597575371 
-0.57135467482 0.55515973098 0.22560768156 -1.0594399513 -0.21766828065 -0.98793608502 -0.7121161792 0.43587280767 -1.1553583196 
-0.41275935348 0.13866581973 -0.86043336582 0.21055791977 -0.81357623818 1.1092019265 0.11226790227 0.36950705573 -0.20119845797 
-0.33630896553 -0.35322576454 -0.00841021775 -0.24911939227 0.71752090179 0.19466009631 0.63113139442 0.19871802278 -0.10927659839 
0.71761461025 -0.46867381031 -0.69939854882 0.20151786487 -0.0018818463338 0.60122114012 0.25056236289 -0.55745336416 1.2308410208 
0.87406420637 -0.25697149603 -1.0085159335 -0.46655583005 -0.044799842771 0.48371887839 1.5441640945 1.4311835603 0.30476217309 
0.69322008839 1.2123462993 -0.33979445564 0.91095499102 -0.0019362345074 0.76426112125 0.26749881373 -0.81343582467 -1.4980131118 
0.44677501605 -0.7301834078 -1.7699463457 -1.0185295528 0.11944641545 -0.0030952744999 -0.15258754981 0.2176837046 -0.1211064114 
0.28803141597 -0.94494898126 -0.92360336088 0.15920527205 0.47096440654 0.86137339126 0.8660661645 -0.57049522217 0.74699759043 
0.73375056614 0.36638395476 0.077224017161 0.38643685464 0.421107595 0.20354109511 -0.25320647077 1.4202924942 0.65236989861 
-0.066768318965 0.45558113164 -0.54958217342 0.073639627055 -0.011201294261 -0.83044044858 0.29365906401 -0.067088789399 0.47067526719 
-0.081346365619 -0.41504536845 -1.201866999 0.33519620482 -0.078343011279 -0.51696075586 -1.1036916982 0.3759380161 0.34946931582 