# vtk DataFile Version 4.2
Generated by LIGGGHTS
ASCII
DATASET POLYDATA
POINTS 1000 float
1.34451 0.363834 0.451983 2.28464 0.752262 0.432038 3.49697 0.882819 0.637795 
4.97952 0.763218 0.0639919 0.983362 1.41107 0.42516 2.92416 1.70263 0.653407 
0.496539 2.36585 0.143463 4.00359 2.00999 0.574441 1.56298 2.92899 0.356881 
4.21949 2.98638 0.596694 0.677263 3.47886 0.354879 2.52546 3.27287 0.0879687 
0.083342 4.23611 0.072189 1.52788 4.04984 0.552229 4.28554 4.22468 0.278211 
1.16975 4.9133 0.0536334 2.99725 4.67576 0.46603 0.422278 0.56116 0.878532 
2.9919 0.0468015 0.853457 4.08758 0.135852 1.26702 4.44561 1.14681 0.818479 
0.00438453 1.70435 0.777399 1.7665 1.34811 1.04623 0.975158 2.35265 1.04612 
2.13629 2.41974 1.01043 3.23758 2.65178 0.682475 2.22081 4.16518 1.2811 
3.64355 4.29315 1.12852 4.51484 3.79024 1.19659 1.31389 0.544075 1.43533 
0.0479868 0.627052 1.81368 2.53833 0.742401 1.41239 3.51736 0.83346 1.70289 
0.728233 1.35429 1.40636 2.51875 1.72061 1.62088 3.50915 1.85723 1.66153 
4.49995 1.49844 1.7536 1.47976 1.90368 1.92068 4.60711 2.48199 1.92292 
0.271344 2.5786 1.83611 1.26847 2.88812 1.94079 2.3583 2.65059 1.95915 
3.72375 2.84892 1.62202 0.65473 3.42018 1.35669 2.90466 3.42214 1.41671 
1.35109 4.72873 1.33652 3.06256 4.52609 1.91771 1.59653 0.00814945 2.23401 
3.48794 0.201108 2.51456 0.710344 1.13637 2.38682 1.70471 1.00192 2.29875 
2.79031 0.946847 2.3865 4.72036 0.725846 2.35063 3.47343 1.82787 2.66163 
3.1288 3.02223 2.47832 2.41502 3.72484 2.49937 4.64024 3.49104 2.15569 
0.764766 4.06309 2.12031 3.62581 3.91857 2.48703 1.88742 4.50472 2.16301 
4.51706 4.47092 2.31305 0.925176 0.644803 3.24009 2.07734 0.656867 3.16339 
3.99193 0.901996 3.01929 1.41852 1.70498 3.02955 4.53972 1.72172 2.76792 
0.528842 2.41484 3.13373 2.41545 2.34952 2.94941 1.46069 2.72346 2.91873 
4.02804 2.65842 2.7213 0.690716 3.42093 3.02436 4.33353 3.56407 3.1134 
2.96847 3.93387 3.306 4.96516 4.32751 3.25579 1.18239 4.58318 2.87088 
2.15872 4.72551 3.10383 3.13491 4.89489 2.96048 0.166035 0.427592 3.85456 
3.71008 0.04098 3.65678 4.63337 0.421216 3.73919 3.38788 0.972133 3.82679 
0.613382 1.52549 3.61086 1.80156 1.5239 3.9357 2.64026 1.46228 3.35924 
4.26031 1.49958 3.77485 2.40986 2.37241 3.97541 3.32096 1.95901 3.97334 
3.16771 2.80446 3.4543 4.04506 2.92599 3.92604 4.8016 2.58506 3.35101 
1.31983 3.39272 3.80103 2.24041 3.23888 3.3745 0.131505 4.12109 3.48345 
1.79211 4.27461 3.93979 3.92148 4.45545 3.39732 2.23076 0.0518972 4.00907 
3.93451 0.438674 4.55663 0.553273 1.07932 4.50672 1.47364 0.681432 4.36717 
2.52322 0.953263 4.32878 4.73514 1.03758 4.53361 0.330739 2.18194 4.48104 
1.41434 2.43481 4.08788 4.12966 2.13502 4.5361 0.401143 3.11269 4.10717 
2.13504 3.28155 4.37268 4.49936 3.73312 4.43915 0.827229 4.16513 4.20196 
3.56218 3.83561 4.10499 4.05378 4.67907 4.53122 4.91151 4.94996 4.0895 
0.055026 0.260383 4.83462 1.78001 0.469285 5.30319 1.73692 1.48123 5.07405 
2.66872 1.83184 4.78743 3.53427 1.33124 4.76736 1.14412 2.30557 5.05017 
1.81692 2.99671 5.31795 3.96737 3.04442 4.93177 0.775415 3.4145 5.15518 
3.02493 3.39097 4.84736 1.51093 4.09879 4.92913 2.47451 4.23783 4.69636 
3.64965 4.15088 5.30846 0.494417 4.41063 5.18787 4.74052 4.471 5.24392 
3.3368 0.29944 5.40725 4.33098 0.392991 5.51418 0.79927 0.647777 5.38347 
2.62603 1.00071 5.3507 4.98541 1.15612 5.50189 0.465332 1.62907 5.3386 
3.97053 1.35618 5.66812 3.49396 2.18887 5.95165 0.515001 2.70211 5.80834 
2.75426 2.60595 5.41733 4.39926 2.56082 5.69306 2.58177 3.5395 5.75948 
4.4114 3.63146 5.6957 1.54867 3.87292 5.90341 1.91773 4.77086 5.66415 
2.84495 4.52869 5.95085 0.567593 0.398781 6.32719 1.49117 0.01004 6.18002 
3.27574 0.395866 6.40075 4.89389 0.229392 6.5817 1.26828 1.13551 6.30305 
2.1897 0.723911 6.31117 4.24592 0.992964 6.56247 0.474852 1.77333 6.32825 
2.05568 1.68323 6.01807 2.98408 1.36575 6.21125 1.45013 2.48961 6.09991 
2.92102 2.90591 6.4743 4.07114 3.08225 6.48126 1.86803 3.27076 6.63499 
0.561542 3.92388 6.05884 3.37334 3.79201 6.37304 3.63779 4.75271 6.54186 
0.835199 0.0379549 7.22249 1.68548 0.562287 7.17722 3.37494 1.10931 7.09526 
2.28838 1.35624 7.09959 4.99588 1.52237 7.067 1.25159 1.91512 6.94189 
2.15163 2.32541 6.79505 3.09812 2.06367 6.98336 4.06551 1.95935 6.75024 
0.883009 3.10387 6.67299 3.5029 3.08042 7.30518 2.5956 3.50435 7.27977 
4.54037 3.70165 7.18552 0.101695 4.26465 6.88709 3.23467 4.27233 7.32079 
1.16779 4.37958 6.71164 2.55193 4.97119 7.03226 2.66811 0.442983 7.36262 
3.45852 0.612682 7.95922 4.32696 0.413488 7.3847 0.78547 1.06576 7.44775 
1.22733 1.81727 7.93772 2.91109 1.47489 7.9125 4.17022 1.4145 7.62082 
0.277627 1.94267 7.41699 2.4181 2.3548 7.85337 3.59932 2.23156 7.83206 
4.63928 2.46752 7.39281 0.748882 2.69349 7.88027 1.65045 3.00504 7.57704 
0.191678 3.39536 7.41006 0.77113 4.18498 7.62736 1.76138 4.08673 7.47748 
3.99645 4.97805 7.55129 0.362623 0.341531 8.11705 1.92039 1.085 8.00741 
4.48971 0.741491 8.31535 0.540048 1.27577 8.42688 3.7191 1.4658 8.51226 
1.42157 2.54386 8.61603 4.20451 3.11508 8.01873 4.99079 2.70451 8.51546 
1.12853 3.64727 8.43611 2.09994 3.41681 8.37134 3.13928 3.59865 8.1137 
3.99442 4.21704 8.20117 4.88653 3.76516 8.35428 0.660328 4.70128 8.4772 
2.65965 4.52909 8.13564 0.162794 0.163055 9.0811 1.40461 0.592447 8.75075 
3.72279 0.513789 8.91931 2.46984 0.980421 8.83831 1.38474 1.58154 8.89673 
3.1267 1.63752 9.30163 4.71363 1.48624 8.94423 0.310337 2.46714 9.16609 
2.34576 2.22828 8.97762 3.77087 2.4301 8.79691 2.86363 3.09789 8.93501 
0.26002 3.46073 8.89537 3.80201 3.48807 8.86058 3.29346 4.34891 8.90676 
4.4318 4.26688 9.09947 1.59854 4.49102 8.85399 0.882187 0.62092 9.60341 
2.002 0.416104 9.53349 2.95492 0.71154 9.67402 4.02717 0.900754 9.78992 
0.598828 1.57596 9.51639 1.82575 1.37443 9.77147 1.40559 2.27548 9.61648 
2.38691 2.21972 9.98183 4.0542 1.88238 9.58399 4.98341 2.29591 9.47837 
3.3066 2.60428 9.68487 4.27374 2.99126 9.59524 1.03737 3.1931 9.46678 
1.91724 3.66797 9.39922 3.56832 3.6644 9.81816 0.811383 4.16993 9.38567 
2.23106 4.6952 9.77304 3.67927 4.79096 9.71889 2.68431 5.53835 0.0628522 
0.822258 5.96752 0.0479491 4.80932 5.93835 0.221034 2.17536 6.62774 0.627039 
3.12984 6.53641 0.202279 1.40623 7.31576 0.223718 4.74556 7.35601 0.533184 
1.97955 8.04374 0.602856 2.73231 7.76483 0.00640387 0.222364 8.14842 0.28313 
1.08256 8.50486 0.652951 3.02532 8.71792 0.0824651 4.53702 8.92512 0.305023 
0.862938 9.47168 0.353464 2.11619 9.69067 0.396824 3.93401 9.76454 0.339532 
0.433093 5.04484 1.08435 3.39973 5.33158 1.15568 4.3478 5.04267 0.865621 
0.564626 6.061 1.01135 1.51665 5.74394 0.848244 2.96505 6.35146 1.17797 
0.698811 7.04932 0.914972 1.63122 7.32981 1.24607 3.73064 7.17968 0.711471 
3.10427 8.07389 0.884854 4.08785 8.12111 0.69841 1.31333 9.30327 1.23026 
2.34432 8.91349 1.00547 3.35178 9.11771 0.940527 4.27896 9.07378 1.31264 
0.153314 9.6113 1.04422 4.90919 9.70513 0.860444 4.18149 5.84316 1.51262 
1.35696 6.36895 1.61828 2.27272 6.7383 1.79053 3.40037 7.09269 1.68965 
4.56398 7.40997 1.55828 0.831384 7.80586 1.63712 2.50039 7.69121 1.5901 
3.74449 8.03101 1.65454 0.478887 8.73629 1.41997 1.69073 8.3048 1.52401 
2.87285 8.58039 1.85602 4.65622 8.32803 1.94535 0.684351 9.82825 1.864 
2.15816 9.8177 1.39101 2.95016 9.57282 1.95232 0.445486 5.04474 2.08518 
1.35325 5.46094 2.14272 2.4776 5.31369 2.11412 3.53222 5.52685 2.29177 
0.428229 6.04159 2.00743 2.64072 6.20141 2.54992 4.92894 5.85366 2.18068 
1.62015 6.34217 2.58348 4.20063 6.70965 2.20341 0.396452 7.03545 2.11688 
3.17397 7.05359 2.66469 0.652773 7.84268 2.6488 1.55868 7.53912 2.27474 
2.46533 7.78083 2.62136 1.06369 8.65557 2.23577 1.99535 9.08066 2.07661 
3.77209 8.89837 2.15674 4.41166 9.76432 2.16834 0.230446 5.60334 2.88805 
1.41148 5.52298 3.13914 4.34335 5.30621 2.83484 0.675706 6.54813 3.1443 
3.9196 6.39766 3.11114 3.41993 8.00998 2.8325 4.46242 7.70722 2.71972 
1.2477 8.37368 3.27415 2.62033 8.74032 3.03526 4.16842 8.57908 3.17313 
0.385624 8.80941 2.98056 1.44477 9.28803 2.91117 3.48566 9.29536 3.02897 
4.99024 8.89501 2.69897 0.566239 9.78885 2.86024 2.45434 9.76573 2.90514 
4.48716 9.5353 3.28231 0.761923 5.04458 3.7302 3.67617 5.46257 3.58088 
0.241709 5.89068 3.84742 2.37677 5.66622 3.36332 4.87157 5.96324 3.37383 
1.57655 6.80845 3.49564 2.95837 6.47327 3.47069 2.39329 7.38679 3.53809 
3.39048 7.36494 3.61942 4.39251 7.16469 3.55922 0.792182 7.56181 3.6407 
0.396145 8.44338 3.91123 2.86472 8.35328 3.96947 4.87421 8.23692 3.80769 
1.97292 9.06085 3.72985 2.9233 9.34633 3.85433 0.386094 9.45264 3.88666 
1.29256 9.84831 3.72676 2.60072 5.08338 4.14699 3.50591 5.50569 4.66 
1.4846 5.83239 4.18119 4.37233 5.7815 4.22399 0.679891 6.72635 4.17919 
2.08043 6.75131 4.35756 3.26947 6.44744 4.42078 4.76045 6.69227 4.36514 
1.29394 7.44288 4.51057 3.8665 7.24637 4.50747 0.288998 7.65608 4.51946 
1.86128 8.10662 4.01756 2.54223 7.6146 4.56153 3.90262 8.12334 4.02265 
1.18458 8.89927 4.32418 3.95954 9.12516 4.02717 4.97986 9.17124 4.14919 
1.03527 5.08928 4.69099 1.79292 5.59319 5.10589 2.6896 5.15117 5.15482 
4.40345 5.47433 5.17516 0.587279 5.97092 4.8562 2.61819 6.15841 5.12523 
0.069217 6.81309 5.01128 1.38541 6.5468 5.05075 1.66876 8.04325 5.21869 
3.35388 8.09895 4.88939 4.71451 7.61628 4.88839 0.714574 8.39027 5.0521 
4.26669 8.5128 4.86871 0.390318 9.34349 5.05603 2.09333 8.81834 4.74284 
2.93156 8.91474 5.28478 1.2577 9.79141 4.77053 3.38923 9.58925 4.70518 
4.7925 9.95315 4.74372 0.0268036 5.20291 5.59348 3.5773 5.12076 5.61394 
0.0994474 6.18346 5.78753 1.82507 6.41389 5.9422 3.58359 6.28532 5.36721 
4.44219 6.7972 5.40105 0.74074 7.44985 5.39453 2.20441 7.18448 5.40027 
3.54639 7.29172 5.45419 2.61343 8.04925 5.70466 4.77732 7.68201 5.88432 
3.84967 8.14112 5.9003 4.93366 8.6384 5.60351 1.62096 9.25309 5.53414 
2.47645 9.78064 5.51077 4.12439 9.3779 5.34982 4.99047 9.65577 5.76796 
0.823512 5.1697 6.19895 1.9892 5.49663 6.34989 2.89554 5.77729 6.03405 
3.75254 6.15702 6.38248 4.65639 5.88042 6.05589 0.875476 6.72093 6.12329 
[...]
POINT_DATA 1000
FIELD FieldData 7
id 1 1000 int
523 544 555 15 7 540 610 556 20 
559 600 21 365 109 658 597 148 522 
548 150 170 1 31 501 547 542 892 
393 54 26 518 63 33 41 67 539 
535 909 53 504 130 874 162 255 922 
142 424 561 560 541 24 80 654 25 
450 300 572 404 656 759 683 551 49 
58 626 52 508 32 418 45 269 92 
939 439 762 927 924 545 187 46 51 
30 37 62 538 36 48 69 568 101 
263 288 769 766 60 188 59 570 562 
588 349 42 283 574 276 776 692 286 
43 674 423 677 197 566 70 61 294 
84 591 296 50 783 408 56 816 970 
582 342 707 663 354 68 75 87 278 
589 581 79 719 322 284 571 191 699 
82 858 202 78 840 220 583 74 578 
584 235 580 323 592 698 704 230 833 
104 851 72 97 608 598 567 105 110 
695 831 577 66 702 576 123 856 217 
120 512 357 95 128 114 846 590 602 
337 585 125 630 726 715 10 226 554 
599 515 12 107 121 594 510 4 81 
742 112 236 372 528 604 557 782 116 
506 546 11 86 532 529 28 117 530 
735 13 552 607 514 531 505 279 277 
543 44 605 603 27 73 596 139 612 
240 622 147 129 716 617 625 635 611 
3 718 839 146 5 18 272 641 642 
717 521 134 884 138 723 144 370 640 
133 140 633 14 750 643 899 624 616 
232 173 646 631 912 174 141 731 71 
534 22 752 872 990 156 979 650 653 
659 614 160 651 648 639 154 167 29 
8 502 262 749 655 415 657 149 629 
682 636 402 163 169 638 381 644 661 
35 292 194 791 175 615 177 681 171 
647 623 920 185 155 39 684 662 649 
673 419 207 297 645 945 190 193 410 
198 652 186 180 637 157 199 172 275 
789 317 669 165 321 664 470 948 178 
660 161 189 446 679 182 676 670 192 
301 314 215 933 709 164 159 666 675 
153 181 916 935 456 678 195 565 830 
807 573 211 680 184 800 701 196 940 
179 671 686 685 474 335 665 85 347 
563 103 737 214 315 91 703 219 98 
203 691 206 938 689 218 200 971 209 
870 710 126 527 99 628 224 713 976 
708 210 972 705 688 221 212 857 208 
303 586 511 77 736 339 729 225 999 
238 734 820 961 969 733 223 363 593 
503 168 634 694 229 714 237 239 727 
991 696 732 246 997 722 115 601 632 
242 135 137 152 234 243 855 520 231 
861 724 507 745 879 399 47 747 873 
364 271 847 368 274 19 852 900 849 
299 260 378 533 484 490 881 843 860 
746 252 280 761 862 526 672 356 366 
841 911 267 842 809 264 524 519 251 
282 259 358 420 786 753 668 369 380 
250 889 748 896 757 817 891 17 758 
575 289 768 767 293 793 261 928 257 
569 756 413 23 904 311 777 765 253 
469 316 290 778 866 796 811 781 790 
784 785 780 96 812 258 763 302 815 
744 310 764 813 431 291 298 427 798 
775 536 295 755 102 774 345 324 449 
304 814 430 319 779 818 832 808 553 
83 306 952 802 318 929 801 285 468 
452 312 406 55 353 305 308 94 819 
325 89 351 340 343 712 478 307 329 
320 836 333 355 549 377 352 228 834 
810 797 829 476 489 835 348 330 706 
201 331 338 499 205 838 113 564 64 
359 57 743 371 346 738 985 332 739 
336 473 488 587 326 826 1000 825 106 
247 6 978 988 496 244 868 725 268 
848 241 118 216 361 373 213 579 38 
483 595 90 100 537 850 823 256 880 
482 982 119 122 989 124 127 513 558 
859 869 266 88 550 76 93 993 721 
895 248 509 867 980 606 270 854 111 
287 367 158 760 794 613 609 108 973 
865 517 376 498 401 621 963 494 981 
975 486 9 131 166 360 375 392 145 
265 983 495 885 485 385 492 986 136 
405 2 918 728 437 254 500 771 395 
143 770 273 16 773 396 386 754 984 
432 772 898 871 886 389 897 878 901 
905 987 394 34 400 620 151 882 788 
383 384 398 883 397 894 426 390 887 
876 893 903 921 907 313 281 403 414 
387 888 906 412 457 751 926 438 40 
382 433 417 436 461 902 877 388 919 
914 925 422 411 917 910 429 908 913 
951 806 425 923 453 915 416 409 440 
434 435 407 937 787 448 795 792 443 
428 309 942 459 944 421 941 183 946 
950 943 803 462 934 65 967 442 799 
837 447 454 444 460 964 455 204 693 
458 441 334 931 176 821 949 667 992 
497 805 467 965 824 451 947 697 930 
864 687 954 958 959 690 822 463 827 
700 472 711 960 445 804 936 932 464 
481 953 966 741 957 222 525 974 327 
955 465 344 962 374 471 720 996 994 
998 863 487 227 466 627 516 956 350 
619 341 233 491 828 328 477 977 479 
968 379 875 245 249 845 890 618 740 
493 853 480 844 730 475 995 391 132 
362 
type 1 1000 int
2 2 2 1 1 2 2 2 1 
2 2 1 1 1 2 2 1 2 
2 1 1 1 1 2 2 2 2 
1 1 1 2 1 1 1 1 2 
2 2 1 2 1 2 1 1 2 
1 1 2 2 2 1 1 2 1 
1 1 2 1 2 2 2 2 1 
1 2 1 2 1 1 1 1 1 
2 1 2 2 2 2 1 1 1 
1 1 1 2 1 1 1 2 1 
1 1 2 2 1 1 1 2 2 
2 1 1 1 2 1 2 2 1 
1 2 1 2 1 2 1 1 1 
1 2 1 1 2 1 1 2 2 
2 1 2 2 1 1 1 1 1 
2 2 1 2 1 1 2 1 2 
1 2 1 1 2 1 2 1 2 
2 1 2 1 2 2 2 1 2 
1 2 1 1 2 2 2 1 1 
2 2 2 1 2 2 1 2 1 
1 2 1 1 1 1 2 2 2 
1 2 1 2 2 2 1 1 2 
2 2 1 1 1 2 2 1 1 
2 1 1 1 2 2 2 2 1 
2 2 1 1 2 2 1 1 2 
2 1 2 2 2 2 2 1 1 
2 1 2 2 1 1 2 1 2 
1 2 1 1 2 2 2 2 2 
1 2 2 1 1 1 1 2 2 
2 2 1 2 1 2 1 1 2 
1 1 2 1 2 2 2 2 2 
1 1 2 2 2 1 1 2 1 
2 1 2 2 2 1 2 2 2 
2 2 1 2 2 2 1 1 1 
1 2 1 2 2 1 2 1 2 
2 2 1 1 1 2 1 2 2 
1 1 1 2 1 2 1 2 1 
2 2 2 1 1 1 2 2 2 
2 1 1 1 2 2 1 1 1 
1 2 1 1 2 1 1 1 1 
2 1 2 1 1 2 1 2 1 
2 1 1 1 2 1 2 2 1 
1 1 1 2 2 1 1 2 2 
1 1 2 2 1 2 1 2 2 
2 2 1 2 1 2 2 1 2 
1 2 2 2 1 1 2 1 1 
2 1 2 1 1 1 2 1 1 
1 2 1 2 2 1 1 2 1 
2 2 1 2 1 2 1 2 2 
2 1 2 2 2 1 1 2 1 
1 2 2 1 2 1 2 1 2 
1 2 2 2 2 2 1 1 2 
2 1 2 2 1 2 1 1 2 
2 2 2 1 2 2 1 2 2 
1 1 1 1 1 1 2 2 1 
2 2 2 2 2 1 1 2 2 
1 1 2 1 1 1 2 2 2 
1 1 1 2 1 1 2 2 2 
2 1 1 2 2 2 2 1 1 
2 2 1 2 2 1 2 2 1 
1 1 1 1 2 2 2 1 1 
1 2 2 2 2 2 2 1 2 
2 1 2 2 1 2 1 2 1 
2 2 1 1 2 1 2 2 1 
1 1 1 2 2 2 2 2 2 
2 2 2 1 2 1 2 1 2 
2 1 2 2 1 1 1 1 2 
2 2 1 2 1 2 1 1 1 
1 2 1 1 2 2 2 2 2 
1 1 2 2 1 2 2 1 1 
1 1 1 1 1 1 1 1 2 
1 1 1 1 1 2 1 1 1 
1 2 1 1 2 1 1 1 2 
2 2 2 1 1 2 1 1 2 
1 1 1 1 1 2 1 2 1 
1 1 2 1 1 2 2 1 2 
1 1 1 2 1 2 2 2 1 
1 1 2 2 1 1 2 2 1 
2 1 1 1 1 1 1 2 1 
1 2 1 1 2 2 2 1 2 
1 2 1 1 2 1 1 2 2 
2 2 1 1 2 1 1 2 2 
2 1 2 2 2 2 1 2 1 
1 1 1 2 2 2 2 1 2 
2 2 1 1 1 2 2 1 2 
2 1 1 1 1 1 1 1 1 
1 2 1 2 1 1 1 2 1 
1 1 2 2 1 1 1 2 1 
1 2 1 1 2 1 1 2 2 
1 2 2 2 2 1 2 2 2 
2 2 1 1 1 2 1 2 2 
1 1 1 2 1 2 1 1 2 
2 2 2 2 2 1 1 1 1 
1 2 2 1 1 2 2 1 1 
1 1 1 1 1 2 2 1 2 
2 2 1 1 2 2 1 2 2 
2 2 1 2 1 2 1 1 1 
1 1 1 2 2 1 2 2 1 
1 1 2 1 2 1 2 1 2 
2 2 2 1 2 1 2 1 2 
2 1 1 1 1 2 1 1 2 
1 1 1 2 1 2 2 2 2 
1 2 1 2 2 1 2 2 2 
2 2 2 2 2 2 2 1 2 
2 1 2 2 1 2 2 2 1 
1 2 2 2 2 1 2 2 1 
2 1 1 2 1 1 2 2 2 
2 2 1 1 1 2 2 2 1 
2 1 1 1 2 1 1 2 1 
2 1 2 1 1 2 2 2 2 
1 2 1 2 2 1 2 1 1 
1 
i 3 1000 int
0 0 0 0 0 0 0 0 0 
0 0 0 0 0 0 0 0 0 
0 0 1 0 0 0 0 0 0 
0 0 0 0 0 1 0 0 0 
1 0 1 0 0 1 0 0 0 
0 0 1 0 0 0 0 0 0 
0 0 0 0 1 0 0 1 0 
0 0 0 0 0 0 0 0 0 
0 0 0 0 0 0 1 0 0 
1 0 0 0 0 0 0 0 0 
0 0 0 0 0 0 0 0 0 
0 0 0 0 0 0 0 0 0 
0 0 0 1 0 0 0 0 0 
0 0 0 0 0 0 1 0 0 
0 0 0 1 0 0 1 0 0 
0 0 0 1 0 0 0 0 0 
0 0 0 0 0 0 0 0 0 
0 0 0 0 1 0 0 0 0 
1 0 0 1 0 0 0 0 0 
1 0 0 0 0 0 1 0 0 
0 0 0 0 0 0 0 0 0 
0 0 0 0 0 0 0 0 0 
0 0 0 0 0 0 1 0 0 
0 0 0 1 0 0 0 0 0 
1 0 0 0 0 0 1 0 0 
1 0 0 1 0 0 0 0 0 
0 1 0 0 0 0 0 0 0 
0 0 0 0 0 0 0 0 0 
0 0 0 0 0 0 0 0 0 
0 0 0 0 0 0 0 0 0 
1 0 0 1 0 0 1 0 0 
1 0 0 0 0 0 0 1 0 
0 0 0 0 0 0 0 0 0 
0 0 0 0 0 0 0 0 0 
1 0 0 0 0 0 1 0 0 
1 0 0 0 0 0 1 0 0 
0 0 0 0 0 0 0 0 0 
0 1 0 0 1 0 0 0 0 
0 0 0 0 0 0 1 0 0 
0 0 0 0 0 0 1 0 0 
0 0 0 1 0 0 1 0 0 
0 0 0 1 0 0 0 0 0 
0 0 0 0 0 0 0 1 0 
0 1 0 0 0 0 0 0 0 
0 0 0 0 0 0 1 0 0 
0 0 0 0 0 0 0 0 0 
0 0 0 1 0 0 1 0 0 
0 0 0 0 1 0 0 1 0 
0 0 0 0 0 0 0 1 0 
0 0 0 0 0 0 0 1 0 
0 0 0 0 0 0 0 0 0 
0 0 0 0 0 0 0 0 0 
1 0 0 0 0 0 0 0 0 
0 1 0 0 1 0 0 0 0 
0 0 0 0 0 0 0 0 0 
0 0 0 0 0 0 0 0 0 
0 0 0 0 0 0 0 0 0 
0 0 0 1 0 0 0 0 0 
0 0 0 0 0 0 0 0 0 
0 0 0 0 0 0 0 1 0 
0 0 0 0 0 -1 0 0 0 
0 0 0 0 0 0 0 0 0 
0 0 0 0 0 0 0 0 0 
1 0 0 0 0 0 0 0 0 
0 0 -1 0 1 0 0 1 0 
0 0 -1 0 1 0 0 0 -1 
0 0 0 0 0 -1 0 0 -1 
0 0 0 0 0 0 0 0 0 
0 0 -1 0 0 -1 0 0 0 
0 0 0 0 0 0 0 1 0 
0 0 0 0 0 -1 0 0 0 
0 0 -1 0 0 -1 0 0 0 
0 0 -1 0 0 -1 0 0 -1 
0 0 0 0 0 -1 0 0 -1 
0 0 -1 0 0 0 0 0 -1 
0 1 0 0 0 -1 0 0 -1 
0 0 0 0 0 -1 0 0 -1 
0 0 -1 0 0 -1 0 0 -1 
0 0 -1 0 0 -1 0 0 0 
0 0 0 0 0 -1 0 0 0 
0 0 0 0 0 -1 0 0 0 
0 0 1 0 0 0 0 0 0 
0 0 0 0 0 1 0 0 0 
0 0 0 0 0 0 0 0 0 
0 -1 0 0 0 1 0 -1 1 
0 0 0 0 -1 0 0 -1 0 
1 0 0 0 0 0 0 0 0 
0 0 1 0 0 0 0 0 0 
1 0 0 0 0 0 0 0 1 
0 0 0 0 -1 1 0 0 0 
0 0 0 0 0 0 0 0 0 
0 -1 0 0 -1 0 0 0 0 
1 0 0 0 0 0 0 0 0 
0 0 1 0 0 0 0 0 0 
0 0 0 1 0 0 0 0 0 
0 0 0 0 0 1 0 -1 0 
0 -1 0 0 -1 0 1 0 0 
1 0 0 1 0 1 0 0 0 
1 0 1 0 0 0 0 0 0 
0 0 0 0 0 0 0 0 0 
0 0 0 0 0 0 0 0 0 
0 0 0 0 0 0 0 -1 0 
0 -1 0 0 -1 0 1 0 0 
1 0 0 0 0 0 1 0 0 
0 0 0 0 0 0 0 0 0 
0 0 0 0 0 0 0 0 0 
0 0 0 0 0 0 0 0 0 
0 0 0 0 0 0 0 0 0 
0 -1 0 1 0 0 0 0 0 
1 0 0 0 0 0 0 0 0 
0 0 0 0 0 0 0 0 0 
0 0 0 0 0 0 1 0 0 
0 0 0 0 0 0 0 -1 0 
0 0 0 0 0 0 0 0 0 
0 0 0 1 0 0 0 0 0 
1 0 0 0 0 0 1 0 0 
0 0 0 0 0 0 0 0 0 
0 0 0 0 0 0 0 0 0 
0 0 0 0 0 0 0 0 0 
0 0 0 0 0 0 0 -1 0 
1 0 0 1 0 0 0 0 0 
0 0 0 1 0 0 0 0 0 
1 0 0 1 0 0 0 0 0 
0 0 0 0 0 0 0 0 0 
0 0 0 0 0 0 0 0 0 
0 0 0 0 0 0 0 0 0 
0 -1 0 1 0 0 0 0 0 
1 0 0 0 0 0 0 0 0 
0 0 0 0 0 0 0 0 0 
0 0 0 0 0 0 0 0 0 
0 0 0 0 0 0 0 0 0 
0 0 0 0 -1 0 0 -1 0 
1 0 0 0 0 0 0 0 0 
0 0 0 0 0 0 1 0 0 
0 0 0 0 0 0 0 0 0 
0 0 0 0 0 0 0 0 0 
0 0 0 0 0 0 0 -1 0 
0 0 0 0 -1 0 0 -1 0 
0 0 0 0 0 0 0 0 0 
0 0 0 1 0 0 0 0 0 
0 0 0 0 0 0 0 0 0 
0 0 0 0 0 0 0 0 0 
0 0 0 0 0 0 0 0 0 
0 0 0 0 0 0 0 0 0 
0 -1 0 0 0 0 0 -1 0 
0 0 -1 0 0 0 0 0 -1 
0 0 0 0 0 0 0 0 0 
0 0 0 0 0 0 0 0 0 
0 0 0 0 0 0 0 0 0 
0 0 0 0 -1 0 0 0 0 
1 0 0 0 0 0 0 0 -1 
0 0 0 0 0 0 1 0 0 
0 0 0 0 0 0 0 0 0 
0 0 0 0 0 0 0 -1 0 
0 0 0 0 0 0 0 0 0 
0 0 0 0 -1 0 0 0 0 
0 0 -1 0 0 -1 0 0 -1 
0 0 0 0 0 0 0 0 0 
0 0 0 0 0 0 0 0 0 
1 0 0 0 0 0 0 0 0 
0 0 0 0 0 0 0 0 0 
0 0 0 0 0 0 0 0 -1 
0 0 0 0 0 -1 0 0 -1 
0 0 -1 0 0 0 0 0 0 
0 -1 0 0 -1 -1 0 0 0 
0 -1 0 0 0 0 0 -1 -1 
0 -1 -1 0 1 0 0 1 0 
0 0 0 0 0 0 0 1 0 
0 0 1 0 0 0 0 0 1 
0 0 1 0 0 0 0 0 0 
0 0 1 0 0 0 0 0 1 
0 0 0 0 0 0 0 0 1 
0 0 0 0 1 1 0 1 1 
0 1 0 0 0 1 0 0 1 
0 0 0 0 0 0 0 0 0 
0 0 0 0 0 1 -1 0 0 
0 0 0 0 0 1 0 0 1 
0 0 1 0 0 0 0 0 0 
0 0 1 0 0 0 0 0 0 
0 0 0 -1 0 0 0 0 0 
0 0 0 0 0 0 0 0 1 
0 0 0 0 0 0 0 0 0 
0 0 0 0 0 1 0 0 1 
0 0 0 0 1 0 0 0 0 
0 1 0 0 0 0 0 0 0 
0 1 0 -1 0 0 0 0 0 
0 0 0 0 0 0 0 0 0 
0 0 0 0 0 0 0 0 0 
0 0 0 0 1 0 0 0 0 
0 0 0 0 0 0 0 1 0 
-1 0 0 0 1 0 0 0 0 
0 0 0 0 0 0 0 0 0 
0 0 0 0 0 0 0 0 0 
0 0 0 0 0 1 0 0 0 
0 0 0 0 0 0 0 0 0 
0 0 0 0 0 0 0 0 0 
0 0 0 0 0 0 0 0 0 
0 0 0 0 0 0 0 0 0 
0 0 0 0 0 0 0 0 0 
0 0 0 0 0 0 0 0 0 
0 0 0 0 1 0 0 0 0 
0 0 0 -1 0 0 0 0 0 
0 0 0 0 0 0 0 0 0 
0 0 0 0 0 0 0 0 0 
0 0 0 0 0 0 0 0 0 
0 0 0 0 0 0 0 0 0 
0 0 0 0 0 0 -1 0 0 
0 0 0 0 0 0 0 0 0 
0 0 0 0 0 0 0 0 0 
0 0 0 0 0 0 0 0 0 
0 0 0 0 0 0 0 0 0 
-1 0 0 0 0 0 0 0 0 
0 0 0 0 0 0 0 0 0 
0 0 0 0 0 0 0 0 0 
0 0 0 0 0 0 0 0 0 
0 0 0 0 0 0 0 0 0 
0 0 0 0 0 0 0 0 0 
0 0 0 -1 0 0 0 0 0 
0 0 0 0 0 0 0 0 0 
0 0 0 0 0 0 0 0 0 
0 0 0 0 0 0 0 0 0 
0 0 0 0 0 0 -1 1 0 
-1 1 0 0 0 0 0 0 0 
0 1 0 -1 1 0 0 0 0 
0 0 0 -1 0 0 -1 0 0 
0 0 0 -1 0 0 0 0 0 
0 0 0 0 0 0 0 0 0 
0 0 0 0 0 0 0 0 0 
0 0 0 0 1 0 0 1 0 
-1 0 0 0 0 0 0 0 0 
0 0 0 0 0 0 0 0 0 
0 0 0 0 0 -1 0 0 0 
0 1 0 0 1 0 -1 1 0 
0 0 0 -1 1 0 0 0 -1 
0 0 0 -1 1 0 -1 0 0 
-1 1 0 0 0 0 0 0 0 
-1 1 0 -1 0 0 0 0 -1 
0 0 0 0 0 0 -1 0 0 
-1 0 0 0 0 -1 0 0 0 
0 0 0 0 0 -1 0 1 -1 
0 1 0 0 1 0 -1 0 0 
-1 0 0 0 1 0 -1 0 0 
-1 0 0 0 0 -1 0 0 -1 
0 0 0 0 0 0 0 0 -1 
-1 0 0 0 0 -1 -1 0 0 
-1 0 0 0 1 0 -1 1 0 
0 1 -1 -1 1 0 -1 0 -1 
0 0 0 0 1 0 -1 0 0 
0 0 -1 0 0 0 -1 0 0 
0 0 -1 0 0 0 0 0 -1 
0 0 -1 0 0 0 0 0 0 
0 0 1 -1 0 1 0 0 1 
0 0 1 0 0 0 0 0 1 
0 0 1 0 0 0 -1 0 0 
0 0 1 0 0 1 0 0 1 
0 0 1 0 0 1 -1 -1 0 
0 0 0 0 0 0 0 0 1 
0 0 1 0 0 0 0 0 0 
0 0 0 0 0 1 0 0 1 
0 0 0 0 0 1 0 0 0 
0 0 1 0 0 1 -1 0 0 
0 0 0 -1 -1 0 0 0 0 
0 0 1 0 0 0 0 0 0 
0 0 1 0 0 0 0 0 0 
0 0 0 0 0 0 0 0 0 
-1 -1 0 0 -1 0 0 0 0 
0 0 0 0 0 0 0 0 1 
0 0 0 0 0 0 0 0 0 
0 0 0 0 0 0 0 0 0 
0 0 0 0 0 0 0 0 0 
0 0 0 0 0 1 0 0 0 
-1 -1 0 0 0 0 0 0 0 
0 0 0 0 0 0 0 0 0 
0 0 0 0 0 0 0 0 0 
0 0 0 0 0 0 0 0 0 
0 0 0 0 0 0 0 0 0 
0 0 0 0 0 0 0 0 0 
0 0 0 0 0 0 0 0 0 
0 0 0 0 0 0 0 0 0 
0 0 0 0 0 0 0 0 0 
0 0 0 0 0 0 0 -1 0 
0 0 0 0 0 0 0 -1 0 
0 0 0 0 0 0 0 0 0 
0 0 0 0 0 0 0 0 0 
0 0 0 0 0 0 0 0 0 
0 0 0 0 0 0 0 0 0 
0 0 0 0 0 0 0 0 0 
0 0 0 0 0 0 0 0 0 
0 0 0 0 -1 0 0 0 0 
0 0 0 0 0 0 0 0 0 
0 0 0 0 0 0 0 0 0 
0 0 0 0 0 0 0 0 0 
0 0 0 0 -1 0 0 0 0 
0 -1 0 0 -1 0 0 0 0 
0 0 0 0 0 0 0 0 0 
0 0 0 0 0 0 0 0 0 
0 0 0 -1 0 0 0 0 0 
0 0 0 0 0 0 0 -1 0 
0 0 0 0 0 0 -1 -1 0 
0 0 0 0 0 0 0 0 0 
0 0 0 0 0 0 0 0 0 
0 0 0 0 0 0 0 0 0 
0 0 0 -1 0 0 -1 0 0 
0 0 0 0 0 0 0 -1 0 
0 0 0 -1 0 0 0 -1 0 
0 0 0 -1 0 0 0 0 0 
0 0 0 0 0 0 0 0 0 
0 0 0 0 0 0 0 0 0 
0 0 0 -1 0 0 0 0 0 
0 0 0 -1 0 0 0 0 0 
0 0 0 0 0 0 -1 0 0 
0 -1 0 0 0 0 0 -1 0 
-1 0 0 0 0 0 0 0 0 
0 0 0 0 0 0 0 0 0 
0 0 0 0 0 0 0 0 0 
0 0 0 0 0 0 0 0 0 
-1 0 0 0 0 0 -1 0 0 
0 0 -1 0 0 0 0 0 0 
0 0 0 0 0 0 0 0 0 
0 0 0 0 0 0 0 0 0 
-1 0 0 0 0 0 0 0 0 
0 0 0 0 -1 0 0 0 0 
-1 0 0 0 0 0 0 0 -1 
0 0 -1 0 0 0 0 0 0 
0 0 -1 0 0 0 -1 0 0 
0 0 0 0 0 0 0 0 0 
0 0 0 0 0 0 0 0 0 
0 0 0 0 0 0 0 0 -1 
-1 0 0 0 0 -1 0 0 0 
0 0 -1 0 0 -1 0 0 0 
0 0 0 0 0 0 0 0 0 
0 0 0 -1 0 0 0 0 0 
0 0 0 0 0 -1 -1 0 -1 
0 -1 0 
v 3 1000 double
-0.083149630841 -0.04070698783 -0.12823828345 0.031195401276 -0.1104369767 -0.089897862641 -0.053851140747 -0.10402727373 -0.14273713337 
0.026996812313 -0.033767590967 -0.098865342775 -0.13462111079 -0.087736126084 -0.059889186237 -0.074066149774 -0.12069660346 -0.21870690317 
-0.12430407039 0.026329198608 0.096358952878 -0.13709329046 -0.16810624477 -0.26059120518 -0.036539697701 0.06436564175 0.038729590969 
0.020044425918 -0.20148063008 -0.16580368178 -0.023335229632 0.045355349328 0.081564542201 0.014041770068 -0.015829902161 -0.12763521646 
0.073189096479 0.16983776275 0.16584094149 0.02299516561 0.072943970426 -0.037801458458 0.17531531308 -0.10582728261 -0.32025949908 
0.07653978759 0.080941959426 0.21134090189 0.27159668276 -0.23153691315 -0.17004208049 -0.11437962531 -0.048145459922 -0.030129394936 
0.032828166384 -0.13282835244 -0.037163144123 -0.024772420205 -0.16859081138 -0.0015732898653 -0.039297356805 -0.089633951696 -0.16175772641 
-0.12653367438 -0.045601948458 0.035155434057 -0.05948612099 -0.10960751219 -0.14896725555 0.0077581788191 -0.12543821845 0.036890782482 
-0.045109145673 -0.10477961892 -0.068242196919 -0.058305680305 -0.12012785021 -0.27107516466 0.097979874649 -0.0004892966109 -0.088617959777 
0.33082703283 -0.18961347976 -0.19983409572 0.37288921054 -0.13979957971 -0.33365776178 -0.14124132726 -0.067520135576 -0.1268666204 
-0.039237465261 -0.035972965884 -0.013799894992 -0.077850379348 -0.087294492962 -0.14164725475 -0.042435763325 -0.081424752929 -0.14106959852 
-0.14883591551 -0.071010387415 -0.049447031723 0.00092802371177 -0.092204192045 -0.24104180186 -0.010888526434 -0.047095860982 -0.32958906317 
0.017362438127 -0.062630859109 -0.16624617145 0.093742591025 -0.091180417839 -0.2170197584 0.15874111323 -0.039473106955 -0.3331613924 
0.051902447261 -0.051415410012 0.12258713417 0.14550001127 -0.058791204484 0.0065206934935 0.040588402147 -0.12940071656 -0.074069820397 
0.1672761448 -0.054389015881 -0.36670560114 0.058937154802 -0.059791092376 0.08987665493 0.0028606470105 -0.16508372967 -0.24929269916 
0.17952892651 0.0055416023373 0.042388471271 0.30234313675 -0.15888901576 -0.24205681689 0.033590202689 -0.062824611641 -0.17448956751 
0.054056353951 -0.22243600823 -0.15020714562 0.056209374431 -0.07359396591 -0.050153227578 0.030398842799 -0.074866176458 -0.11273393394 
-0.011374283964 -0.19408341385 -0.080915780374 0.10118196808 -0.04168692458 -0.14956638853 0.0085176941117 -0.099435242448 -0.32813148703 
0.17174276735 -0.21810192098 -0.20055405444 0.15588264633 -0.21218007456 -0.21475349856 0.099642522565 -0.10359999425 -0.23841129664 
0.19563524261 -0.1435142757 0.16186892628 0.2081600427 -0.25796753264 -0.27084290674 0.19490521828 -0.11399792784 0.0092070550214 
0.15584412643 -0.097753649298 -0.24176601138 0.05407274788 -0.053575697317 -0.020974229534 -0.068467001745 -0.088362326432 -0.065756690696 
0.0045684489816 -0.13661232313 -0.21918524367 0.0082191952723 -0.080077512747 -0.09567903078 0.057841688032 -0.18746978338 -0.30862892554 
0.0035175738615 0.035802858633 0.016071685989 0.13979628725 -0.071810522302 -0.25821775732 0.063239992506 -0.093334990539 0.019576743317 
0.19001366791 -0.21509225062 -0.25925332885 0.071306049467 0.016844547682 0.13668154986 0.16433844225 -0.22209653498 -0.18585134716 
0.20563931074 -0.18233115384 -0.24737327029 0.026165335913 -0.11348244674 -0.10776222656 0.28497916091 -0.11241039215 0.10515401515 
0.30521591248 -0.25041147086 -0.062503701137 0.29669851029 -0.18562755664 -0.20653479651 0.050257083641 0.032288509026 0.0053008369766 
-0.039423802246 -0.13676655063 -0.074482950913 -0.025221060019 -0.077881928536 -0.12069929741 -0.0044261952035 -0.10129956014 -0.19033770471 
0.076425791107 -0.012461721486 -0.05203334427 0.045684584264 -0.062192490222 -0.10629896349 -0.0014018187769 -0.088208406579 -0.20885193471 
0.099424424044 -0.15245915019 -0.23986041313 0.034253055382 -0.012005417383 -0.23520800835 -0.011536694768 -0.11206087686 -0.15619025438 
0.17649861857 -0.12049621197 -0.24912954773 0.19578107022 -0.12401308586 -0.28247885292 0.1922754353 -0.15169418389 -0.28068162962 
0.17843430751 -0.023008623994 0.022693847318 0.10524229339 -0.15108640183 -0.081843961034 0.17482641565 -0.032748685249 0.043354662355 
0.19126434715 0.013042294544 0.038025045041 0.23066121508 -0.23741115346 -0.12286503328 -0.0080162400105 -0.048840709753 -0.088215207735 
-0.074513071291 -0.022790049441 -0.11604957755 0.014820521273 0.069786029594 -0.010555581972 -0.014996323083 0.013977557313 -0.072310658389 
0.050563360676 -0.060004884845 -0.10820856808 -0.024470879369 -0.090907880839 -0.11166769015 0.1062194134 0.027587721358 -0.060639453645 
0.055352863862 -0.067193357579 -0.0064303300272 0.071144558912 -0.14658519437 -0.25471316562 0.14133890434 0.11294956521 0.081406434352 
0.22785167637 -0.0052570509266 -0.040384369364 0.11954245921 -0.084382674753 -0.19116034213 0.15948776625 -0.039077322086 0.031397105969 
0.066186421303 -0.20976787729 -0.12783321186 -0.0031001665991 -0.10788706466 -0.16622614785 0.024628741717 -0.077301346689 -0.094694627272 
-0.088560178684 0.084785474217 0.010524819272 -0.059761980135 0.031765870537 -0.026263336679 -0.064592090923 -0.066453327703 -0.063522849802 
-0.075997880315 -0.0074642253513 -0.15545350035 -0.078729165195 -0.012232553003 -0.16422631215 0.054038605834 -0.033738526466 0.033616002955 
-0.042945254486 0.10973121261 -0.058219682046 0.10858874581 -0.10992031501 -0.23997059544 0.20925435078 0.080598785794 0.063486606523 
0.093583755522 -0.16298604647 -0.14463866936 0.22894848888 0.084457889991 -0.019357809164 0.25680382816 0.023224760319 0.026568710362 
0.043507670193 -0.064919995209 -0.11117736179 0.20255590082 0.065202840063 0.093044713929 0.051609228729 -0.14945728926 -0.22250894704 
-0.13081761966 0.011143697092 -0.11637085103 -0.11028194497 -0.091875658254 -0.060802776326 -0.057211977759 0.030159543171 0.015297387486 
-0.080962641251 0.06894757028 -0.058296873832 0.013686789892 -0.18724477218 -0.094295812886 -0.042418669553 0.040931255479 -0.0045967328159 
-0.080383136116 -0.11133121917 -0.15540570283 -0.010339672614 -0.065579177281 -0.16323368523 0.01355444513 0.19881226393 0.03642715867 
-0.10119462056 -0.071569205731 -0.062729873813 -0.015581756767 -0.23744037593 -0.24561573858 0.09155799496 0.030443189473 -0.15126078185 
0.025524490416 -0.15063888735 -0.18888963234 -0.036579834914 0.069609763713 -0.010373667427 0.094111960101 0.069073349724 0.12970906621 
0.10535029703 -0.11023808589 0.038126827023 -0.12000793028 0.090927817896 0.025425689727 -0.14589060772 0.10787149562 -0.01786759849 
-0.12450816837 -0.031482591635 -0.111000839 -0.1127242877 -0.093430067315 -0.055161885488 -0.11002598791 0.12194556797 -0.079422842641 
-0.14247241334 -0.019938423664 -0.22800262457 -0.21228555784 -0.17165861765 -0.11974219907 -0.042093942693 0.043167170771 -0.008371809007 
-0.056900689163 0.030129105796 -0.10077122883 -0.068319569664 0.0076309060125 -0.064747797986 0.03522836974 0.12317233062 -0.057466409387 
-0.049668278123 -0.038911768586 -0.13587135245 0.053420660153 -0.23852190058 -0.21412209094 0.0032659090472 -0.047036759245 -0.13548161646 