# vtk DataFile Version 4.2
Generated by LIGGGHTS
ASCII
DATASET POLYDATA
POINTS 1000 float
0.611683 0.130822 0.0428395 2.11332 0.191706 0.476897 1.91378 0.92666 0.283277 
3.6812 0.8657 0.086863 3.82802 0.80304 0.289679 0.403947 1.56297 0.442154 
1.55915 1.60285 0.64246 3.14282 1.59613 0.127942 4.03057 1.58207 0.149534 
2.23978 2.21313 0.534372 3.14499 1.9883 0.382481 0.391826 2.65869 0.0590842 
3.30198 3.43681 0.0842986 4.91429 3.54638 0.585142 2.2895 4.34282 0.136598 
1.86791 4.75969 0.560199 3.72844 4.42982 0.614928 0.387271 0.239862 0.807743 
2.66201 0.414342 1.03896 4.30827 0.725276 1.22852 1.54859 1.24407 0.992323 
4.83612 1.39254 0.931928 2.1199 1.99981 1.2291 2.45712 2.6618 1.27499 
2.78304 3.05594 0.771516 3.28154 2.57358 1.06536 3.87691 2.68579 1.27383 
4.61655 2.89718 1.03004 3.38035 3.45981 0.888203 4.59477 3.24716 1.16148 
0.567378 3.75566 0.948219 2.83101 4.20969 1.03291 2.03416 4.46894 1.27924 
2.25179 4.66869 1.33086 3.64699 4.98295 1.20405 1.22569 0.198821 1.58231 
3.5434 0.367607 1.42708 4.29252 0.454763 1.91517 3.80367 1.13315 1.96264 
2.50872 1.80955 1.48027 2.90687 1.25761 1.66185 4.70466 2.15654 1.71434 
4.79438 2.74307 1.39535 2.31466 3.42221 1.35119 3.16949 3.61227 1.46283 
4.18407 3.82672 1.64835 3.7772 3.9542 1.75251 1.47542 4.8459 1.98696 
3.01465 4.98005 1.35096 2.20808 1.03751 2.29885 0.107503 1.4113 2.5671 
2.84114 1.31183 2.62554 4.68517 1.26367 2.05792 0.344173 2.38502 2.24343 
1.9907 2.28869 2.50832 3.49028 2.1378 2.44561 2.69197 2.94095 2.02456 
4.17932 2.52859 2.36273 4.26669 3.5121 2.60767 4.47169 3.69831 2.12608 
2.9814 3.97925 2.38748 3.81943 4.19752 2.39839 4.46491 4.20444 2.63818 
4.24151 0.618727 3.06937 4.59045 0.122507 2.68639 4.6177 0.324449 3.25125 
2.13492 1.05649 3.29486 4.98119 1.24314 3.0615 1.84623 1.634 2.7368 
2.01245 1.86137 3.34163 2.65931 1.79535 3.28734 4.49879 1.298 3.00083 
0.247223 2.40293 2.96438 0.991066 2.46678 2.74196 2.82591 2.38662 2.83327 
4.0973 1.88682 2.92767 0.934894 2.96067 3.22946 1.71564 3.38277 2.79687 
2.38125 3.63694 2.87254 2.15648 3.58527 2.63549 2.67681 3.71982 3.1135 
4.71237 3.55961 3.17514 1.04763 3.96549 2.98054 2.18421 4.89837 3.04044 
1.32187 0.208345 3.5586 0.580869 0.801761 3.88864 2.73002 0.889345 3.73868 
3.72472 0.821114 3.50796 0.243131 1.82954 3.69231 1.17998 2.33795 3.7885 
3.41479 2.33497 3.78036 0.217386 3.608 3.87562 3.35929 3.39592 3.76476 
1.80979 3.87361 3.65665 0.455016 4.71426 3.82628 3.73535 4.54195 3.75997 
3.27062 4.84564 3.53404 0.0332042 0.547338 4.29906 2.46815 0.0888813 4.36527 
2.2941 0.012118 4.6379 4.97979 0.548454 4.34298 0.909739 0.691417 4.62161 
0.315027 1.27917 4.3004 0.457155 2.20066 4.42926 1.46888 2.69084 4.6276 
2.70997 3.33203 4.05129 3.9171 3.23701 4.17329 0.30549 4.29606 4.22457 
0.0425469 4.14116 4.48202 3.3735 3.76117 4.57739 4.81897 3.98727 4.27605 
1.49838 4.63445 4.20803 2.82463 4.48396 4.41389 0.140292 0.0103781 4.75474 
0.475874 1.00177 5.12053 1.22754 0.911985 4.76011 2.07944 0.869475 5.31013 
0.315036 1.30689 4.81219 1.19722 1.70105 5.15433 4.77256 1.45714 5.1123 
0.704244 4.53943 4.86391 0.915673 4.91505 5.04526 1.59153 4.8375 5.03334 
1.80405 4.50804 4.72956 2.40653 4.66465 5.24191 2.85929 4.88836 4.95153 
4.136 4.72204 5.09974 0.0598031 0.0888702 5.68073 1.52752 0.567226 5.86324 
3.21487 0.2566 5.55938 0.721392 0.754627 5.96006 0.0361921 1.83899 5.54849 
4.09983 1.5564 5.97679 4.68702 1.70343 5.63363 0.178139 2.32479 5.79646 
1.46614 1.9767 5.41383 4.90745 2.13023 5.51946 2.08876 3.35591 5.82743 
2.65951 3.40403 5.86029 4.60415 3.22362 5.6694 0.265126 4.27613 5.38292 
1.95225 4.0086 5.44049 4.52154 4.05531 5.73091 2.14172 4.90613 5.9918 
1.14113 0.307013 6.07004 3.08998 0.376522 6.33223 1.45217 0.747099 6.2965 
1.18885 1.64033 6.19939 2.5751 1.57611 5.99494 2.95872 1.84749 6.4026 
0.156627 2.87174 6.38055 3.30961 4.36603 6.27959 0.298434 4.94383 6.10447 
1.09823 4.43775 6.23973 4.82832 0.58709 7.0311 0.0852159 1.02911 7.26293 
0.723136 0.851895 6.87098 3.47266 1.10939 6.83869 0.118604 1.8825 7.18306 
1.40495 1.34796 6.99196 4.79481 1.31828 6.74834 2.3828 2.13068 7.1997 
1.89814 2.37877 7.23897 2.56829 2.47913 6.68923 3.43671 2.24168 6.91154 
2.03376 2.93348 7.26946 3.54662 2.78621 7.32353 2.16245 3.53134 6.72734 
3.04668 3.44292 6.85349 4.67363 3.56783 7.06848 2.54425 4.25736 6.84809 
3.32136 3.85608 7.3206 4.74643 4.1867 7.1633 1.21229 4.80668 7.22287 
1.50491 0.157974 7.50044 3.7002 0.202068 7.72975 1.16953 1.05651 7.92716 
1.96215 0.677027 7.43235 2.90423 0.951862 7.60083 3.02925 1.73676 7.50077 
4.08663 1.76159 7.64016 1.01393 2.17518 7.8465 1.65201 2.34973 7.43705 
2.60408 2.08731 7.37937 4.50592 2.245 7.54529 0.0441292 2.74718 7.71799 
2.08104 2.62813 7.89812 2.62944 3.44672 7.5389 3.99537 3.63055 7.45865 
0.511535 4.91291 7.70513 2.8809 4.9919 7.7712 3.95896 4.87326 7.88192 
0.497226 0.0939263 8.08036 2.38963 0.198748 8.14079 1.02204 0.711478 8.33965 
3.34501 1.84111 8.20451 3.81712 1.71961 8.65037 4.20625 1.59976 8.36094 
1.23065 2.03872 8.58163 1.11427 2.40392 8.26022 1.21153 2.55137 7.99569 
4.03004 3.02942 8.6087 2.77908 3.44571 8.25194 0.10261 3.76 8.23185 
3.59149 4.19536 8.66494 2.1174 4.61128 8.65112 2.78217 4.67407 8.45709 
3.99091 4.60736 8.19245 0.100243 0.362948 9.13473 0.980762 0.163197 9.02401 
2.70893 0.42506 9.09551 4.58751 0.589493 8.71543 0.059726 1.11735 9.2262 
0.547982 1.46572 8.75999 2.6716 1.31385 8.77855 3.53392 2.17702 8.96345 
0.838916 3.10498 8.74868 1.22757 2.77327 9.02309 3.58094 3.66225 9.30289 
4.42955 3.22259 8.93818 3.1532 4.38521 8.7254 2.54849 0.887012 9.47742 
0.207628 1.46012 9.468 1.04192 1.61403 9.91651 2.94548 1.8334 9.54925 
3.88054 1.39296 9.55194 0.428527 2.16581 9.73821 1.11915 2.8397 9.48828 
4.80889 2.71641 9.56241 0.0272717 3.74915 9.97027 1.99115 3.31337 9.54138 
4.54269 3.6605 9.63209 1.96046 4.0702 9.87851 4.71819 3.96404 9.81372 
2.71593 4.66592 9.49673 4.41341 4.44635 9.40029 2.18999 5.05024 0.163901 
4.09029 5.36891 0.350548 0.803077 6.01661 0.644412 3.04595 6.01479 0.195256 
3.73888 6.13077 0.193101 4.26228 6.02081 0.0206098 4.84839 5.80036 0.119802 
1.45718 6.43878 0.0907797 2.37821 7.33905 0.581892 4.77983 7.56131 0.602492 
1.98362 8.69639 0.307632 4.36733 8.34011 0.654181 0.280781 9.55384 0.524692 
2.73679 9.64795 0.366625 4.07001 9.60842 0.239096 4.75236 9.638 0.563795 
4.63239 9.66837 0.0863686 0.736861 5.30527 0.757352 2.21239 5.12088 1.32387 
4.74765 5.24918 1.32425 2.69105 5.64552 0.88696 1.34473 6.85119 0.743776 
1.60447 6.48786 1.26116 3.95449 6.39176 0.855202 3.26245 7.23463 0.896987 
4.11405 6.98482 0.868906 1.16486 7.61976 1.00429 1.11358 8.07611 1.03812 
4.70173 8.30171 1.21888 1.48861 9.08735 1.1345 3.26124 8.83482 0.70775 
4.36043 9.10509 0.987204 4.88862 9.10611 0.913465 3.28225 9.79617 0.785882 
1.7604 5.28902 1.95245 0.542391 5.92989 1.42361 0.0470278 6.02107 1.96451 
1.91943 6.08581 1.85698 2.96729 5.73347 1.55544 3.87634 6.09117 1.58036 
0.742289 6.43175 1.77335 2.19218 6.33322 1.33244 3.71199 6.50984 1.62222 
0.24732 7.28914 1.52358 0.31897 8.07674 1.68686 2.01898 8.00984 1.46796 
4.01292 7.56323 1.81692 2.57748 8.7148 1.82919 0.0571085 8.87321 1.95004 
3.68689 9.13584 1.97678 2.3277 9.79512 1.56058 2.66323 10.0052 1.71163 
2.11819 5.87268 2.10337 0.524656 6.77022 2.26773 1.95489 6.41711 2.46697 
3.29475 6.5075 2.61483 3.93111 6.50988 2.55747 4.72463 6.52741 2.41947 
0.541077 8.52187 2.56574 1.86105 8.38434 1.99904 2.03083 8.72873 2.54682 
3.03824 8.52498 2.54643 3.69492 8.25744 2.26458 4.04473 8.45463 2.60179 
1.44444 8.80352 2.26677 2.75411 9.05773 2.17709 3.51006 8.92498 2.64139 
2.67798 9.65159 2.19672 3.79213 5.57439 2.83467 4.71823 6.157 3.16304 
1.42848 6.71504 2.74739 2.60959 6.59464 3.10503 0.533079 7.09934 2.76369 
1.50675 7.20684 3.00839 2.08533 6.98625 2.88047 3.23411 7.34115 2.84334 
2.16716 8.16846 2.79421 0.83803 8.77464 2.71869 1.5961 9.21352 3.33601 
2.14744 8.85648 3.12229 2.52267 8.86809 2.73982 4.35868 9.11698 2.80503 
1.30142 9.96718 3.07628 3.59983 9.49602 3.15405 0.950744 6.13889 3.84961 
1.74402 5.6571 3.49028 3.80044 5.76663 3.75982 3.98485 6.6152 3.39525 
4.5781 6.54322 3.49456 4.44554 6.98815 3.87279 2.73996 7.75228 3.77987 
3.71111 7.67061 3.77979 2.4829 8.56184 3.80216 4.31331 8.26299 3.41394 
0.630842 8.81207 3.47431 3.20697 9.02187 3.67985 3.76215 9.74859 3.87608 
3.18211 9.81043 3.46426 2.69313 6.21578 4.4725 4.3986 5.63313 4.06819 
0.56842 6.51808 4.37302 4.05426 6.3596 4.22513 2.31198 7.40425 4.62585 
3.36757 7.37096 4.23507 0.743788 8.01445 4.07542 1.39595 8.00905 4.47224 
1.49391 7.72719 4.03865 3.83466 7.858 4.45822 3.2022 8.52648 4.11205 
4.41687 8.60497 4.5745 1.28817 9.23688 4.5457 2.4009 9.15624 4.41764 
1.90584 9.13875 4.19584 4.71999 9.4973 4.06581 0.108685 5.05009 4.91776 
4.65994 5.39993 4.72998 1.14449 5.78359 4.69474 0.663025 5.95289 4.82953 
2.06143 6.29878 4.94954 0.0176191 7.40656 4.80543 0.670908 6.91305 5.23595 
3.61447 7.00394 4.826 0.508914 7.50823 5.02563 0.113298 7.8723 5.29214 
2.1978 7.59948 5.26478 2.98988 7.77668 4.77399 3.95765 7.63412 4.78292 
1.30814 8.22818 4.91734 2.24768 8.57198 5.13263 3.58888 8.42299 5.17958 
1.46454 9.12273 5.02525 3.05163 8.99811 4.6807 4.34595 9.34389 4.86936 
3.07122 9.87782 5.12886 1.97138 5.52036 5.42904 4.67627 6.06359 5.40865 
1.6746 6.85412 5.6359 4.08394 6.37419 5.95655 0.409173 7.73415 5.97198 
1.64195 7.68802 5.36248 3.4504 7.99427 5.37885 4.68465 8.06962 5.64126 
0.78234 8.67014 5.65923 2.77336 8.19813 5.87038 3.29966 8.65289 5.94095 
3.918 8.5458 5.93209 1.39058 9.70682 5.74828 4.7304 9.6579 5.90885 
0.0246108 5.30923 6.08313 1.82898 5.15222 6.07365 2.59018 5.69382 6.14115 
2.58612 5.94943 6.53471 0.420236 6.67684 6.3415 1.66303 6.39938 6.48169 
2.96021 6.43618 6.50306 0.276609 7.45467 6.21673 4.01879 6.99738 6.43341 
4.31474 7.8558 6.10613 1.39998 8.21267 6.63262 4.44519 8.6705 6.19467 
1.56603 9.10299 6.3672 0.523747 9.828 6.47117 0.170894 9.35865 6.59678 
1.91172 9.71723 6.41101 3.11794 9.63664 6.27593 1.42324 6.2834 6.70687 
4.44656 6.3932 7.20862 1.9038 7.12663 7.26185 3.49857 6.8972 6.98142 
[...]
POINT_DATA 1000
FIELD FieldData 7
id 1 1000 int
9 520 509 507 528 2 519 531 506 
20 11 526 515 525 510 503 527 16 
530 502 14 18 518 522 501 505 10 
512 12 513 17 6 504 529 517 3 
5 8 13 523 514 524 15 1 21 
516 4 508 511 548 545 544 35 23 
541 554 7 38 543 537 547 532 550 
555 39 40 22 533 534 26 540 552 
536 551 31 557 42 30 24 41 556 
546 37 32 29 34 33 535 553 539 
538 549 25 36 27 28 542 570 560 
562 565 561 71 68 48 53 58 69 
563 44 558 67 54 65 55 63 51 
49 62 47 50 571 43 45 572 60 
559 564 566 59 64 57 61 46 567 
70 569 66 52 574 573 568 575 56 
95 588 578 84 80 583 99 92 91 
103 85 90 579 78 100 86 582 580 
585 589 96 81 584 592 101 83 591 
581 102 77 587 82 590 72 576 97 
74 88 93 79 87 76 73 586 75 
98 577 89 122 118 119 125 104 126 
107 111 593 110 117 108 106 115 601 
598 124 112 120 123 127 116 602 121 
597 605 114 105 594 604 606 607 599 
128 610 600 608 272 603 595 109 609 
596 113 521 143 612 628 151 618 619 
137 635 629 625 617 132 133 140 150 
633 142 129 145 630 152 634 620 134 
616 148 611 623 138 144 149 631 141 
626 130 632 131 613 627 622 135 614 
139 621 147 615 624 136 157 146 636 
168 175 642 658 653 159 160 641 646 
171 651 161 173 647 155 640 158 166 
156 643 648 659 650 657 639 163 644 
167 154 660 174 172 656 162 655 645 
164 165 637 652 169 153 649 638 654 
170 194 668 177 680 180 193 185 199 
682 686 182 676 677 661 673 192 669 
672 190 666 681 198 183 675 189 186 
178 181 184 679 684 678 670 662 195 
187 664 674 179 683 176 671 196 685 
665 191 188 197 667 663 709 702 207 
219 693 701 689 204 703 206 690 688 
205 213 706 220 707 203 215 218 210 
705 209 708 200 710 214 711 700 704 
212 201 202 208 694 211 697 695 698 
692 741 691 687 221 696 216 217 699 
240 743 224 712 720 714 222 243 225 
238 734 241 227 244 230 715 233 713 
742 235 242 721 737 736 729 229 237 
234 728 732 727 733 740 725 223 248 
726 735 247 228 739 717 738 719 730 
239 723 984 716 246 231 245 236 722 
724 226 718 731 773 257 252 750 251 
256 765 259 764 767 270 761 754 744 
260 271 752 266 749 771 758 250 756 
253 258 747 768 753 757 745 268 254 
769 760 762 255 770 273 249 262 261 
759 269 751 748 746 763 755 19 267 
772 766 265 263 777 413 790 778 296 
782 287 277 781 286 794 791 302 299 
788 297 300 283 275 784 775 780 290 
282 785 293 292 789 783 786 793 281 
776 276 288 301 787 795 298 792 779 
291 289 295 279 774 284 285 278 280 
274 294 306 818 324 319 325 808 318 
323 812 813 313 816 805 316 322 304 
811 321 803 320 806 308 307 797 305 
796 817 310 314 315 309 799 317 810 
809 303 798 802 814 804 311 815 807 
801 312 800 821 349 355 819 832 831 
340 332 343 348 345 835 335 820 334 
830 353 827 825 342 338 337 833 354 
333 346 823 94 331 350 351 336 837 
341 834 344 339 952 829 824 828 347 
822 826 329 330 836 326 327 352 328 
373 870 858 857 848 854 852 840 359 
869 845 864 377 853 371 850 376 379 
374 380 370 839 855 861 364 847 357 
856 867 868 378 849 365 851 838 375 
360 844 865 860 862 372 363 863 843 
362 366 356 866 368 842 841 846 361 
369 358 367 859 890 875 404 385 394 
401 897 392 390 872 884 391 873 880 
886 396 889 264 399 389 403 384 888 
871 892 383 877 395 878 887 405 387 
400 881 895 398 876 896 381 382 891 
386 898 874 388 393 882 397 883 885 
894 893 879 402 437 911 424 909 423 
432 419 431 927 922 923 899 410 914 
901 426 411 921 422 908 926 928 417 
904 903 912 414 902 918 412 915 415 
425 916 917 407 429 438 436 905 906 
433 427 900 430 406 919 408 418 924 
420 428 907 920 439 434 416 409 925 
421 910 435 913 459 939 942 450 945 
453 461 457 940 440 946 944 937 951 
449 442 948 443 447 930 947 941 444 
950 448 446 943 462 929 452 445 933 
460 938 451 936 458 932 455 441 949 
935 456 931 454 934 464 967 475 966 
468 970 960 953 470 465 471 962 976 
971 469 478 965 472 956 955 977 968 
958 477 964 954 473 474 466 973 467 
476 957 961 975 974 479 959 969 972 
963 463 494 995 481 497 998 489 493 
992 999 487 499 491 485 988 994 996 
997 989 985 483 495 986 979 486 480 
991 484 482 492 488 980 1000 500 498 
978 496 990 981 232 983 982 993 987 
490 
type 1 1000 int
1 2 2 2 2 1 2 2 2 
1 1 2 2 2 2 2 2 1 
2 2 1 1 2 2 2 2 1 
2 1 2 1 1 2 2 2 1 
1 1 1 2 2 2 1 1 1 
2 1 2 2 2 2 2 1 1 
2 2 1 1 2 2 2 2 2 
2 1 1 1 2 2 1 2 2 
2 2 1 2 1 1 1 1 2 
2 1 1 1 1 1 2 2 2 
2 2 1 1 1 1 2 2 2 
2 2 2 1 1 1 1 1 1 
2 1 2 1 1 1 1 1 1 
1 1 1 1 2 1 1 2 1 
2 2 2 1 1 1 1 1 2 
1 2 1 1 2 2 2 2 1 
1 2 2 1 1 2 1 1 1 
1 1 1 2 1 1 1 2 2 
2 2 1 1 2 2 1 1 2 
2 1 1 2 1 2 1 2 1 
1 1 1 1 1 1 1 2 1 
1 2 1 1 1 1 1 1 1 
1 1 2 1 1 1 1 1 2 
2 1 1 1 1 1 1 2 1 
2 2 1 1 2 2 2 2 2 
1 2 2 2 1 2 2 1 2 
2 1 2 1 2 2 1 2 2 
1 2 2 2 2 1 1 1 1 
2 1 1 1 2 1 2 2 1 
2 1 2 2 1 1 1 2 1 
2 1 2 1 2 2 2 1 2 
1 2 1 2 2 1 1 1 2 
1 1 2 2 2 1 1 2 2 
1 2 1 1 2 1 2 1 1 
1 2 2 2 2 2 2 1 2 
1 1 2 1 1 2 1 2 2 
1 1 2 2 1 1 2 2 2 
1 1 2 1 2 1 1 1 1 
2 2 1 2 2 2 2 1 2 
2 1 2 2 1 1 2 1 1 
1 1 1 2 2 2 2 2 1 
1 2 2 1 2 1 2 1 2 
2 1 1 1 2 2 2 2 1 
1 2 2 2 1 2 1 2 2 
1 1 2 1 2 1 1 1 1 
2 1 2 1 2 1 2 2 2 
1 1 1 1 2 1 2 2 2 
2 2 2 2 1 2 1 1 2 
1 2 1 2 2 2 1 1 1 
1 2 1 1 1 1 2 1 2 
2 1 1 2 2 2 2 1 1 
1 2 2 2 2 2 2 1 1 
2 2 1 1 2 2 2 2 2 
1 2 2 2 1 1 1 1 2 
2 1 2 2 2 1 1 2 1 
1 2 1 2 2 1 2 2 2 
1 1 2 1 2 2 2 1 2 
1 1 2 2 2 2 2 1 1 
2 2 2 1 2 1 1 1 1 
2 1 2 2 2 2 2 1 1 
2 2 1 1 2 1 2 2 1 
2 1 1 2 1 2 2 1 1 
2 1 1 1 1 2 2 2 1 
1 2 1 1 2 2 2 2 1 
2 1 1 1 2 2 1 2 2 
1 1 1 1 2 1 1 1 1 
1 1 1 2 1 1 1 2 1 
1 2 2 1 2 2 1 1 1 
2 1 2 1 2 1 1 2 1 
2 2 1 1 1 1 2 1 2 
2 1 2 2 2 2 1 2 2 
2 1 2 2 1 1 2 2 2 
1 1 1 1 1 2 1 2 1 
2 1 2 2 1 1 1 2 1 
1 1 2 1 1 1 1 1 2 
1 2 1 1 2 2 2 2 1 
2 2 1 1 2 1 1 1 1 
1 2 2 2 2 2 2 2 1 
2 2 2 1 2 1 2 1 1 
1 1 1 2 2 2 1 2 1 
2 2 2 1 2 1 2 2 1 
1 2 2 2 2 1 1 2 2 
1 1 1 2 1 2 2 2 1 
1 1 1 2 2 2 1 1 1 
1 2 1 1 2 2 1 2 2 
2 1 2 1 1 1 1 1 2 
2 2 1 2 1 2 2 1 1 
1 2 2 1 2 2 1 1 2 
1 2 2 1 1 2 1 2 2 
2 2 2 1 1 2 1 2 1 
1 1 1 2 2 2 2 1 2 
2 1 1 2 1 2 2 2 1 
2 2 2 1 2 2 1 2 1 
1 2 2 1 1 1 1 2 2 
1 1 2 1 1 2 1 1 2 
1 1 2 2 1 1 1 1 2 
1 2 1 2 1 2 2 1 2 
1 1 1 2 1 2 2 2 2 
1 1 2 1 1 2 2 2 1 
2 1 1 2 1 2 1 1 2 
1 2 1 2 1 2 1 1 2 
2 1 2 1 2 1 2 1 2 
1 2 2 2 1 1 1 2 2 
2 1 1 2 1 2 2 2 2 
2 1 2 2 1 1 1 2 1 
1 2 2 2 2 1 2 2 2 
2 1 1 2 1 1 2 1 1 
2 2 1 1 1 1 2 2 2 
2 2 2 1 1 2 2 1 1 
2 1 1 1 1 2 2 1 1 
2 1 2 2 1 2 2 2 2 
1 
i 3 1000 int
0 0 0 0 0 0 0 0 0 
0 0 0 0 0 0 0 0 0 
0 0 0 0 0 0 0 0 0 
0 0 0 0 0 0 0 0 0 
0 0 0 0 0 0 0 0 0 
0 0 0 0 0 0 0 0 0 
0 0 0 0 0 0 0 0 0 
0 0 0 0 0 0 0 0 0 
0 0 0 0 0 0 0 0 0 
0 0 0 0 0 0 0 0 0 
0 0 0 0 0 0 0 0 0 
0 0 0 0 0 0 0 0 0 
0 0 0 0 0 0 0 0 0 
0 0 0 0 0 0 0 0 0 
0 0 0 0 0 0 0 0 0 
0 0 0 0 0 0 0 0 0 
0 0 0 0 0 0 0 0 0 
0 0 0 0 0 0 0 0 0 
0 0 0 0 0 0 0 0 0 
0 0 0 0 0 0 0 0 0 
0 0 0 0 0 0 0 0 0 
0 0 0 0 0 0 0 0 0 
0 0 0 0 0 0 0 0 0 
0 0 0 0 0 0 0 0 0 
0 0 0 0 0 0 0 0 0 
0 0 0 0 0 0 0 0 0 
0 0 0 0 0 0 0 0 0 
0 0 0 0 0 0 0 0 0 
0 0 0 0 0 0 0 0 0 
0 0 0 0 0 0 0 0 0 
0 0 0 0 0 0 0 0 0 
0 0 0 0 0 0 0 0 0 
0 0 0 0 0 0 0 0 0 
0 0 0 0 0 0 0 0 0 
0 0 0 0 0 0 0 0 0 
0 0 0 0 0 0 0 0 0 
0 0 0 0 0 0 0 0 0 
0 0 0 0 0 0 0 0 0 
0 0 0 0 0 0 0 0 0 
0 0 0 0 0 0 0 0 0 
0 0 0 0 0 0 0 0 0 
0 0 0 0 0 0 0 0 0 
0 0 0 0 0 0 0 0 0 
0 0 0 0 0 0 0 0 0 
0 0 0 0 0 0 0 0 0 
0 0 0 0 0 0 0 0 0 
0 0 0 0 0 0 0 0 0 
0 0 0 0 0 0 0 0 0 
0 0 0 0 0 0 0 0 0 
0 0 0 0 0 0 0 0 0 
0 0 0 0 0 0 0 0 0 
0 0 0 0 0 0 0 0 0 
0 0 0 0 0 0 0 0 0 
0 0 0 0 0 0 0 0 0 
0 0 0 0 0 0 0 0 0 
0 0 0 0 0 0 0 0 0 
0 0 0 0 0 0 0 0 0 
0 0 0 0 0 0 0 0 0 
0 0 0 0 0 0 0 0 0 
0 0 0 0 0 0 0 0 0 
0 0 0 0 0 0 0 0 0 
0 0 0 0 0 0 0 0 0 
0 0 0 0 0 0 0 0 0 
0 0 0 0 0 0 0 0 0 
0 0 0 0 0 0 0 0 0 
0 0 0 0 0 0 0 0 0 
0 0 0 0 0 0 0 0 0 
0 0 0 0 0 0 0 0 0 
0 0 0 0 0 0 0 0 0 
0 0 0 0 0 0 0 0 0 
0 0 0 0 0 0 0 0 0 
0 0 0 0 0 0 0 0 0 
0 0 0 0 0 0 0 0 0 
0 0 0 0 0 0 0 0 0 
0 0 0 0 0 0 0 0 0 
0 0 0 0 0 0 0 0 0 
0 0 0 1 0 -1 0 0 0 
0 0 0 0 0 0 0 0 0 
0 0 0 0 0 0 0 0 0 
0 0 0 0 0 0 0 0 0 
0 0 0 0 0 0 0 0 0 
0 0 0 0 0 0 0 0 0 
0 0 0 0 0 0 0 0 0 
0 0 0 0 0 0 0 0 0 
0 0 0 0 0 0 0 0 0 
0 0 0 0 0 0 0 0 0 
0 0 0 0 0 0 0 0 0 
0 0 0 0 0 0 0 0 0 
0 0 0 0 0 0 0 0 0 
0 0 0 0 0 0 0 0 0 
0 0 0 0 0 0 0 0 0 
0 0 0 0 0 0 0 0 0 
0 0 0 0 0 0 0 0 0 
0 0 0 0 0 0 0 0 0 
0 0 0 0 0 0 0 0 0 
0 0 0 0 0 0 0 0 0 
0 0 0 0 0 0 0 0 0 
0 0 0 0 0 0 0 0 0 
0 0 0 0 0 0 0 0 0 
0 0 0 0 0 0 0 0 0 
0 0 0 0 0 0 0 0 0 
0 0 0 0 0 0 0 0 0 
0 0 0 0 0 0 0 0 0 
0 0 0 0 0 0 0 0 0 
0 0 0 0 0 0 0 0 0 
0 0 0 0 0 0 0 0 0 
0 0 0 0 0 0 0 0 0 
0 0 0 0 0 0 0 0 0 
0 0 0 0 0 0 0 0 0 
0 0 0 0 0 0 0 0 0 
0 0 0 0 0 0 0 0 0 
0 0 0 0 0 0 0 0 0 
0 0 0 0 0 0 0 0 0 
0 0 0 0 0 0 0 0 0 
0 0 0 0 0 0 0 0 0 
0 0 0 0 0 0 0 0 0 
0 0 0 0 0 0 0 0 0 
0 0 0 0 0 0 0 0 0 
0 0 0 0 0 0 0 0 0 
0 0 0 0 0 0 0 0 0 
0 0 0 0 0 0 0 0 0 
0 0 0 0 0 0 0 0 0 
0 0 0 0 0 0 0 0 0 
0 0 0 0 0 0 0 0 0 
0 0 0 0 0 0 0 0 0 
0 0 0 0 0 0 0 0 0 
0 0 0 0 0 0 0 0 0 
0 0 0 0 0 0 0 0 0 
0 0 0 0 0 0 0 0 0 
0 0 0 0 0 0 0 0 0 
0 0 0 0 0 0 0 0 0 
0 0 0 0 0 0 0 0 0 
0 0 0 0 0 0 0 0 0 
0 0 0 0 0 0 0 0 0 
0 0 0 0 0 0 0 0 0 
0 0 0 0 0 0 0 0 0 
0 0 0 0 0 0 0 0 0 
0 0 0 0 0 0 0 0 0 
0 0 0 0 0 0 0 0 0 
0 0 0 0 0 0 0 0 0 
0 0 0 0 0 0 0 0 0 
0 0 0 0 0 0 0 0 0 
0 0 0 0 0 0 0 0 0 
0 0 0 0 0 0 0 0 0 
0 0 0 0 0 0 0 0 0 
0 0 0 0 0 0 0 0 0 
0 0 0 0 0 0 0 0 0 
0 0 0 0 0 0 0 0 0 
0 0 0 0 0 0 0 0 0 
0 0 0 0 0 0 0 0 0 
0 0 0 0 0 0 0 0 0 
0 0 0 0 0 0 0 0 0 
0 0 0 0 0 0 0 0 0 
0 0 0 0 0 0 0 0 0 
0 0 0 0 0 0 0 0 0 
0 0 0 0 0 0 0 0 0 
0 0 0 0 0 0 0 0 0 
0 0 0 0 0 0 0 0 0 
0 0 0 0 0 0 0 0 0 
0 0 0 0 0 0 0 0 0 
0 0 0 0 0 0 0 0 0 
0 0 0 0 0 0 0 0 0 
0 0 0 0 0 0 0 0 0 
0 0 0 0 0 0 0 0 0 
0 0 0 0 0 0 0 0 0 
0 0 0 0 0 0 0 0 0 
0 0 0 0 0 0 0 0 0 
0 0 0 0 0 0 0 0 0 
0 0 0 0 0 0 0 0 0 
0 0 0 0 0 0 0 0 0 
0 0 0 0 0 0 0 0 0 
0 0 0 0 0 0 0 0 0 
0 0 0 0 0 0 0 0 0 
0 0 0 0 0 0 0 0 0 
0 0 0 0 0 0 0 0 0 
0 0 0 0 0 0 0 0 0 
0 0 0 0 0 0 0 0 0 
0 0 0 0 0 0 0 0 0 
0 0 0 0 0 0 0 0 0 
0 0 0 0 0 0 0 0 0 
0 0 0 0 0 0 0 0 0 
0 0 0 0 0 0 0 1 0 
0 0 0 0 0 0 0 0 0 
0 0 0 0 0 0 0 0 0 
0 0 0 0 0 0 0 0 0 
0 0 0 0 0 0 0 0 0 
0 0 0 0 0 0 0 0 0 
0 0 0 0 0 0 0 0 0 
0 0 0 0 0 0 0 0 0 
0 0 0 0 0 0 0 0 0 
0 0 0 0 0 0 0 0 0 
0 0 0 0 0 0 0 0 0 
0 0 0 0 0 0 0 0 0 
0 0 0 0 0 0 0 0 0 
0 0 0 0 0 0 0 0 0 
0 0 0 0 0 0 0 0 0 
0 0 0 0 0 0 0 0 0 
0 0 0 0 0 0 0 0 0 
0 0 0 0 0 0 0 0 0 
0 0 0 0 0 0 0 0 0 
0 0 0 0 0 0 0 0 0 
0 0 0 0 0 0 0 0 0 
0 0 0 0 0 0 0 0 0 
0 0 0 0 0 0 0 0 0 
0 0 0 0 0 0 0 0 0 
0 0 0 0 0 0 0 0 0 
0 0 0 0 0 0 0 0 0 
0 0 0 0 0 0 0 0 0 
0 0 0 0 0 0 0 0 0 
0 0 0 0 0 0 0 0 0 
0 0 0 0 0 0 0 0 0 
0 0 0 0 0 0 0 0 0 
0 0 0 0 0 0 0 0 0 
0 0 0 0 0 0 0 0 0 
0 0 0 0 0 0 0 0 0 
0 0 0 0 0 0 0 0 0 
0 0 0 0 0 0 0 0 0 
0 0 0 0 0 0 0 0 0 
0 0 0 0 0 0 0 0 0 
0 0 0 0 0 0 0 0 0 
0 0 0 0 0 0 0 0 0 
0 0 0 0 0 0 0 0 0 
0 0 0 0 0 0 0 0 0 
0 0 0 0 0 0 0 0 0 
0 0 0 0 0 0 0 0 0 
0 0 0 0 0 0 0 0 0 
0 0 0 0 0 0 0 0 0 
0 0 0 0 0 0 0 0 0 
0 0 0 0 0 0 0 0 0 
0 0 0 0 0 0 0 0 0 
0 0 0 0 0 0 0 0 0 
0 0 0 0 0 0 0 0 0 
0 0 0 0 0 0 0 0 0 
0 0 0 0 0 0 0 0 0 
0 0 0 0 0 0 0 0 0 
0 0 0 0 0 0 0 0 0 
0 0 0 0 0 0 0 0 0 
0 0 0 0 0 0 0 0 0 
0 0 0 0 0 0 0 0 0 
0 0 0 0 0 0 0 0 0 
0 0 0 0 0 0 0 0 0 
0 0 0 0 0 0 0 0 0 
0 0 0 0 0 0 0 0 0 
0 0 0 0 0 0 0 0 0 
0 0 0 0 0 0 0 0 0 
0 0 0 0 0 0 0 0 0 
0 0 0 0 0 0 0 0 0 
0 0 0 0 0 0 0 0 0 
0 0 0 0 0 0 0 0 0 
0 0 0 0 0 0 0 0 0 
0 0 0 0 0 0 0 0 0 
0 0 0 0 0 0 0 0 0 
0 0 0 0 0 0 0 0 0 
0 0 0 0 0 0 0 0 0 
0 0 0 0 0 0 0 0 0 
0 0 0 0 0 0 0 0 0 
0 -1 0 0 0 0 0 0 0 
0 0 0 0 0 0 0 0 0 
0 0 0 0 0 0 0 0 0 
0 0 0 0 0 0 0 0 0 
0 0 0 0 0 0 0 0 0 
0 0 0 0 0 0 0 0 0 
0 0 0 0 0 0 0 0 0 
0 0 0 0 0 0 0 0 0 
0 0 0 0 0 0 0 0 0 
0 0 0 0 0 0 0 0 0 
0 0 0 0 0 0 0 0 0 
0 0 0 0 0 0 0 0 0 
0 0 0 0 0 0 0 0 0 
0 0 0 0 0 0 0 0 0 
0 0 0 0 0 0 0 0 0 
0 0 0 0 0 0 0 0 0 
0 0 0 0 0 0 0 0 0 
0 0 0 0 0 0 0 0 0 
0 0 0 0 0 0 0 0 0 
0 0 0 0 0 0 0 0 0 
0 0 0 0 0 0 0 0 0 
0 0 0 0 0 0 0 0 0 
0 0 0 0 0 0 0 0 0 
0 0 0 0 0 0 0 0 0 
0 0 0 0 0 0 0 0 0 
0 0 0 0 0 0 0 0 0 
0 0 0 0 0 0 0 0 0 
0 0 0 0 0 0 0 0 0 
0 0 0 0 0 0 0 0 0 
0 0 0 0 0 0 0 0 0 
0 0 0 0 0 0 0 0 0 
0 0 0 0 0 0 0 0 0 
0 0 0 0 0 0 0 0 0 
0 0 0 0 0 0 0 0 0 
0 0 0 0 0 0 0 0 0 
0 0 0 0 0 0 0 0 0 
0 0 0 0 0 0 0 0 0 
0 0 0 0 0 0 0 0 0 
0 0 0 0 0 0 0 0 0 
0 0 0 0 0 0 0 0 0 
0 0 0 0 0 0 0 0 0 
0 0 0 0 0 0 0 0 0 
0 0 0 0 0 0 0 0 0 
0 0 0 0 0 0 0 0 0 
0 0 0 0 0 0 0 0 0 
0 0 0 0 0 0 0 0 0 
0 0 0 0 0 0 0 0 0 
0 0 0 0 0 0 0 0 0 
0 0 0 0 0 0 0 0 0 
0 0 0 0 0 0 0 0 0 
0 0 0 0 0 0 0 0 0 
0 0 0 0 0 0 0 0 0 
0 0 0 0 0 0 0 0 0 
0 0 0 0 0 0 0 0 0 
0 0 0 0 0 0 0 0 0 
0 0 0 0 0 0 0 0 0 
0 0 0 0 0 0 0 0 0 
0 0 0 0 0 0 0 0 0 
0 0 0 0 0 0 0 0 0 
0 0 0 0 0 0 0 0 0 
0 0 0 0 0 0 0 0 0 
0 0 0 0 0 0 0 0 0 
0 0 0 0 0 0 0 0 0 
0 0 0 0 0 0 0 0 0 
0 0 0 0 0 0 0 0 0 
0 0 0 0 0 0 0 0 0 
0 0 0 0 0 0 0 0 0 
0 0 0 0 0 0 0 0 0 
0 0 0 0 0 0 0 0 0 
0 0 0 0 0 0 0 0 0 
0 0 0 0 0 0 0 0 0 
0 0 0 0 0 0 0 0 0 
0 0 0 0 0 0 0 0 0 
0 0 0 0 0 0 0 0 0 
0 0 0 0 0 0 0 0 0 
0 0 0 0 0 0 0 0 0 
0 0 0 0 0 0 0 0 0 
0 0 0 
v 3 1000 double
7.79057469 6.9714608605 -13.138980342 -12.45561911 -9.2499469335 -3.8101982715 2.5912616718 3.6432511199 -13.360237009 
-24.810739994 -11.213237427 -25.661848617 22.558804846 -19.275784524 33.708458962 7.7597126033 -12.247874499 8.7271781901 
-7.3061435381 20.003595881 -13.48333651 -5.4175856317 -25.387192091 1.0924555366 14.822899487 20.71547531 17.576130349 
0.32526126977 7.0360648671 -19.349499438 4.4026829741 18.901698099 14.269622894 1.6283592474 18.450549573 13.83705649 
-1.4240026125 -1.0680311746 -8.1511822454 -2.2214601843 12.76994618 -16.142531485 23.938013563 -9.5781319527 12.921625295 
-28.539535723 0.68375943106 5.4168020893 1.7483279474 -8.213311419 -8.8502211948 -1.0109668636 13.046206358 14.392782243 
4.0706894863 16.874986461 -9.0616792176 -4.130829748 1.9388915333 -11.853379747 -5.6151135966 -20.537312738 26.224362198 
-11.433023878 26.555724543 -7.2742422425 -27.143752076 -1.4319909902 3.2683180782 -9.6533140234 0.2103986323 6.9872089445 
-11.762540828 4.7915971958 -21.698786125 -3.4678716189 -11.239582951 3.9794360734 0.52753908588 -4.3917660287 11.702202576 
-9.3783935814 -27.015080854 -40.842070016 23.55063079 3.2069953084 -6.8187854465 -21.925337862 35.284082249 -3.9311854066 
11.214723832 -5.1671683321 1.2352118821 5.7699771277 -5.900641101 -15.272676434 -34.511313844 -44.171115588 4.5659723273 
11.139133832 -3.5032134806 16.422350306 22.271417738 7.5216971467 3.383001224 0 0 0 
-7.4394419944 -0.0004967537308 4.5247516597 -6.0551331382 -14.158013924 7.8870614886 -7.8247052686 6.5428346285 1.9360013688 
11.881315101 -4.6105659048 12.331810402 8.520919567 -15.811872133 0.86369588733 -0.66161847412 -18.413701337 5.391358799 
10.555656019 -29.56903831 20.201823698 -17.547936894 17.348092281 4.4226641185 -10.284175233 -9.4502070588 19.218281218 
11.439729524 6.0118633076 -18.580607191 -22.76137813 13.864724226 -5.5924548349 -17.999127987 -25.947832496 3.4113710747 
5.6161484305 -4.3209999972 9.2628634358 -7.8722227591 -14.5471057 -10.943524566 5.8723832514 4.2975814399 3.8850175947 
12.908586161 -1.7008634747 1.3088304274 -14.379414522 9.205708266 -1.5032340393 2.3134892557 -4.6080294 -19.238363637 
-2.9362898258 17.142762768 -9.783273282 -8.3804572721 -5.5315944648 -11.990563869 4.1310131963 2.2932181238 12.452446584 
7.8075889233 14.698449629 -2.5979250483 -17.580810097 -25.716516943 8.6431002855 28.22055924 -9.7000464158 -9.246323633 
1.2623958613 5.2735989528 -13.354144711 -10.058531546 16.779853833 10.518779854 18.825584435 26.39839398 14.11797223 
-16.937794595 9.1582550435 -11.770214103 -1.1164853761 -9.1918472664 -15.925397315 -1.3198542794 -5.6377271684 14.302877679 
-8.3355153019 -14.71626399 -4.8272984799 6.0207596283 27.237740016 27.0935567 -13.656884568 -7.4257104562 -8.9013745593 
-17.381453883 16.542855436 21.011396754 13.341358729 -4.3335699464 13.458961759 -19.840355596 6.7850266705 4.1910874102 
-14.520997046 2.2930168404 11.537947628 20.176489542 -10.269997124 -9.5134855146 -1.2910805987 15.987446243 0.59145386219 
-5.2624654347 8.575979207 10.076805113 -1.8251620008 19.373247045 9.3609823999 -30.238364718 -19.583170859 5.2546029316 
7.1866735151 0.38830195338 10.389799973 -12.786414672 0.65244842744 -39.774716764 29.589520917 6.3433738956 35.786065459 
12.498715298 -4.1103447063 18.603274017 -6.3872492646 4.9593013653 1.6990203538 0.38622681529 -0.66564004449 -0.39466046464 
0.73157447421 13.305988452 24.790245234 13.685994314 -6.0692907201 -30.548468109 12.095281994 -4.0450292922 9.1180386242 
-16.048828834 6.3847652088 12.463114045 -3.1818161131 1.750046457 -12.061891246 3.0864722625 -6.159514679 1.1086456893 
0 0 0 10.452145982 -20.927567642 -4.4609398183 2.3919132449 3.3257722978 -20.398980971 
0.22563545075 -1.1159551511 -1.0358565847 25.644093571 14.142058477 -17.762628541 18.839864932 -12.311427755 9.1588974733 
-18.839864932 12.311427755 -9.1588974733 2.8169986825 -20.945902618 -7.853966161 20.521855712 13.422303618 -33.294982253 
-25.828235522 -1.582482186 31.342537606 -3.8064596488 6.4473127825 24.993850642 -3.4497492829 -30.62440144 -9.620963584 
11.35065426 15.956217164 -13.946365999 10.760465679 8.9982141301 4.6280468754 0.94815052623 1.1092277188 2.722674015 
-17.805821898 -2.1350467427 5.8488796926 19.477896105 -8.6893993576 6.1603843091 20.540510989 -0.58965182086 -8.5987913172 
5.7979136841 -9.7568687659 9.1525603251 -0.018859938654 2.1765060051 9.4034760992 -22.215656324 -12.45513439 -7.3657966341 
-12.576021087 3.7518921452 -25.833136878 -3.1413258039 -6.828878627 -18.417924864 11.294252602 -19.185424445 6.295890237 
-0.91921214942 -11.931296067 25.896452397 31.745576631 7.6091749782 4.8422854095 10.520275116 5.4815964825 -10.591938887 
4.0017321358 14.507326964 2.9782437829 -18.128953849 -8.8043130107 -13.609314547 2.1357468371 -19.026864289 -27.350240853 
14.48737576 -17.430097007 -6.1997409861 4.3714610017 21.690970564 16.211773902 0.8643072812 13.322122869 16.035702947 
12.375577733 -20.600105574 -12.372771398 8.0960145294 -3.4863098994 9.2842164418 22.499022206 21.604380195 2.0497549562 
-2.8207057355 -3.2655011404 1.7222710336 3.8187835118 -10.962635017 2.3355182839 22.459575266 2.144059917 -27.122033515 
8.7248586097 15.085602549 3.5178332222 -22.07603109 14.656212788 -0.90003345622 7.5699130152 -15.508508592 4.4829631486 
-18.640701658 -5.1016038294 11.411891139 -6.2664769592 -11.519227585 12.916628595 18.062280418 10.934398524 4.8092901056 
20.682679037 22.618659839 12.369996899 3.4807751188 20.054268004 -0.26700543065 -23.017811623 -16.108066296 0.1928230112 
24.948681531 2.0528191016 1.5216656047 -30.64303476 -21.266894762 -1.25719935 4.8934542185 -7.4097449348 24.403635551 
-7.6044283996 -2.9229593639 2.7712737778 -6.7935416197 13.875645928 -1.000794252 20.066173137 -26.833390955 7.9232777287 
-13.669636315 -22.205766244 6.7393202157 1.2505163937 18.563838342 6.1792260746 19.356454487 17.405695315 28.590857912 
-5.2941391249 5.7924758142 -0.52924554919 -14.783721719 -11.421737257 -16.531849064 12.341476589 -6.6568098857 0.32761572249 
13.441435836 8.8719591792 -11.421266329 2.2767056883 0.37258109223 -1.6747550301 18.92970713 -21.504761978 2.9121306156 
4.3057686119 -2.7653291952 0.72373006907 -10.743244131 -13.582775928 11.998755634 10.512159411 -8.8041832786 33.117614252 
3.9223248822 -9.610879102 1.8572858386 2.490105398 2.9924696393 0.52283224557 11.367146581 20.101495207 12.562753574 
7.591446532 10.519380871 13.995146604 -44.675119719 11.43808273 -9.1573180007 -9.8486498704 -14.751078073 -17.665015338 
-15.345969511 -7.4158311125 -29.634570467 4.6254101897 23.993042737 -27.422442191 13.694739154 -4.3792337178 -7.3915538099 
-2.6302256001 22.710905081 -7.5286754381 4.0157248378 10.0664836 12.936108529 -9.3635308123 4.7701238457 -9.9647181428 
2.1860004247 -9.6676836136 -23.280276968 -3.6314910882 -19.623480761 -12.293088007 1.6812410149 10.570526747 2.6720888628 
-0.31121319389 21.3808732 6.7003421965 -21.7921525 7.7347040914 -9.2128317423 1.8736162873 -5.8469726652 -12.291516577 
-12.90293235 -13.1449667 1.7751639858 9.0616203161 21.904084356 -12.709986588 7.7562454828 17.88349978 -20.516918814 
11.769476478 13.387766849 -3.0297762511 -2.3043849223 -14.94070377 3.3072470512 21.826807772 -16.741523891 -1.0626981801 
-15.770576868 -14.724265575 -13.103380535 -34.910088891 -37.698882227 -31.705609804 -28.728976692 -17.382564934 -3.6634547341 