# vtk DataFile Version 4.2
Generated by LIGGGHTS
ASCII
DATASET POLYDATA
POINTS 1000 float
1.16452 0.463358 0.30592 0.038465 0.664209 0.012227 2.22443 0.674672 0.425244 
3.74874 1.23653 0.00668045 2.76033 1.45599 0.116297 1.02381 2.21154 0.558554 
2.30616 2.36983 0.0493168 3.69484 2.05967 0.648061 0.185584 2.68471 0.292146 
1.40162 3.11397 0.251248 3.19598 3.00456 0.324707 4.45 3.12203 0.285439 
0.325294 3.78155 0.0896441 1.42203 4.13344 0.284796 2.50121 4.37164 0.461023 
3.45752 4.61238 0.593256 0.224662 0.236829 1.0924 2.16316 0.146149 1.26825 
3.25886 0.451211 0.702698 0.636073 1.1664 0.834478 4.99274 0.708389 0.766819 
1.81111 1.61755 0.722489 2.67271 1.28119 1.11544 4.59272 1.62136 0.681083 
0.205894 2.02888 1.10394 2.72194 2.39724 0.972953 0.729254 3.03438 1.0505 
1.75693 2.65928 1.06766 3.83786 2.93562 1.10702 4.82516 3.04325 1.2083 
1.42062 3.73761 1.19745 2.47248 3.36963 0.918241 0.460787 3.99795 1.05831 
4.31528 4.57409 1.09631 0.565324 0.692902 1.91145 1.53524 0.830044 1.63222 
4.30612 0.839202 1.48211 1.10932 1.7495 1.5172 3.57594 1.52206 1.48245 
5.0005 1.52273 1.9292 0.49834 2.40062 1.98214 2.08991 1.90382 1.6325 
3.36867 2.43988 1.84874 4.37576 2.18052 1.50589 1.69337 3.21387 2.00232 
2.96583 3.35252 1.78527 4.07129 3.7256 1.66979 4.87704 4.2695 1.89794 
1.01198 4.36932 1.82409 1.88379 4.78986 1.46685 3.24525 4.47941 1.64803 
1.29368 0.356956 2.49912 2.23727 0.0652829 2.57317 4.50434 0.241452 2.28701 
2.52556 0.856579 2.0155 3.61913 0.830463 2.20794 0.595037 1.5222 2.4688 
1.61637 1.32381 2.49045 2.94493 1.69373 2.38313 1.43104 2.30007 2.31274 
2.43197 2.59078 2.25622 4.41047 2.8916 2.20277 0.704288 3.38174 2.07853 
1.38152 3.91449 2.64359 2.19749 4.08972 2.08976 3.47947 4.43172 2.61865 
0.403209 1.0471 3.3415 2.45273 1.01389 3.00061 3.93468 0.836309 3.20242 
4.83695 1.03722 2.79347 3.91436 1.73535 2.6648 0.0656785 1.96782 3.21116 
2.05265 2.09363 3.06234 4.94254 2.20294 2.71256 0.745463 2.67388 2.95392 
3.23323 2.5216 2.84602 1.78691 3.13105 3.12006 2.86098 3.65774 2.73466 
3.96382 3.57206 2.76902 4.8813 3.13161 3.07214 0.396119 4.01493 2.79065 
0.110535 4.83909 3.32651 2.65747 4.84688 3.15946 4.50878 4.53784 2.79158 
0.851839 0.175148 3.50333 2.17138 0.229309 3.55441 1.50368 0.963859 3.41611 
3.05273 0.997186 3.79751 4.80278 0.758279 3.82326 4.71478 1.80069 3.59679 
1.18075 1.98041 3.58515 2.98534 2.04897 3.69045 0.402778 2.60995 3.89579 
2.69606 3.02646 3.52571 3.96532 2.7253 3.67973 0.955554 3.55063 3.48726 
1.9138 4.2356 3.45165 2.96685 4.00771 3.66752 4.64063 3.94965 3.59433 
1.10924 4.87523 3.44566 3.85146 4.5816 3.56453 4.93816 4.92636 3.77636 
1.40729 0.425424 4.29783 2.62737 0.282412 4.44018 0.428549 0.69117 4.30652 
3.89396 0.666535 4.31408 1.10314 1.43192 4.41311 2.17139 1.43518 3.99567 
3.82607 1.61866 4.01667 2.25556 2.44728 4.23884 3.55496 2.41469 4.54641 
4.92888 3.10397 4.08468 0.11692 3.54079 4.2777 1.49694 3.31059 4.31919 
2.86733 3.21639 4.49264 3.81885 3.62959 4.08311 0.936676 4.27578 4.22718 
2.21563 4.01232 4.3931 3.01029 4.90214 4.11512 4.35 4.44381 4.41932 
0.531938 0.377287 5.25028 3.42728 0.245353 5.09301 1.49088 1.16265 5.28766 
2.42783 1.12534 4.93353 4.34704 0.894188 5.19587 3.47643 1.36904 4.93637 
4.50883 1.76064 4.76005 1.65404 2.09076 4.94089 2.75343 2.05888 5.03245 
0.792331 2.79325 4.82077 2.05024 3.00226 5.09297 4.28619 3.03062 4.94987 
0.228114 3.45572 5.30649 1.25276 3.74399 5.2081 3.22941 4.09755 4.79903 
0.613607 4.83583 5.03769 2.32578 4.89813 4.84236 1.4517 0.366933 5.88575 
2.69939 0.767224 5.86548 0.640631 1.50393 5.6884 2.84781 1.74725 5.98325 
3.80435 1.46256 5.87633 1.78389 1.97932 5.92905 3.71242 2.40513 5.54865 
4.72829 2.3505 5.54748 0.839327 2.63869 5.83555 2.51208 2.683 5.91612 
3.17739 3.26378 5.44633 4.60271 3.33046 5.94074 0.634311 4.18436 5.86092 
2.30362 3.92011 5.5026 3.93953 3.92516 5.48322 4.88535 4.2733 5.62606 
1.50706 4.95179 5.46544 3.64254 0.462247 6.06212 0.857684 0.900197 6.48623 
1.99361 1.11657 6.49574 4.499 0.935869 6.40128 0.788258 1.90794 6.5899 
0.147867 3.09165 6.40133 3.551 2.5324 6.5418 4.69192 2.51534 6.58089 
1.64327 3.20011 6.03529 3.20814 3.55705 6.40299 1.60477 4.18786 6.19701 
4.25502 4.198 6.39716 0.0234549 4.97292 6.09612 0.930583 4.87468 6.51843 
2.33598 4.84929 6.05716 3.31834 4.5307 6.09229 1.41248 0.220821 6.95685 
2.56294 0.414958 6.9618 3.50217 0.0844837 6.98371 4.48971 0.0365205 6.87412 
3.30747 1.18102 6.69715 4.14261 1.741 6.92197 2.13129 2.09259 6.86179 
3.06606 1.99458 7.22126 1.33683 2.69864 6.84103 2.48562 3.02719 6.85053 
0.950577 3.61475 6.67102 1.69903 3.49086 7.32053 4.10607 3.30374 6.81471 
0.058238 4.13971 6.68122 2.53631 4.18089 6.81775 1.62144 4.47642 7.15536 
3.53205 4.40053 7.05966 4.47797 4.61243 7.28117 1.78947 0.186907 7.8735 
0.559254 1.02768 7.46315 1.50351 1.14381 7.88385 3.3813 0.825736 7.64947 
4.38127 0.912128 7.61161 2.37379 1.29097 7.40514 3.79617 1.71639 7.8614 
0.197025 1.91552 7.88551 1.13756 2.07 7.58857 4.70219 2.21871 7.59827 
0.83288 2.99018 7.93028 2.68942 2.77088 7.88316 3.76529 2.66813 7.52944 
3.14824 3.52685 7.40255 4.87218 3.18819 7.4613 0.780385 3.96567 7.59456 
2.38146 3.99958 7.83523 4.00621 3.88108 7.77122 0.365874 4.83675 7.33104 
1.31604 4.99889 7.95086 2.46155 4.92227 7.47107 3.61176 0.00688717 8.48079 
4.86603 0.137481 8.03402 0.18307 0.974134 8.40258 2.56699 0.761795 8.22602 
4.25057 0.796759 8.59442 2.81789 1.8041 8.16431 1.88288 2.14779 8.25231 
4.33519 2.09847 8.62017 4.27964 3.09437 8.31868 0.00838776 3.71231 8.28813 
1.85772 3.16664 8.27722 3.20325 3.57943 8.57132 1.29105 3.96978 8.45339 
4.87478 3.98188 8.29381 0.483273 4.59164 8.32333 2.17 4.65114 8.56235 
3.24035 4.46039 8.04277 0.103123 0.124891 8.94634 1.32557 0.64744 8.73188 
2.57257 0.996931 9.19516 1.16893 1.63763 8.74301 3.50957 1.43768 8.78305 
0.523637 2.40827 8.69642 2.49056 1.9991 9.11957 1.95861 2.84201 9.2241 
4.87448 2.66601 9.24552 0.18997 4.13298 9.16578 2.29097 3.75934 8.99307 
4.08138 3.8517 9.02905 1.26081 4.83708 8.93624 3.24543 4.44095 9.06116 
1.82356 0.392899 9.55734 2.79985 0.197841 9.74681 3.76427 0.21739 9.46638 
4.6542 0.268247 9.93377 4.57413 1.22524 9.43592 0.785283 1.39392 9.8678 
1.73573 1.38363 9.56125 1.14294 2.37919 9.57933 3.27473 2.20861 9.71279 
4.26321 2.10212 9.83484 0.244783 3.09407 9.36697 3.8982 2.94859 9.46311 
1.33283 3.6136 9.38813 2.33923 3.436 9.93374 3.35917 3.89805 9.8873 
4.98336 4.03071 9.4683 0.735294 4.6717 9.80072 1.98544 4.52415 9.56286 
4.56269 4.8925 9.8614 0.237921 5.49684 0.0640505 1.82611 5.10523 0.526012 
1.111 6.10367 0.4046 4.51176 5.98537 0.287536 0.275604 6.50048 0.0320455 
1.21832 7.02378 0.0337464 3.47005 7.49747 0.233204 4.8263 6.90545 0.532475 
0.813952 7.95933 0.504714 2.05865 8.08998 0.455166 4.00728 8.46255 0.398258 
0.703295 9.26022 0.592913 2.62076 9.12241 0.451462 1.73712 9.59683 0.417835 
3.51135 9.57277 0.21739 0.936484 5.21 1.01276 2.80282 5.36208 0.675673 
3.83972 5.5818 0.922442 4.98088 5.22142 0.72977 0.4063 6.04997 1.11681 
2.01764 6.13599 0.83834 2.91817 6.55235 0.656026 3.90211 6.56841 0.848513 
0.531515 7.00562 0.871276 1.6127 7.32732 0.936798 2.70374 7.57481 1.06024 
4.06194 7.51391 1.1073 4.82697 8.09404 0.842317 1.48405 8.72912 1.04621 
2.9855 8.52784 1.16576 3.84515 9.09167 1.19512 4.74467 9.08574 0.758092 
1.17075 9.9269 1.17444 2.95726 9.54272 1.28794 4.24275 9.97121 0.801957 
0.366729 5.22034 1.86818 4.26841 5.06545 1.97764 1.59604 5.7134 1.72667 
3.24878 5.77661 1.83765 0.730126 6.65632 1.84626 2.46339 6.49854 1.79756 
3.42183 6.8142 1.72213 4.43759 6.37188 1.77629 1.64396 7.05729 1.9078 
4.96405 7.3963 1.71705 0.846212 7.67593 1.54955 1.83527 8.02766 1.76244 
3.37455 7.82492 1.76097 0.249994 8.75492 1.32767 1.02532 8.58721 1.94114 
4.23343 8.41265 1.82395 2.38899 8.88554 1.88288 0.458875 9.65013 1.9076 
1.61538 9.51064 1.96348 3.75633 9.99249 1.67496 4.68041 9.45738 1.68016 
1.11765 5.31662 2.5145 2.52149 5.13575 2.19075 1.66378 6.33532 2.62098 
3.78129 6.34788 2.52968 4.72297 6.68801 2.68157 0.864208 7.38829 2.52617 
3.17773 7.31435 2.59769 4.15672 7.4666 2.30642 0.216883 8.1054 2.24994 
3.311 8.69289 2.25507 0.475397 8.98049 2.68176 4.06526 9.36876 2.47574 
3.12962 9.68133 2.38844 3.63263 5.39975 2.80682 2.65892 5.87 2.861 
4.57836 5.71536 2.88368 0.691416 6.44391 2.82114 2.1941 7.29471 2.75752 
0.47977 8.09313 3.30813 1.64654 8.53962 2.76504 2.65824 8.23902 2.87057 
3.61216 8.15454 3.13502 4.50691 8.53635 2.7809 2.5634 9.24325 3.11686 
1.30467 9.46603 2.96129 4.37029 9.81433 3.31886 2.14034 5.52044 3.68913 
4.09718 5.5706 3.76281 0.0713307 6.08943 3.52869 1.21843 5.86975 3.46141 
3.13118 5.826 3.74545 0.800012 6.66562 3.93008 2.41533 6.6431 3.56729 
3.39352 6.71782 3.37279 1.40386 7.22343 3.35873 4.35382 7.2933 3.38242 
2.9096 7.59701 3.6487 1.17071 8.73667 3.7128 2.23403 8.35326 3.76349 
3.58802 8.99414 3.76173 4.57455 8.90459 3.72007 0.0816017 9.52729 3.65959 
3.36429 9.96708 3.83458 0.5738 5.44654 4.13959 1.52761 5.41298 4.54732 
2.50812 5.8714 4.55985 4.86127 6.00026 4.28168 1.72181 6.47716 4.2685 
3.16408 6.60064 4.46071 4.08565 6.60053 4.08773 2.23169 7.44824 4.49927 
0.592352 7.78995 4.28878 4.15707 7.70147 4.26978 1.52378 8.15688 4.50332 
3.38915 8.33406 4.50447 1.72493 9.32659 4.29965 2.69605 9.22301 4.12583 
0.732729 9.62237 4.44671 4.41009 9.75987 4.31799 4.22199 5.01656 5.22562 
0.449557 5.8214 5.05846 1.33575 6.25682 5.24269 3.71379 5.68311 4.68296 
4.80894 5.84895 5.26775 2.24047 6.6952 5.2451 4.09323 6.60079 5.09777 
0.213725 6.96795 4.69902 1.23898 7.19677 4.78615 3.1449 7.46994 4.942 
4.33269 7.68062 5.26825 0.731349 8.42482 5.05672 2.43349 8.5167 4.78645 
4.2867 8.63881 4.94392 1.62121 8.86763 5.25136 3.60178 9.32876 4.70752 
1.89865 9.99183 5.05936 2.71602 9.4102 5.20847 3.14356 5.17122 5.34451 
2.1953 5.67385 5.48392 0.406651 6.62326 5.6532 3.11469 6.32154 5.56547 
1.41425 7.11918 5.81319 3.23458 7.4645 5.93564 0.578692 7.65998 5.98625 
2.11299 7.81963 5.46769 3.24815 8.37772 5.49564 2.37893 8.80242 5.92587 
4.49858 8.80138 5.90884 0.948697 9.53063 5.57698 4.17928 9.69272 5.46412 
[...]
POINT_DATA 1000
FIELD FieldData 7
id 1 1000 int
9 843 530 528 531 519 20 506 526 
600 11 595 255 109 510 6 16 146 
5 2 773 509 514 18 757 505 17 
522 12 513 1 501 504 516 748 14 
502 518 13 524 302 523 554 10 41 
21 537 794 909 529 4 34 640 35 
548 555 23 534 544 541 7 38 508 
626 547 532 545 22 170 533 552 536 
26 782 30 557 24 543 546 277 283 
418 542 550 644 29 71 33 40 47 
551 540 42 31 279 37 32 556 558 
67 28 900 561 560 570 654 49 63 
535 539 25 280 294 36 53 44 69 
45 54 559 55 187 566 80 59 51 
58 62 70 68 48 817 563 50 572 
669 43 220 588 57 583 61 84 538 
569 567 589 52 311 573 568 575 345 
571 663 64 578 582 337 303 574 96 
66 101 103 102 800 91 56 92 95 
202 699 85 78 74 580 97 585 79 
99 81 83 339 592 77 591 89 118 
579 590 576 82 72 104 88 86 833 
93 125 87 584 75 593 586 581 98 
694 577 715 870 127 120 123 602 107 
608 105 108 73 110 115 598 233 601 
235 124 119 604 116 128 111 599 605 
846 272 117 106 240 594 112 735 507 
633 372 606 607 610 121 512 365 114 
597 603 515 113 142 596 527 404 503 
612 143 872 152 723 984 611 625 617 
132 133 520 140 130 511 517 770 892 
129 135 151 148 147 134 616 629 138 
144 149 631 3 141 150 874 627 632 
613 139 131 614 620 622 383 641 624 
651 136 173 623 646 912 174 8 402 
27 168 642 653 423 659 657 615 160 
647 163 157 636 158 658 166 156 650 
648 639 171 652 161 154 167 172 162 
668 924 656 655 177 643 645 682 159 
637 649 169 155 660 436 638 450 190 
194 420 681 193 164 180 185 153 199 
182 673 661 677 192 683 948 666 60 
674 178 680 198 189 181 686 679 684 
676 670 662 562 188 207 664 183 675 
179 196 176 671 678 191 685 667 195 
469 709 211 970 693 701 689 215 703 
690 206 665 200 197 706 205 707 702 
698 203 692 691 214 218 209 210 700 
201 216 704 710 688 224 719 712 481 
219 741 708 705 238 222 221 212 961 
969 122 587 217 230 208 374 695 228 
743 713 714 737 720 992 227 727 726 
733 696 244 226 717 742 242 738 739 
137 628 716 239 225 736 991 734 234 
237 725 236 223 521 247 630 634 229 
618 635 243 728 245 246 231 722 732 
718 248 724 396 252 251 259 767 268 
271 369 525 260 609 752 380 747 891 
758 761 765 15 866 287 744 760 754 
254 261 772 262 269 250 382 904 257 
768 253 258 753 764 19 267 769 263 
265 762 413 756 790 763 778 755 282 
286 781 788 281 766 299 300 908 780 
784 785 746 777 775 293 292 783 276 
786 793 911 414 275 427 298 290 306 
818 289 774 285 296 274 789 776 288 
779 806 291 792 809 295 553 325 813 
816 323 278 811 313 284 406 321 408 
301 803 320 319 46 808 308 305 324 
318 549 812 796 814 807 316 310 322 
672 314 565 934 943 821 810 832 333 
355 802 797 798 307 805 815 343 312 
315 837 335 334 827 830 338 564 349 
353 340 831 819 332 94 348 952 801 
835 864 347 213 329 826 342 331 346 
825 354 823 100 336 327 804 351 824 
341 829 344 996 822 858 848 90 359 
326 836 377 352 350 834 371 328 855 
373 126 857 330 856 854 840 838 869 
76 859 850 845 466 844 861 839 989 
363 362 863 847 357 867 368 852 868 
270 849 851 367 378 1000 483 865 853 
860 364 750 745 256 862 356 366 842 
841 361 360 358 266 249 375 389 273 
990 385 875 391 232 390 895 400 399 
873 264 749 759 403 384 871 395 878 
884 887 405 621 879 886 881 381 876 
889 896 145 898 888 393 883 899 387 
901 885 894 398 893 386 432 791 424 
437 922 877 882 927 397 410 925 426 
411 422 921 905 751 906 928 297 419 
907 388 431 915 415 923 175 914 412 
926 438 435 39 417 903 918 919 439 
920 461 434 917 916 409 407 429 457 
787 951 910 433 430 902 939 459 942 
945 165 425 416 937 940 440 944 421 
448 913 304 309 317 449 428 453 470 
443 947 941 447 444 186 938 950 446 
456 946 454 795 462 929 452 799 933 
442 460 184 960 930 455 936 932 441 
935 931 949 65 464 472 445 468 204 
451 953 976 964 971 458 954 474 965 
828 967 977 697 476 467 966 711 962 
687 465 958 471 959 820 972 463 473 
478 379 497 475 489 956 955 968 957 
974 477 479 994 499 488 985 973 995 
493 494 998 721 999 485 975 487 491 
963 988 482 241 376 978 495 730 729 
486 480 986 496 740 484 370 492 997 
980 890 500 771 619 498 979 401 392 
981 897 394 983 880 982 987 993 731 
490 
type 1 1000 int
1 2 2 2 2 2 1 2 2 
2 1 2 1 1 2 1 1 1 
1 1 2 2 2 1 2 2 1 
2 1 2 1 2 2 2 2 1 
2 2 1 2 1 2 2 1 1 
1 2 2 2 2 1 1 2 1 
2 2 1 2 2 2 1 1 2 
2 2 2 2 1 1 2 2 2 
1 2 1 2 1 2 2 1 1 
1 2 2 2 1 1 1 1 1 
2 2 1 1 1 1 1 2 2 
1 1 2 2 2 2 2 1 1 
2 2 1 1 1 1 1 1 1 
1 1 2 1 1 2 1 1 1 
1 1 1 1 1 2 2 1 2 
2 1 1 2 1 2 1 1 2 
2 2 2 1 1 2 2 2 1 
2 2 1 2 2 1 1 2 1 
1 1 1 1 2 1 1 1 1 
1 2 1 1 1 2 1 2 1 
1 1 1 1 2 1 2 1 1 
2 2 2 1 1 1 1 1 2 
1 1 1 2 1 2 2 2 1 
2 2 2 2 1 1 1 2 1 
2 1 1 1 1 1 2 1 2 
1 1 1 2 1 1 1 2 2 
2 1 1 1 1 2 1 2 2 
2 1 2 2 2 1 2 1 1 
2 2 2 1 1 2 2 1 2 
2 1 2 1 2 2 2 2 2 
1 1 2 1 1 2 2 2 2 
1 1 1 1 1 1 2 2 1 
1 1 2 1 1 1 2 2 2 
2 1 1 2 2 2 1 2 2 
2 1 1 2 2 2 1 1 1 
1 1 2 2 1 2 2 2 1 
2 1 1 2 1 2 1 1 2 
2 2 1 2 1 1 1 1 1 
2 2 2 2 1 2 2 2 1 
2 2 1 1 2 1 2 1 1 
1 1 2 1 1 1 1 1 1 
1 2 2 2 1 2 2 2 1 
2 1 2 1 1 1 2 2 2 
2 2 2 2 1 1 2 1 2 
1 1 1 2 2 1 2 2 1 
1 2 1 2 2 2 2 1 2 
2 1 2 1 1 2 1 2 2 
2 1 2 2 1 1 1 1 2 
1 1 2 2 2 1 2 2 1 
1 2 2 2 1 1 1 1 2 
2 1 2 1 1 1 1 2 1 
2 2 2 2 2 2 1 2 2 
2 2 1 1 2 2 1 2 2 
1 2 2 1 1 2 2 2 1 
1 2 1 1 2 1 2 2 1 
2 2 1 2 1 1 1 2 2 
2 1 2 1 1 1 1 2 1 
1 1 2 1 2 2 1 2 2 
2 2 2 1 2 1 2 2 2 
1 1 2 1 1 1 1 2 1 
2 1 1 2 2 1 1 2 1 
1 2 1 2 2 2 2 2 1 
1 2 2 1 2 1 1 2 2 
2 2 2 2 2 1 1 2 1 
2 2 2 1 1 1 1 1 1 
2 1 2 1 1 1 2 2 1 
2 2 1 2 2 1 2 1 2 
2 1 1 2 1 1 1 1 1 
1 2 1 1 1 2 1 1 1 
1 2 2 2 2 2 1 1 1 
2 1 2 2 2 2 2 2 1 
1 2 2 2 1 2 2 1 1 
1 2 1 1 2 2 1 2 1 
1 1 2 2 1 1 1 2 2 
2 2 1 1 1 2 1 1 1 
2 1 2 1 1 1 2 1 2 
1 2 1 2 2 2 2 1 1 
1 2 1 1 1 2 1 1 2 
1 1 2 1 2 2 2 2 2 
1 2 2 2 1 2 2 2 2 
1 1 2 2 1 2 1 2 2 
1 2 2 1 1 2 1 2 2 
2 1 2 2 1 2 1 1 2 
2 1 1 1 1 1 1 1 1 
2 1 2 1 1 1 2 1 1 
2 1 2 2 1 1 2 1 2 
2 2 1 2 2 2 2 1 2 
2 2 1 2 2 1 2 2 1 
2 2 2 1 2 1 1 2 1 
1 2 2 2 2 1 1 2 1 
1 1 2 2 2 2 2 1 1 
2 1 1 2 1 2 1 2 1 
2 1 1 1 1 2 2 2 1 
2 1 1 2 2 1 1 1 1 
2 2 2 1 1 2 2 1 2 
2 1 1 1 2 2 1 2 1 
1 2 1 1 1 1 1 1 1 
1 2 2 1 1 1 2 2 1 
1 2 1 2 1 2 1 2 2 
1 1 1 2 2 1 2 2 1 
2 2 2 1 1 1 1 1 1 
1 2 2 2 2 1 2 1 2 
2 2 2 2 1 1 2 2 2 
2 1 2 1 2 2 2 1 1 
1 1 1 1 1 2 2 2 2 
2 1 1 2 1 1 2 2 2 
1 1 2 2 2 1 2 1 1 
2 2 1 1 1 2 1 2 2 
1 1 2 1 2 1 1 1 2 
2 2 1 2 2 1 2 1 1 
2 2 1 2 2 2 2 2 2 
1 
i 3 1000 int
0 0 0 1 0 1 0 0 0 
0 0 0 0 0 0 0 0 0 
0 0 0 0 0 0 0 0 0 
0 0 1 0 0 0 0 0 1 
1 0 0 0 0 1 0 0 0 
0 0 0 0 0 0 0 1 0 
0 0 0 0 0 0 0 0 0 
0 0 0 0 0 0 0 0 0 
1 0 0 0 0 0 0 0 0 
0 0 0 0 0 0 0 0 0 
0 0 0 0 0 0 0 0 0 
0 0 0 1 0 0 0 0 0 
0 0 0 0 0 0 0 0 0 
0 0 0 1 0 0 0 0 0 
0 0 0 0 0 0 0 0 0 
0 0 0 0 0 0 0 0 0 
1 0 0 0 0 0 0 0 0 
0 0 0 0 1 0 0 0 0 
0 0 0 0 0 0 0 0 0 
0 0 0 0 0 0 0 0 0 
0 0 0 0 0 0 0 0 0 
0 0 0 0 0 0 0 0 0 
0 0 0 0 0 0 0 1 0 
0 0 0 0 0 0 0 0 0 
0 0 0 0 0 0 0 0 0 
0 0 0 0 0 0 0 0 0 
0 0 0 0 0 0 1 0 0 
1 0 0 0 0 0 0 0 0 
0 1 0 0 0 0 0 0 0 
0 0 0 0 0 0 0 0 0 
0 0 0 0 0 0 0 0 0 
0 0 0 0 0 0 0 0 0 
0 0 0 0 0 0 0 0 0 
0 0 0 0 0 0 0 0 0 
0 0 0 0 0 0 0 0 0 
0 1 0 0 0 0 0 0 0 
0 0 0 0 0 0 0 0 0 
0 0 0 1 0 0 0 0 0 
0 0 0 0 0 0 0 0 0 
0 0 0 0 0 0 0 0 0 
0 0 0 0 1 0 0 0 0 
0 0 0 0 0 0 0 0 0 
0 0 0 0 0 0 0 0 0 
0 0 0 0 0 0 0 0 0 
0 0 0 0 0 0 0 0 0 
0 0 0 0 0 0 0 1 0 
0 0 0 0 0 0 0 0 0 
0 0 0 0 0 0 0 0 0 
0 0 0 0 0 0 0 0 0 
0 0 0 0 0 0 0 0 0 
0 0 0 0 0 0 0 0 0 
0 0 0 0 1 0 0 0 0 
0 0 0 0 0 0 1 0 0 
1 0 0 0 0 0 0 0 0 
0 0 0 0 0 0 0 0 0 
0 0 0 1 0 0 0 0 0 
0 0 0 0 0 0 0 0 0 
0 1 0 0 1 0 0 0 0 
0 0 0 0 0 0 0 0 0 
0 0 0 0 0 0 0 0 0 
0 0 0 0 0 0 0 0 0 
1 0 0 0 0 0 0 0 0 
0 0 0 0 0 0 0 0 0 
0 0 0 0 0 0 0 0 0 
0 0 0 0 0 0 0 0 0 
0 0 0 0 0 0 0 0 0 
0 0 0 0 0 0 0 0 0 
0 0 0 0 0 0 0 0 0 
0 0 0 0 0 0 0 0 0 
0 0 0 0 0 0 0 1 0 
0 0 0 0 0 0 0 0 0 
0 0 0 0 0 0 0 0 0 
0 0 0 0 0 0 0 0 0 
0 0 0 0 0 0 0 0 0 
0 0 0 0 0 0 0 0 0 
0 0 0 0 0 0 0 0 0 
0 0 0 0 0 0 0 0 0 
0 0 0 0 0 0 0 0 0 
0 0 0 1 0 -1 0 0 0 
0 0 0 0 0 0 0 0 0 
0 0 0 0 1 0 0 0 -1 
0 1 -1 0 0 0 0 0 0 
0 0 0 0 0 0 0 0 0 
0 0 -1 1 0 0 0 0 0 
0 0 0 0 0 0 0 0 -1 
0 0 0 0 0 -1 0 0 0 
0 0 -1 1 0 0 0 0 0 
0 0 0 0 0 0 1 0 0 
0 0 0 0 0 1 0 0 1 
0 0 0 0 0 0 0 0 0 
0 0 0 0 0 0 0 -1 0 
0 0 0 0 0 0 0 0 0 
0 0 0 0 0 0 1 0 0 
0 0 0 0 0 0 0 0 0 
0 0 0 0 0 0 0 0 0 
0 0 0 0 0 0 0 0 0 
0 0 0 0 0 0 0 0 0 
0 -1 0 0 0 0 0 0 0 
1 0 0 0 0 0 0 0 0 
0 0 0 0 0 0 0 0 0 
0 0 0 0 0 0 0 0 0 
0 0 0 0 0 0 0 0 0 
0 0 0 0 0 0 0 0 0 
0 0 0 0 0 0 1 0 0 
0 0 0 0 -1 0 0 0 0 
0 0 0 0 0 0 0 0 0 
0 0 0 0 0 0 0 0 0 
0 0 0 0 0 0 0 0 0 
0 0 0 0 0 0 0 0 0 
0 0 0 0 0 0 0 0 0 
0 0 0 0 0 0 0 0 0 
0 0 0 0 0 0 0 0 0 
0 0 0 0 0 0 0 0 0 
0 0 0 0 0 0 0 0 0 
0 0 0 1 0 0 0 0 0 
0 0 0 0 0 0 0 0 0 
0 0 0 0 0 0 0 0 0 
0 0 0 0 0 0 0 0 0 
0 0 0 0 0 0 1 0 0 
0 0 0 1 0 0 0 0 0 
0 0 0 0 0 0 0 0 0 
0 0 0 0 0 0 0 0 0 
0 0 0 0 0 0 0 0 0 
0 0 0 0 0 0 0 0 0 
0 0 0 0 0 0 0 0 0 
1 0 0 0 0 0 0 0 0 
0 0 0 0 0 0 0 0 0 
0 0 0 0 0 0 0 0 0 
0 0 0 0 0 0 0 0 0 
0 0 0 0 0 0 0 0 0 
0 -1 0 0 0 0 0 0 0 
0 0 0 0 0 0 0 0 0 
0 0 0 0 0 0 0 0 0 
0 0 0 0 0 0 0 0 0 
0 0 0 0 0 0 0 0 0 
0 0 0 0 0 0 0 0 0 
0 0 0 0 0 0 0 0 0 
0 0 0 0 0 0 0 0 0 
0 0 0 0 0 0 0 0 0 
0 0 0 0 0 0 0 0 0 
0 0 0 0 0 0 0 0 0 
0 0 0 0 0 0 0 0 0 
0 0 0 0 0 0 0 0 0 
0 0 0 0 0 0 0 0 0 
0 0 0 0 0 0 0 0 0 
0 0 0 0 0 0 0 0 0 
0 0 0 0 0 0 1 0 0 
0 0 0 0 0 0 0 0 0 
0 0 0 0 0 0 0 0 0 
0 0 0 0 0 0 0 0 0 
0 0 0 0 -1 0 0 -1 0 
0 0 0 0 0 0 0 0 0 
1 0 0 0 0 0 0 0 0 
0 0 0 0 0 0 0 0 0 
0 0 0 0 0 0 0 0 0 
0 0 0 0 0 0 0 0 0 
0 0 0 0 0 0 0 0 0 
0 0 0 0 0 0 0 0 0 
0 0 0 0 0 0 0 0 0 
0 0 -1 0 0 -1 0 0 0 
0 0 0 0 0 0 0 0 0 
1 0 0 0 0 0 0 0 0 
0 0 0 0 0 0 0 0 0 
0 0 0 0 0 -1 0 0 0 
0 0 -1 0 0 -1 0 0 0 
0 0 -1 0 0 -1 0 0 0 
0 0 0 0 0 0 0 0 0 
0 0 0 0 0 0 0 0 0 
0 0 0 0 0 0 0 0 0 
0 1 0 0 0 0 0 0 0 
0 0 0 0 0 0 0 0 0 
0 0 0 0 0 1 0 0 0 
0 0 0 0 0 1 0 0 0 
0 0 1 0 0 0 0 1 0 
0 0 0 0 0 0 0 0 0 
0 0 0 0 0 1 0 0 0 
0 0 0 0 0 0 0 0 0 
0 0 0 0 0 0 0 0 0 
0 0 0 0 0 0 0 0 0 
0 1 0 0 1 0 0 0 0 
0 0 0 0 0 0 0 0 0 
0 0 0 0 0 0 0 0 0 
0 0 0 0 0 0 0 0 0 
0 0 0 0 0 0 0 1 0 
0 0 0 0 0 0 0 0 0 
0 0 0 0 0 0 0 0 0 
0 0 0 0 0 0 0 0 0 
0 0 0 0 0 0 0 0 0 
0 0 0 0 1 0 0 0 0 
0 0 0 0 0 0 0 0 0 
0 0 0 0 0 0 0 0 0 
0 0 0 0 0 0 0 0 0 
0 0 0 0 0 0 0 0 0 
0 0 0 0 0 0 0 1 0 
0 0 0 0 0 0 0 0 0 
0 0 0 0 0 0 0 0 0 
0 0 0 0 0 0 0 0 0 
0 0 0 0 0 0 0 0 0 
0 0 0 0 0 0 0 0 0 
0 0 0 0 0 0 0 0 0 
-1 0 0 0 0 0 0 0 0 
0 0 0 0 0 0 0 0 0 
0 0 0 0 0 0 0 0 0 
0 0 0 0 0 0 0 0 0 
0 0 0 0 0 0 0 0 0 
0 0 0 0 0 0 0 0 0 
0 0 0 0 0 0 0 0 0 
0 0 0 -1 0 0 0 0 0 
0 0 0 0 0 0 0 0 0 
0 0 0 0 0 0 0 0 0 
0 0 0 0 0 0 0 0 0 
0 1 0 0 1 0 0 0 0 
0 0 0 0 0 0 0 0 0 
0 0 0 0 0 0 0 0 0 
0 0 0 0 0 0 0 0 0 
0 0 0 0 0 0 0 0 0 
0 0 0 0 0 0 0 0 0 
0 0 0 0 0 0 0 0 0 
0 0 0 -1 0 0 0 0 0 
0 0 0 0 0 0 0 0 0 
0 0 0 0 0 0 0 0 0 
0 0 0 0 0 0 0 0 0 
0 0 0 0 0 0 0 0 0 
-1 1 0 0 0 0 0 0 0 
0 0 0 0 0 0 0 0 0 
0 0 0 0 0 0 0 0 0 
-1 0 0 0 0 0 0 0 0 
0 0 0 0 0 0 0 0 0 
0 0 0 0 0 0 0 0 0 
0 1 0 0 0 0 0 0 0 
0 0 0 -1 0 0 0 0 0 
0 0 0 0 0 0 0 0 0 
0 0 0 0 0 0 0 0 0 
0 0 0 0 0 0 0 0 0 
0 0 0 0 0 0 0 0 0 
0 0 0 0 0 0 0 0 0 
0 0 0 0 0 0 0 0 0 
-1 0 0 0 0 0 0 0 0 
0 0 0 0 0 0 0 0 0 
0 0 0 0 0 0 0 1 0 
0 0 0 0 0 0 0 0 0 
0 0 0 0 0 0 0 0 0 
0 0 0 0 0 0 0 0 0 
0 0 -1 0 0 0 0 0 0 
0 0 0 0 0 0 0 0 0 
0 0 0 0 0 0 0 0 0 
0 0 0 0 0 0 0 0 -1 
0 0 -1 0 0 -1 0 0 0 
0 0 0 0 0 0 0 0 0 
0 0 0 0 0 0 0 0 0 
0 0 0 0 0 -1 0 0 -1 
0 0 0 0 0 0 0 0 0 
0 0 1 0 0 0 0 0 0 
0 0 0 0 0 1 0 0 0 
0 0 0 0 0 0 0 0 0 
0 0 0 0 -1 0 0 0 0 
0 0 0 0 0 0 0 0 0 
0 0 0 0 0 0 0 0 0 
0 0 0 0 0 0 0 0 0 
-1 0 0 0 0 0 0 0 0 
0 0 0 0 0 0 0 0 0 
0 0 0 0 0 0 0 0 0 
0 0 0 0 0 0 0 0 0 
0 0 0 0 0 0 0 0 0 
0 0 0 0 0 0 0 0 0 
0 0 0 0 0 0 0 0 0 
0 0 0 0 0 0 0 0 0 
0 0 0 0 0 0 0 0 0 
0 0 0 0 0 0 0 0 0 
0 0 0 0 0 0 0 0 0 
0 0 0 0 0 0 0 0 0 
0 0 0 0 -1 0 0 0 0 
0 0 0 0 0 0 0 0 0 
0 0 0 0 0 0 0 0 0 
0 0 0 0 0 0 0 0 0 
-1 0 0 0 0 0 0 0 0 
0 0 0 0 0 0 0 0 0 
0 -1 0 0 0 0 0 0 0 
0 0 0 0 0 0 0 0 0 
0 0 0 0 0 0 0 0 0 
0 0 0 0 0 0 0 0 0 
0 0 0 0 0 0 0 0 0 
0 -1 0 0 0 0 0 0 0 
0 0 0 0 0 0 0 0 0 
0 0 0 0 0 0 0 0 0 
0 0 0 0 0 0 0 0 0 
0 0 0 0 0 0 0 0 0 
0 0 0 0 0 0 0 0 0 
0 0 0 0 0 0 0 0 0 
0 0 0 0 0 0 0 0 0 
0 0 0 0 0 0 0 0 0 
0 0 0 0 0 0 0 0 0 
0 0 0 0 0 0 -1 0 0 
0 0 0 0 0 0 0 0 0 
0 0 0 0 0 0 0 0 0 
0 -1 0 0 0 0 0 0 0 
0 0 0 0 0 0 0 0 0 
0 0 0 0 0 0 0 0 0 
0 0 0 0 0 0 0 0 0 
0 0 0 0 0 0 0 0 0 
0 0 0 0 0 0 0 0 0 
-1 -1 0 0 0 0 0 0 0 
0 0 0 0 0 0 -1 0 0 
0 0 0 0 0 0 0 0 0 
0 0 0 0 0 0 0 0 0 
0 0 0 0 0 0 0 0 0 
0 0 0 0 0 0 0 0 0 
-1 0 0 0 0 0 0 0 0 
0 0 0 0 0 0 0 0 0 
-1 0 0 0 0 0 0 0 0 
0 0 0 0 0 0 0 -1 0 
0 0 0 0 0 0 0 0 0 
0 0 0 0 0 0 0 0 0 
0 0 0 0 0 0 0 0 0 
0 0 0 0 0 0 0 0 0 
0 0 0 0 0 0 0 0 0 
0 0 0 0 0 0 0 0 0 
0 0 0 0 0 0 0 0 0 
0 0 0 0 0 0 0 0 0 
-1 0 0 0 0 0 0 0 0 
0 0 0 0 0 0 0 0 0 
0 0 0 0 0 0 0 0 0 
-1 0 0 0 0 0 0 0 0 
0 0 0 -1 0 0 0 0 0 
0 0 0 0 0 0 0 0 0 
0 0 0 0 0 0 0 0 0 
0 -1 0 0 0 0 0 0 0 
0 0 0 0 0 -1 0 0 0 
0 0 -1 0 0 -1 0 0 0 
0 0 0 0 0 -1 0 0 -1 
0 0 0 0 0 -1 0 0 -1 
0 0 0 0 0 -1 0 0 0 
0 0 0 0 0 0 0 0 0 
0 0 0 
v 3 1000 double
2.7822386417 0.10017817953 -0.18130631354 0.543062353 0.98793333257 0.67388706655 -1.2847805634 0.7698178368 0.24650299869 
-2.9574338235 2.5823495183 -2.140275111 -2.4423723056 1.387044692 -1.9379902302 -0.85865651402 -1.1075687742 -0.5655688574 
3.4359612278 -0.20855442869 1.1047016918 0.76218334929 -0.64717908722 -1.3400511691 -0.26316698427 0.33304482646 0.0023975796538 
-0.78418292277 -0.21208402125 -0.54105807992 -0.60387391857 0.37925671212 0.69726316682 2.899398256 -1.2240170888 -0.82207635905 
-0.27860644184 -0.96055037341 -0.18358064632 0.56617191444 -0.62713711316 1.9985350344 1.2250292643 2.2119965162 1.1124053155 
2.5271580147 2.1601436445 -2.2838090969 0.78794423567 -1.1285054913 -0.3577909188 -1.0405632861 -0.059903854937 0.10303320847 
0.1271459984 -1.1213040225 -1.86305775 0.49253087218 -0.77314398402 -0.71449006591 0.99240327892 0.39066377371 0.78187869667 
-0.047038180038 -0.56885965537 -1.7563596162 1.5236714089 1.4745163213 -0.83188892011 1.0481149969 -0.48846478751 -0.36785802625 
-0.34198845094 -1.5121190637 -0.050535452745 -0.96713962605 -1.1707563719 -0.50674834358 -0.79857181413 -1.529332854 1.2286982996 
-0.95578818542 -0.73705009597 -0.52245844038 0.4258107098 -1.0207024168 -0.055498261812 1.0894622545 -1.5283602382 0.10210627201 
-0.77522203683 -2.2413856206 1.0615180774 -0.79263796321 -1.1667707345 1.0695640372 -2.2348762848 -1.7535819791 0.31846658094 
2.7570521204 1.1231571452 -2.48338139 -2.1336935101 -0.18503621181 0.36306028204 -0.66573882863 -0.67462680869 1.5672543753 
0.63854332334 -0.78277640003 0.99224024735 -1.6287858448 -0.54133690887 -0.58928948511 2.1722209262 0.13447231388 -1.160578536 
2.7534956452 -1.5083013484 -3.4007263432 -1.8176875016 -1.4690766234 0.001713911086 -1.5618792663 -1.4256499996 -0.42554773847 
-0.8598601718 -0.54239174337 -0.46220469597 0.33198801996 -1.8160891731 -0.18346684261 -0.75731473453 -1.4672160922 1.7716783872 
-0.61954689982 -0.24092587236 1.1836693037 1.4485666449 0.92766728293 -3.0230335345 0.86158760582 1.0017684248 -1.871400097 
2.3140037845 -1.5870342442 0.55258384843 0.62395078173 -0.58503764768 -1.8341022005 -0.10964915267 0.45259821932 -2.4440801578 
-1.0994934556 0.17245700393 -0.43625931032 -0.48065989984 -0.26576952779 -2.4128365855 -0.080017804051 0.79010270054 -0.23961094103 
2.4602496633 0.76629967172 -0.56518401151 -0.80868788949 0.55550478491 0.082252676859 2.6383482475 -1.2448518081 1.7541921827 
3.5593043068 0.51270803888 0.5180455286 -0.54535721025 1.0565806111 -1.8892318592 -0.9742644513 -0.030714483014 -0.8020588421 
0.64692653241 -0.77165132807 -0.90401676912 -0.41026449319 0.50384988947 -2.8014507301 -1.5857216515 -1.0968674306 -0.794115585 
0.88366456704 -3.1029777631 1.0284271297 -0.68664919729 -1.7456442954 -0.7859065228 -0.33895772539 0.029884127514 -2.3029610359 
-0.19658550364 -1.293769513 2.450879341 3.6104139302 -1.7322169624 -0.091190757965 1.0859471402 1.3198900506 -2.0383745987 
2.0123972912 0.7951582757 -1.6801154751 0.55017476981 0.8646922522 -1.472926782 -1.4452401974 -1.2957055793 0.99626166089 
-0.95455389159 -1.1341055805 0.088043336745 -1.0466846283 -1.0753835352 -3.6222681641 -1.9532911234 -2.4144628454 1.2025371491 
0.43876718385 0.71501390158 -0.23989058675 -2.1184948205 -5.8371658758 -0.045205670997 -3.0096720418 1.6374349913 -1.0400596047 
-0.3334457898 0.21739318576 -2.7250944791 -0.25736016553 -1.5855083226 -0.77683436849 0.78627654439 -1.6233538681 0.42519758603 
0.38074237651 -1.8211607287 -0.32813492906 -0.82606574804 -1.0480551467 -0.96141217553 0.47317495335 0.047778837608 -2.7717862367 
-0.077130067797 -1.3696828341 -0.093418649383 -0.17908166988 -2.0640013863 -1.9362861774 2.040077249 -2.0918728582 -0.83708527698 
2.2457935217 -2.2357381455 -1.8344139488 2.522859624 -0.32510572659 -1.1747458022 -1.5277407798 1.0241512331 -3.8183745749 
2.4461767252 1.2096139383 -1.5284722248 -1.9170130048 -0.83081273253 -1.45202289 -1.1742335202 -2.5780712174 1.8183512793 
-0.23862521709 0.42017841288 -1.1928311933 -4.0090749495 -0.72561715004 -2.8375926355 -0.57046412225 -2.8064544884 0.93632554247 
-0.0088447755103 -2.2143547286 -0.43823578742 -0.12472915636 -1.2790807122 0.26801034189 1.7367260262 0.00060588657574 -2.6384267538 
0.22040201777 -1.2304434129 -2.5589564476 1.2330607984 -1.0343862013 -2.4592364192 -0.3992758042 -0.63031920226 0.57472313885 
1.1063161311 0.3925248533 -1.465380418 -2.0569898067 -1.308432667 -0.96067009012 2.0392568472 -0.14209708807 0.70623186312 
0.97636839569 1.8474363506 -2.0355450861 1.1158179669 -0.2602284012 -1.2028418769 2.3906280561 -0.50813872833 -2.9517593074 
-0.27104561857 1.8378140618 -1.0136780813 -0.10640981991 1.1847950811 -0.79416856239 0.92140696703 -2.2456600839 0.9763822511 
-2.2589698013 -1.2865687976 -0.3329784085 2.0100454817 -1.0425531636 3.0064499017 -0.050817209048 -1.7836907048 1.9111273269 
0.96202577236 -0.91219606129 -0.83457314536 0.90622919766 0.84919101923 -1.8986930176 2.3323096639 0.30835496662 -0.68547045106 
-0.93616285064 -0.67319594664 0.63805299911 1.0257843588 -0.36288300597 -1.228337905 -0.81702072434 -3.1214017381 -1.0037774621 
0.012748515517 1.5328628788 1.9659747553 0.44665218143 1.1287924027 -2.4655083692 0.717435476 1.8398119838 0.47511754226 
-0.69588536624 -1.0611006261 -1.2015319633 -1.0829143447 -3.0654989913 1.6839599928 1.8623164737 1.0596763653 -0.41749392633 
1.2161370881 -2.3549080254 0.14480760353 1.4766833349 0.820987032 -1.3332799065 -1.1622257256 -0.39203819774 -0.34105988923 
-0.18126810282 -2.0933228025 0.86475024703 0.84205287298 1.4712040863 -0.71426145983 -0.098972863257 -0.4280180458 -1.4957973069 
0.99984550902 -1.8470966385 4.2823007188 1.8975529421 0.53605677533 1.5325968348 2.579686378 -0.56956771114 -2.1046357683 
2.7059895674 0.13231560606 -0.023997006027 1.6647037424 -0.4657226653 -0.3249499067 -4.988456933 1.7258143473 -0.15423737441 
-0.47340792283 -0.36068825664 -1.6621518918 0.2834632392 1.6833485192 -0.25646438943 -0.71375202466 -0.54042571639 0.58435044933 
-0.88639388141 -0.39942529788 0.75557420123 1.4917158012 1.417841166 -1.6199609067 2.8786325328 0.33476207298 1.2736459867 
2.4666159099 0.26167782651 -1.6188064537 -1.0109792558 0.27534217122 2.4264838934 0.68303018264 0.23108837444 -0.070629725136 
0.32889786985 -0.65015938635 -0.383231468 -0.46913674 0.7628139829 0.20984337532 -0.23300958846 0.52553261564 -0.25446364402 
3.2164242637 0.74351218597 3.3280027332 1.9753932619 -1.6470146006 -1.3340212102 2.178918264 1.1875842618 -1.1448704525 
1.8737544626 -0.91079892085 2.0587721938 -2.0273750851 0.1094672078 -1.0467453258 -1.5265776735 1.9273700692 0.68439817817 
-0.37160138085 -0.031431242053 -0.97567175355 -0.22142122558 -1.4499162307 0.39307164714 1.6409075753 -2.9712934772 1.8047276925 
-1.266376786 2.0460803458 1.373837805 -0.40211794218 1.1512063813 0.3203942467 2.403272358 0.013439653882 -0.37501735706 
-0.41154203683 0.39451798707 0.83809331995 -0.05157132179 2.3673067496 -1.107370191 0.96092695208 0.79213858567 0.97647863624 
1.9931428494 -1.6110901604 -0.71766668463 0.23518986898 0.0045060088128 -1.6191211567 0.37357655363 -0.14949438598 -0.17470237724 
0.55782181492 0.14586708711 -1.1104084243 1.5386885999 0.35524176946 -0.68663647488 -1.2890018012 1.8846775068 -0.35249369722 
0.4249849655 0.080639086382 -1.1479159749 -0.070974526334 -1.5119137845 -0.90760408265 0.23511948993 -2.7507040039 -0.74006815685 