# vtk DataFile Version 4.2
Generated by LIGGGHTS
ASCII
DATASET POLYDATA
POINTS 1000 float
0.604671 0.125246 0.0553694 2.12348 0.199274 0.480155 1.91138 0.924107 0.29467 
3.70258 0.874699 0.108473 3.80951 0.82078 0.260337 0.397128 1.57386 0.434773 
1.5651 1.58553 0.654079 3.14726 1.61753 0.127017 4.01731 1.56345 0.134658 
2.23953 2.20759 0.550638 3.14142 1.97191 0.369216 0.390216 2.64258 0.0480234 
3.30309 3.43767 0.0909745 4.91667 3.53496 0.600113 2.26974 4.35114 0.12638 
1.89204 4.75897 0.55558 3.72696 4.43666 0.622298 0.387545 0.228185 0.794907 
2.65838 0.400078 1.04654 4.3113 0.723821 1.2386 1.55337 1.26108 0.969952 
4.84653 1.37008 0.938366 2.14238 2.0011 1.22655 2.46507 2.66183 1.26907 
2.79286 3.05238 0.790263 3.28401 2.58374 1.06246 3.87687 2.68957 1.26455 
4.62638 2.92068 1.06441 3.36087 3.4567 0.894263 4.61475 3.21544 1.16477 
0.558254 3.75986 0.947225 2.82581 4.21474 1.04549 2.06368 4.5067 1.27538 
2.24185 4.67133 1.31706 3.62889 4.97673 1.20113 1.22569 0.198821 1.58231 
3.55004 0.367994 1.4235 4.2975 0.467083 1.90805 3.81053 1.12736 1.96091 
2.49881 1.81373 1.47006 2.89954 1.2703 1.66105 4.70473 2.17203 1.70991 
4.78522 2.76965 1.37746 2.32937 3.40746 1.34757 3.1774 3.61946 1.44623 
4.17359 3.8231 1.66474 3.79712 3.94284 1.75772 1.49 4.86714 1.9843 
3.01001 4.9841 1.34327 2.21486 1.04952 2.30805 0.102603 1.40755 2.56364 
2.83032 1.31309 2.62427 4.69727 1.25489 2.05898 0.342465 2.38881 2.25974 
1.99309 2.27418 2.51695 3.49746 2.14237 2.45528 2.68824 2.9395 2.01366 
4.17265 2.51637 2.36503 4.28111 3.53465 2.60048 4.44725 3.70742 2.13442 
2.97962 3.97456 2.3989 3.82962 4.18258 2.38918 4.44916 4.18106 2.6263 
4.25531 0.610883 3.07884 4.59133 0.130769 2.7006 4.6191 0.329106 3.2393 
2.14202 1.06935 3.29877 4.97663 1.2193 3.03915 1.85826 1.64053 2.74485 
2.02693 1.84748 3.32355 2.6472 1.79856 3.27579 4.51695 1.29153 2.99687 
0.260039 2.40174 2.954 0.97378 2.47538 2.75012 2.82691 2.37313 2.83346 
4.10132 1.88043 2.91931 0.935452 2.94378 3.22183 1.74156 3.39917 2.79238 
2.37451 3.63626 2.86384 2.16835 3.58523 2.66879 2.65201 3.71472 3.08284 
4.70184 3.56331 3.15934 1.05274 3.96158 2.97919 2.18389 4.89893 3.04077 
1.32127 0.197079 3.53769 0.568943 0.806817 3.91408 2.71996 0.892745 3.7311 
3.73785 0.815884 3.49784 0.245748 1.82821 3.70255 1.17755 2.34314 3.78735 
3.41479 2.33497 3.78036 0.208228 3.62561 3.87967 3.35749 3.39327 3.78235 
1.80962 3.87429 3.6573 0.432751 4.70216 3.84131 3.71942 4.55236 3.75222 
3.28656 4.83523 3.54179 0.0314694 0.56528 4.30532 2.45095 0.077309 4.39357 
2.31557 0.0137718 4.61129 4.98301 0.543068 4.3225 0.91225 0.71733 4.62985 
0.305941 1.2644 4.31266 0.448485 2.19336 4.42516 1.46809 2.68992 4.62535 
2.72511 3.33396 4.04661 3.90065 3.24438 4.16821 0.286738 4.29612 4.23157 
0.037163 4.14988 4.47368 3.37352 3.75874 4.56892 4.8371 3.99791 4.28232 
1.50872 4.63184 4.23037 2.82687 4.48993 4.42964 0.130772 0.0259309 4.74959 
0.477315 1.012 5.09712 1.19996 0.905395 4.75596 2.07127 0.865246 5.31835 
0.312423 1.29318 4.80886 1.2123 1.70929 5.16618 4.77092 1.4737 5.13548 
0.69251 4.55409 4.86955 0.910674 4.89688 5.03238 1.59136 4.82561 5.01897 
1.79389 4.52509 4.73953 2.40013 4.66753 5.23343 2.84092 4.87055 4.94952 
4.13816 4.72488 5.09816 0.056412 0.098023 5.67872 1.50713 0.565158 5.88661 
3.20767 0.243826 5.55628 0.741856 0.741965 5.96214 0.030169 1.85225 5.54575 
4.11486 1.56054 5.96755 4.69216 1.71276 5.6223 0.163498 2.31544 5.79204 
1.44894 1.95785 5.40326 4.90385 2.11253 5.51923 2.10821 3.36885 5.82715 
2.63855 3.40229 5.859 4.63087 3.24208 5.67111 0.260772 4.28258 5.36126 
1.9583 4.01115 5.43823 4.5273 4.04326 5.7318 2.12433 4.92929 5.98542 
1.15356 0.326925 6.06435 3.08877 0.360472 6.32707 1.4355 0.731551 6.27139 
1.19313 1.63556 6.20002 2.58728 1.58558 6.00861 2.94819 1.85276 6.40208 
0.145577 2.86499 6.3904 3.30776 4.36572 6.28095 0.281354 4.96293 6.10245 
1.09538 4.43959 6.23925 4.83739 0.599227 7.02129 0.0761575 1.03771 7.23453 
0.719862 0.859935 6.86968 3.47074 1.10726 6.83866 0.108604 1.86574 7.17241 
1.39836 1.33977 6.98057 4.83311 1.30866 6.75671 2.39117 2.14296 7.21452 
1.91139 2.38561 7.26379 2.56461 2.4588 6.71323 3.42511 2.24559 6.91789 
2.03526 2.91288 7.27644 3.54308 2.77765 7.31283 2.17044 3.52789 6.73562 
3.04468 3.45137 6.87318 4.67725 3.58451 7.07865 2.54297 4.24839 6.84587 
3.32133 3.83833 7.31483 4.76425 4.18078 7.17073 1.21056 4.81134 7.23278 
1.5158 0.169109 7.49894 3.69285 0.183866 7.73994 1.16305 1.04161 7.94421 
1.95198 0.665516 7.43484 2.90643 0.963974 7.59808 3.01108 1.75059 7.50077 
4.09939 1.77349 7.65078 1.04329 2.2072 7.87541 1.67778 2.36441 7.44061 
2.58958 2.08778 7.36026 4.51925 2.236 7.53264 0.0401651 2.74849 7.71014 
2.06572 2.62146 7.86813 2.63498 3.44368 7.53716 3.99186 3.6326 7.44888 
0.514766 4.9119 7.70484 2.89591 4.99147 7.77406 3.95145 4.86885 7.8969 
0.504696 0.0901077 8.09236 2.38814 0.195309 8.14461 1.02222 0.714818 8.32737 
3.35691 1.83861 8.20716 3.81617 1.72902 8.63639 4.1893 1.6102 8.36301 
1.21831 2.06378 8.55836 1.12452 2.39886 8.24108 1.20887 2.51322 8.00686 
4.0476 3.03763 8.62378 2.77621 3.44563 8.23693 0.0839856 3.79016 8.22153 
3.57479 4.20847 8.66503 2.1261 4.62718 8.64101 2.78577 4.6666 8.46043 
3.98048 4.61959 8.18002 0.0831605 0.38269 9.14504 0.965784 0.1563 9.01532 
2.68659 0.416767 9.1024 4.59487 0.590022 8.71698 0.0616742 1.11321 9.2326 
0.531309 1.46622 8.77166 2.67122 1.30715 8.78897 3.53676 2.1584 8.95202 
0.856474 3.08537 8.75972 1.20848 2.7769 9.02372 3.57795 3.66688 9.30286 
4.42484 3.21796 8.94157 3.15757 4.38905 8.71519 2.55364 0.874967 9.45825 
0.203032 1.4471 9.45296 1.03021 1.61813 9.92513 2.95575 1.82939 9.56272 
3.88069 1.39218 9.57326 0.426392 2.16346 9.74909 1.11848 2.83676 9.45968 
4.81553 2.73493 9.55324 0.0104748 3.732 9.98336 1.99094 3.32284 9.54579 
4.55987 3.67684 9.63212 1.97585 4.0754 9.88762 4.70268 3.94602 9.79797 
2.71175 4.66278 9.50155 4.42283 4.43289 9.41408 2.18339 5.02676 0.175636 
4.09586 5.3812 0.326637 0.799413 6.00369 0.653576 3.06432 6.0074 0.181506 
3.746 6.12407 0.194025 4.25907 6.01052 0.0257308 4.84476 5.78955 0.12164 
1.44173 6.43755 0.0860968 2.38154 7.33819 0.576771 4.77838 7.56164 0.604065 
1.98362 8.69639 0.307632 4.3828 8.34159 0.663172 0.262193 9.57241 0.513357 
2.74199 9.65633 0.376117 4.10206 9.60117 0.231747 4.7499 9.6248 0.547517 
4.62716 9.64371 0.0944958 0.737155 5.32195 0.758504 2.2184 5.08925 1.32259 
4.77361 5.24814 1.31997 2.69468 5.64222 0.900027 1.3511 6.84556 0.749669 
1.62108 6.48477 1.26141 3.95265 6.40091 0.85726 3.26509 7.23306 0.895604 
4.10695 6.97026 0.867505 1.16428 7.63636 1.00312 1.11689 8.04802 1.03576 
4.69373 8.31111 1.19988 1.48861 9.08735 1.1345 3.25902 8.83413 0.700737 
4.38981 9.10388 0.974188 4.87886 9.1215 0.91349 3.26998 9.79752 0.782076 
1.7641 5.28974 1.94668 0.541495 5.94406 1.4325 0.041377 6.02976 1.96032 
1.93273 6.08053 1.86714 2.96445 5.72179 1.54028 3.8661 6.12001 1.57302 
0.723758 6.42488 1.78043 2.16831 6.32724 1.34612 3.72523 6.4839 1.61356 
0.249018 7.29772 1.52841 0.311578 8.07514 1.69532 2.01624 8.0228 1.48457 
4.01001 7.57008 1.82145 2.57584 8.72172 1.85364 0.0397437 8.87405 1.96661 
3.68088 9.13107 1.98927 2.35723 9.80914 1.57751 2.64271 9.98514 1.70807 
2.09251 5.89094 2.08691 0.52808 6.76968 2.26639 1.95008 6.41568 2.46114 
3.30569 6.51475 2.62011 3.92306 6.51073 2.56377 4.71331 6.52371 2.42983 
0.53754 8.54002 2.5706 1.86858 8.39676 2.00956 2.04132 8.71995 2.55234 
3.03812 8.55033 2.54062 3.69995 8.27511 2.28361 4.02804 8.46231 2.59879 
1.4603 8.78984 2.27556 2.74489 9.04624 2.18737 3.51133 8.91521 2.63032 
2.67377 9.64326 2.17397 3.79238 5.57585 2.83854 4.71266 6.18162 3.17195 
1.4539 6.7292 2.7513 2.60059 6.60178 3.09182 0.534829 7.08613 2.74484 
1.52093 7.18164 2.995 2.06929 6.9677 2.87764 3.23508 7.33486 2.84147 
2.16718 8.20043 2.78633 0.823417 8.75936 2.71005 1.60968 9.21106 3.3326 
2.15177 8.84887 3.09775 2.50703 8.85532 2.72662 4.34831 9.11072 2.79916 
1.3054 9.97015 3.09945 3.58805 9.48978 3.16641 0.945388 6.14446 3.85905 
1.74427 5.65658 3.48999 3.81794 5.7723 3.76787 4.01001 6.61123 3.40029 
4.56495 6.54225 3.48999 4.43982 6.96186 3.85695 2.74552 7.75914 3.78549 
3.70627 7.66975 3.80096 2.49124 8.56974 3.80203 4.30672 8.26114 3.40903 
0.632949 8.81068 3.4619 3.20675 9.02093 3.68327 3.74809 9.74393 3.85873 
3.20534 9.79026 3.46425 2.68467 6.21679 4.47899 4.38652 5.63977 4.07412 
0.575132 6.50427 4.37422 4.0599 6.35351 4.20794 2.31963 7.41398 4.64223 
3.38031 7.39097 4.24348 0.760944 8.01122 4.0805 1.38801 8.00702 4.47108 
1.48185 7.7414 4.05622 3.82993 7.83779 4.46699 3.18979 8.54622 4.10476 
4.4139 8.61166 4.57777 1.30924 9.22937 4.56031 2.39277 9.15339 4.41262 
1.9162 9.13833 4.20649 4.71791 9.49633 4.07025 0.11733 5.04582 4.91448 
4.65246 5.40428 4.72156 1.12182 5.78819 4.69945 0.672993 5.95146 4.81269 
2.06805 6.29393 4.94846 0.0323866 7.43169 4.82094 0.662915 6.93025 5.22654 
3.61738 7.02045 4.81471 0.481752 7.50266 5.03171 0.118842 7.86072 5.28535 
2.1832 7.60027 5.25135 2.9912 7.77154 4.7741 3.93705 7.6404 4.76726 
1.31822 8.21589 4.90549 2.24692 8.574 5.13075 3.58072 8.40354 5.19466 
1.4593 9.12398 5.00505 3.04243 8.99054 4.66963 4.34884 9.33531 4.86125 
3.07242 9.89171 5.14221 1.97026 5.50962 5.43769 4.67094 6.06408 5.41105 
1.67571 6.85797 5.63388 4.08791 6.38055 5.95903 0.389087 7.72151 5.97558 
1.65676 7.6875 5.35252 3.45105 8.01599 5.36563 4.68431 8.06567 5.65435 
0.780802 8.66963 5.65952 2.79042 8.20703 5.86629 3.31093 8.63496 5.93107 
3.91721 8.53932 5.93205 1.39214 9.71876 5.76136 4.74775 9.65125 5.91227 
0.031564 5.28201 6.08176 1.85653 5.14218 6.05753 2.58536 5.70522 6.16051 
2.59685 5.94956 6.51265 0.418351 6.68887 6.33911 1.64029 6.38947 6.50104 
2.95259 6.42195 6.50643 0.286582 7.46632 6.19895 4.01442 6.99147 6.438 
4.32899 7.87393 6.11301 1.40005 8.21408 6.64492 4.42748 8.6504 6.1865 
1.56789 9.11679 6.3696 0.519634 9.81713 6.47047 0.183118 9.37485 6.59212 
1.90274 9.70574 6.40672 3.11457 9.65212 6.27963 1.44607 6.29457 6.6852 
[...]
POINT_DATA 1000
FIELD FieldData 7
id 1 1000 int
9 520 509 507 528 2 519 531 506 
20 11 526 515 525 510 503 527 16 
530 502 14 18 518 522 501 505 10 
512 12 513 17 6 504 529 517 3 
5 8 13 523 514 524 15 1 21 
516 4 508 511 548 545 544 35 23 
541 554 7 38 543 537 547 532 550 
555 39 40 22 533 534 26 540 552 
536 551 31 557 42 30 24 41 556 
546 37 32 29 34 33 535 553 539 
538 549 25 36 27 28 542 570 560 
562 565 561 71 68 48 53 58 69 
563 44 558 67 54 65 55 63 51 
49 62 47 50 571 43 45 572 60 
559 564 566 59 64 57 61 46 567 
70 569 66 52 574 573 568 575 56 
95 588 578 84 80 583 99 92 91 
103 85 90 579 78 100 86 582 580 
585 589 96 81 584 592 101 83 591 
581 102 77 587 82 590 72 576 97 
74 88 93 79 87 76 73 586 75 
98 577 89 122 118 119 125 104 126 
107 111 593 110 117 108 106 115 601 
598 124 112 120 123 127 116 602 121 
597 605 114 105 594 604 606 607 599 
128 610 600 608 272 603 595 109 609 
596 113 521 143 612 628 151 618 619 
137 635 629 625 617 132 133 140 150 
633 142 129 145 630 152 634 620 134 
616 148 611 623 138 144 149 631 141 
626 130 632 131 613 627 622 135 614 
139 621 147 615 624 136 157 146 636 
168 175 642 658 653 159 160 641 646 
171 651 161 173 647 155 640 158 166 
156 643 648 659 650 657 639 163 644 
167 154 660 174 172 656 162 655 645 
164 165 637 652 169 153 649 638 654 
170 194 668 177 680 180 193 185 199 
682 686 182 676 677 661 673 192 669 
672 190 666 681 198 183 675 189 186 
178 181 184 679 684 678 670 662 195 
187 664 674 179 683 176 671 196 685 
665 191 188 197 667 663 709 702 207 
219 693 701 689 204 703 206 690 688 
205 213 706 220 707 203 215 218 210 
705 209 708 200 710 214 711 700 704 
212 201 202 208 694 211 697 695 698 
692 741 691 687 221 696 216 217 699 
240 743 224 712 720 714 222 243 225 
238 734 241 227 244 230 715 233 713 
742 235 242 721 737 736 729 229 237 
234 728 732 727 733 740 725 223 248 
726 735 247 228 739 717 738 719 730 
239 723 984 716 246 231 245 236 722 
724 226 718 731 773 257 252 750 251 
256 765 259 764 767 270 761 754 744 
260 271 752 266 749 771 758 250 756 
253 258 747 768 753 757 745 268 254 
769 760 762 255 770 273 249 262 261 
759 269 751 748 746 763 755 19 267 
772 766 265 263 777 413 790 778 296 
782 287 277 781 286 794 791 302 299 
788 297 300 283 275 784 775 780 290 
282 785 293 292 789 783 786 793 281 
776 276 288 301 787 795 298 792 779 
291 289 295 279 774 284 285 278 280 
274 294 306 818 324 319 325 808 318 
323 812 813 313 816 805 316 322 304 
811 321 803 320 806 308 307 797 305 
796 817 310 314 315 309 799 317 810 
809 303 798 802 814 804 311 815 807 
801 312 800 821 349 355 819 832 831 
340 332 343 348 345 835 335 820 334 
830 353 827 825 342 338 337 833 354 
333 346 823 94 331 350 351 336 837 
341 834 344 339 952 829 824 828 347 
822 826 329 330 836 326 327 352 328 
373 870 858 857 848 854 852 840 359 
869 845 864 377 853 371 850 376 379 
374 380 370 839 855 861 364 847 357 
856 867 868 378 849 365 851 838 375 
360 844 865 860 862 372 363 863 843 
362 366 356 866 368 842 841 846 361 
369 358 367 859 890 875 404 385 394 
401 897 392 390 872 884 391 873 880 
886 396 889 264 399 389 403 384 888 
871 892 383 877 395 878 887 405 387 
400 881 895 398 876 896 381 382 891 
386 898 874 388 393 882 397 883 885 
894 893 879 402 437 911 424 909 423 
432 419 431 927 922 923 899 410 914 
901 426 411 921 422 908 926 928 417 
904 903 912 414 902 918 412 915 415 
425 916 917 407 429 438 436 905 906 
433 427 900 430 406 919 408 418 924 
420 428 907 920 439 434 416 409 925 
421 910 435 913 459 939 942 450 945 
453 461 457 940 440 946 944 937 951 
449 442 948 443 447 930 947 941 444 
950 448 446 943 462 929 452 445 933 
460 938 451 936 458 932 455 441 949 
935 456 931 454 934 464 967 475 966 
468 970 960 953 470 465 471 962 976 
971 469 478 965 472 956 955 977 968 
958 477 964 954 473 474 466 973 467 
476 957 961 975 974 479 959 969 972 
963 463 494 995 481 497 998 489 493 
992 999 487 499 491 485 988 994 996 
997 989 985 483 495 986 979 486 480 
991 484 482 492 488 980 1000 500 498 
978 496 990 981 232 983 982 993 987 
490 
type 1 1000 int
1 2 2 2 2 1 2 2 2 
1 1 2 2 2 2 2 2 1 
2 2 1 1 2 2 2 2 1 
2 1 2 1 1 2 2 2 1 
1 1 1 2 2 2 1 1 1 
2 1 2 2 2 2 2 1 1 
2 2 1 1 2 2 2 2 2 
2 1 1 1 2 2 1 2 2 
2 2 1 2 1 1 1 1 2 
2 1 1 1 1 1 2 2 2 
2 2 1 1 1 1 2 2 2 
2 2 2 1 1 1 1 1 1 
2 1 2 1 1 1 1 1 1 
1 1 1 1 2 1 1 2 1 
2 2 2 1 1 1 1 1 2 
1 2 1 1 2 2 2 2 1 
1 2 2 1 1 2 1 1 1 
1 1 1 2 1 1 1 2 2 
2 2 1 1 2 2 1 1 2 
2 1 1 2 1 2 1 2 1 
1 1 1 1 1 1 1 2 1 
1 2 1 1 1 1 1 1 1 
1 1 2 1 1 1 1 1 2 
2 1 1 1 1 1 1 2 1 
2 2 1 1 2 2 2 2 2 
1 2 2 2 1 2 2 1 2 
2 1 2 1 2 2 1 2 2 
1 2 2 2 2 1 1 1 1 
2 1 1 1 2 1 2 2 1 
2 1 2 2 1 1 1 2 1 
2 1 2 1 2 2 2 1 2 
1 2 1 2 2 1 1 1 2 
1 1 2 2 2 1 1 2 2 
1 2 1 1 2 1 2 1 1 
1 2 2 2 2 2 2 1 2 
1 1 2 1 1 2 1 2 2 
1 1 2 2 1 1 2 2 2 
1 1 2 1 2 1 1 1 1 
2 2 1 2 2 2 2 1 2 
2 1 2 2 1 1 2 1 1 
1 1 1 2 2 2 2 2 1 
1 2 2 1 2 1 2 1 2 
2 1 1 1 2 2 2 2 1 
1 2 2 2 1 2 1 2 2 
1 1 2 1 2 1 1 1 1 
2 1 2 1 2 1 2 2 2 
1 1 1 1 2 1 2 2 2 
2 2 2 2 1 2 1 1 2 
1 2 1 2 2 2 1 1 1 
1 2 1 1 1 1 2 1 2 
2 1 1 2 2 2 2 1 1 
1 2 2 2 2 2 2 1 1 
2 2 1 1 2 2 2 2 2 
1 2 2 2 1 1 1 1 2 
2 1 2 2 2 1 1 2 1 
1 2 1 2 2 1 2 2 2 
1 1 2 1 2 2 2 1 2 
1 1 2 2 2 2 2 1 1 
2 2 2 1 2 1 1 1 1 
2 1 2 2 2 2 2 1 1 
2 2 1 1 2 1 2 2 1 
2 1 1 2 1 2 2 1 1 
2 1 1 1 1 2 2 2 1 
1 2 1 1 2 2 2 2 1 
2 1 1 1 2 2 1 2 2 
1 1 1 1 2 1 1 1 1 
1 1 1 2 1 1 1 2 1 
1 2 2 1 2 2 1 1 1 
2 1 2 1 2 1 1 2 1 
2 2 1 1 1 1 2 1 2 
2 1 2 2 2 2 1 2 2 
2 1 2 2 1 1 2 2 2 
1 1 1 1 1 2 1 2 1 
2 1 2 2 1 1 1 2 1 
1 1 2 1 1 1 1 1 2 
1 2 1 1 2 2 2 2 1 
2 2 1 1 2 1 1 1 1 
1 2 2 2 2 2 2 2 1 
2 2 2 1 2 1 2 1 1 
1 1 1 2 2 2 1 2 1 
2 2 2 1 2 1 2 2 1 
1 2 2 2 2 1 1 2 2 
1 1 1 2 1 2 2 2 1 
1 1 1 2 2 2 1 1 1 
1 2 1 1 2 2 1 2 2 
2 1 2 1 1 1 1 1 2 
2 2 1 2 1 2 2 1 1 
1 2 2 1 2 2 1 1 2 
1 2 2 1 1 2 1 2 2 
2 2 2 1 1 2 1 2 1 
1 1 1 2 2 2 2 1 2 
2 1 1 2 1 2 2 2 1 
2 2 2 1 2 2 1 2 1 
1 2 2 1 1 1 1 2 2 
1 1 2 1 1 2 1 1 2 
1 1 2 2 1 1 1 1 2 
1 2 1 2 1 2 2 1 2 
1 1 1 2 1 2 2 2 2 
1 1 2 1 1 2 2 2 1 
2 1 1 2 1 2 1 1 2 
1 2 1 2 1 2 1 1 2 
2 1 2 1 2 1 2 1 2 
1 2 2 2 1 1 1 2 2 
2 1 1 2 1 2 2 2 2 
2 1 2 2 1 1 1 2 1 
1 2 2 2 2 1 2 2 2 
2 1 1 2 1 1 2 1 1 
2 2 1 1 1 1 2 2 2 
2 2 2 1 1 2 2 1 1 
2 1 1 1 1 2 2 1 1 
2 1 2 2 1 2 2 2 2 
1 
i 3 1000 int
0 0 0 0 0 0 0 0 0 
0 0 0 0 0 0 0 0 0 
0 0 0 0 0 0 0 0 0 
0 0 0 0 0 0 0 0 0 
0 0 0 0 0 0 0 0 0 
0 0 0 0 0 0 0 0 0 
0 0 0 0 0 0 0 0 0 
0 0 0 0 0 0 0 0 0 
0 0 0 0 0 0 0 0 0 
0 0 0 0 0 0 0 0 0 
0 0 0 0 0 0 0 0 0 
0 0 0 0 0 0 0 0 0 
0 0 0 0 0 0 0 0 0 
0 0 0 0 0 0 0 0 0 
0 0 0 0 0 0 0 0 0 
0 0 0 0 0 0 0 0 0 
0 0 0 0 0 0 0 0 0 
0 0 0 0 0 0 0 0 0 
0 0 0 0 0 0 0 0 0 
0 0 0 0 0 0 0 0 0 
0 0 0 0 0 0 0 0 0 
0 0 0 0 0 0 0 0 0 
0 0 0 0 0 0 0 0 0 
0 0 0 0 0 0 0 0 0 
0 0 0 0 0 0 0 0 0 
0 0 0 0 0 0 0 0 0 
0 0 0 0 0 0 0 0 0 
0 0 0 0 0 0 0 0 0 
0 0 0 0 0 0 0 0 0 
0 0 0 0 0 0 0 0 0 
0 0 0 0 0 0 0 0 0 
0 0 0 0 0 0 0 0 0 
0 0 0 0 0 0 0 0 0 
0 0 0 0 0 0 0 0 0 
0 0 0 0 0 0 0 0 0 
0 0 0 0 0 0 0 0 0 
0 0 0 0 0 0 0 0 0 
0 0 0 0 0 0 0 0 0 
0 0 0 0 0 0 0 0 0 
0 0 0 0 0 0 0 0 0 
0 0 0 0 0 0 0 0 0 
0 0 0 0 0 0 0 0 0 
0 0 0 0 0 0 0 0 0 
0 0 0 0 0 0 0 0 0 
0 0 0 0 0 0 0 0 0 
0 0 0 0 0 0 0 0 0 
0 0 0 0 0 0 0 0 0 
0 0 0 0 0 0 0 0 0 
0 0 0 0 0 0 0 0 0 
0 0 0 0 0 0 0 0 0 
0 0 0 0 0 0 0 0 0 
0 0 0 0 0 0 0 0 0 
0 0 0 0 0 0 0 0 0 
0 0 0 0 0 0 0 0 0 
0 0 0 0 0 0 0 0 0 
0 0 0 0 0 0 0 0 0 
0 0 0 0 0 0 0 0 0 
0 0 0 0 0 0 0 0 0 
0 0 0 0 0 0 0 0 0 
0 0 0 0 0 0 0 0 0 
0 0 0 0 0 0 0 0 0 
0 0 0 0 0 0 0 0 0 
0 0 0 0 0 0 0 0 0 
0 0 0 0 0 0 0 0 0 
0 0 0 0 0 0 0 0 0 
0 0 0 0 0 0 0 0 0 
0 0 0 0 0 0 0 0 0 
0 0 0 0 0 0 0 0 0 
0 0 0 0 0 0 0 0 0 
0 0 0 0 0 0 0 0 0 
0 0 0 0 0 0 0 0 0 
0 0 0 0 0 0 0 0 0 
0 0 0 0 0 0 0 0 0 
0 0 0 0 0 0 0 0 0 
0 0 0 0 0 0 0 0 0 
0 0 0 0 0 0 0 0 0 
0 0 0 1 0 -1 0 0 0 
0 0 0 0 0 0 0 0 0 
0 0 0 0 0 0 0 0 0 
0 0 0 0 0 0 0 0 0 
0 0 0 0 0 0 0 0 0 
0 0 0 0 0 0 0 0 0 
0 0 0 0 0 0 0 0 0 
0 0 0 0 0 0 0 0 0 
0 0 0 0 0 0 0 0 0 
0 0 0 0 0 0 0 0 0 
0 0 0 0 0 0 0 0 0 
0 0 0 0 0 0 0 0 0 
0 0 0 0 0 0 0 0 0 
0 0 0 0 0 0 0 0 0 
0 0 0 0 0 0 0 0 0 
0 0 0 0 0 0 0 0 0 
0 0 0 0 0 0 0 0 0 
0 0 0 0 0 0 0 0 0 
0 0 0 0 0 0 0 0 0 
0 0 0 0 0 0 0 0 0 
0 0 0 0 0 0 0 0 0 
0 0 0 0 0 0 0 0 0 
0 0 0 0 0 0 0 0 0 
0 0 0 0 0 0 0 0 0 
0 0 0 0 0 0 0 0 0 
0 0 0 0 0 0 0 0 0 
0 0 0 0 0 0 0 0 0 
0 0 0 0 0 0 0 0 0 
0 0 0 0 0 0 0 0 0 
0 0 0 0 0 0 0 0 0 
0 0 0 0 0 0 0 0 0 
0 0 0 0 0 0 0 0 0 
0 0 0 0 0 0 0 0 0 
0 0 0 0 0 0 0 0 0 
0 0 0 0 0 0 0 0 0 
0 0 0 0 0 0 0 0 0 
0 0 0 0 0 0 0 0 0 
0 0 0 0 0 0 0 0 0 
0 0 0 0 0 0 0 0 0 
0 0 0 0 0 0 0 0 0 
0 0 0 0 0 0 0 0 0 
0 0 0 0 0 0 0 0 0 
0 0 0 0 0 0 0 0 0 
0 0 0 0 0 0 0 0 0 
0 0 0 0 0 0 0 0 0 
0 0 0 0 0 0 0 0 0 
0 0 0 0 0 0 0 0 0 
0 0 0 0 0 0 0 0 0 
0 0 0 0 0 0 0 0 0 
0 0 0 0 0 0 0 0 0 
0 0 0 0 0 0 0 0 0 
0 0 0 0 0 0 0 0 0 
0 0 0 0 0 0 0 0 0 
0 0 0 0 0 0 0 0 0 
0 0 0 0 0 0 0 0 0 
0 0 0 0 0 0 0 0 0 
0 0 0 0 0 0 0 0 0 
0 0 0 0 0 0 0 0 0 
0 0 0 0 0 0 0 0 0 
0 0 0 0 0 0 0 0 0 
0 0 0 0 0 0 0 0 0 
0 0 0 0 0 0 0 0 0 
0 0 0 0 0 0 0 0 0 
0 0 0 0 0 0 0 0 0 
0 0 0 0 0 0 0 0 0 
0 0 0 0 0 0 0 0 0 
0 0 0 0 0 0 0 0 0 
0 0 0 0 0 0 0 0 0 
0 0 0 0 0 0 0 0 0 
0 0 0 0 0 0 0 0 0 
0 0 0 0 0 0 0 0 0 
0 0 0 0 0 0 0 0 0 
0 0 0 0 0 0 0 0 0 
0 0 0 0 0 0 0 0 0 
0 0 0 0 0 0 0 0 0 
0 0 0 0 0 0 0 0 0 
0 0 0 0 0 0 0 0 0 
0 0 0 0 0 0 0 0 0 
0 0 0 0 0 0 0 0 0 
0 0 0 0 0 0 0 0 0 
0 0 0 0 0 0 0 0 0 
0 0 0 0 0 0 0 0 0 
0 0 0 0 0 0 0 0 0 
0 0 0 0 0 0 0 0 0 
0 0 0 0 0 0 0 0 0 
0 0 0 0 0 0 0 0 0 
0 0 0 0 0 0 0 0 0 
0 0 0 0 0 0 0 0 0 
0 0 0 0 0 0 0 0 0 
0 0 0 0 0 0 0 0 0 
0 0 0 0 0 0 0 0 0 
0 0 0 0 0 0 0 0 0 
0 0 0 0 0 0 0 0 0 
0 0 0 0 0 0 0 0 0 
0 0 0 0 0 0 0 0 0 
0 0 0 0 0 0 0 0 0 
0 0 0 0 0 0 0 0 0 
0 0 0 0 0 0 0 0 0 
0 0 0 0 0 0 0 0 0 
0 0 0 0 0 0 0 0 0 
0 0 0 0 0 0 0 0 0 
0 0 0 0 0 0 0 0 0 
0 0 0 0 0 0 0 0 0 
0 0 0 0 0 0 0 0 0 
0 0 0 0 0 0 0 0 0 
0 0 0 0 0 0 0 1 0 
0 0 0 0 0 0 0 0 0 
0 0 0 0 0 0 0 0 0 
0 0 0 0 0 0 0 0 0 
0 0 0 0 0 0 0 0 0 
0 0 0 0 0 0 0 0 0 
0 0 0 0 0 0 0 0 0 
0 0 0 0 0 0 0 0 0 
0 0 0 0 0 0 0 0 0 
0 0 0 0 0 0 0 0 0 
0 0 0 0 0 0 0 0 0 
0 0 0 0 0 0 0 0 0 
0 0 0 0 0 0 0 0 0 
0 0 0 0 0 0 0 0 0 
0 0 0 0 0 0 0 0 0 
0 0 0 0 0 0 0 0 0 
0 0 0 0 0 0 0 0 0 
0 0 0 0 0 0 0 0 0 
0 0 0 0 0 0 0 0 0 
0 0 0 0 0 0 0 0 0 
0 0 0 0 0 0 0 0 0 
0 0 0 0 0 0 0 0 0 
0 0 0 0 0 0 0 0 0 
0 0 0 0 0 0 0 0 0 
0 0 0 0 0 0 0 0 0 
0 0 0 0 0 0 0 0 0 
0 0 0 0 0 0 0 0 0 
0 0 0 0 0 0 0 0 0 
0 0 0 0 0 0 0 0 0 
0 0 0 0 0 0 0 0 0 
0 0 0 0 0 0 0 0 0 
0 0 0 0 0 0 0 0 0 
0 0 0 0 0 0 0 0 0 
0 0 0 0 0 0 0 0 0 
0 0 0 0 0 0 0 0 0 
0 0 0 0 0 0 0 0 0 
0 0 0 0 0 0 0 0 0 
0 0 0 0 0 0 0 0 0 
0 0 0 0 0 0 0 0 0 
0 0 0 0 0 0 0 0 0 
0 0 0 0 0 0 0 0 0 
0 0 0 0 0 0 0 0 0 
0 0 0 0 0 0 0 0 0 
0 0 0 0 0 0 0 0 0 
0 0 0 0 0 0 0 0 0 
0 0 0 0 0 0 0 0 0 
0 0 0 0 0 0 0 0 0 
0 0 0 0 0 0 0 0 0 
0 0 0 0 0 0 0 0 0 
0 0 0 0 0 0 0 0 0 
0 0 0 0 0 0 0 0 0 
0 0 0 0 0 0 0 0 0 
0 0 0 0 0 0 0 0 0 
0 0 0 0 0 0 0 0 0 
0 0 0 0 0 0 0 0 0 
0 0 0 0 0 0 0 0 0 
0 0 0 0 0 0 0 0 0 
0 0 0 0 0 0 0 0 0 
0 0 0 0 0 0 0 0 0 
0 0 0 0 0 0 0 0 0 
0 0 0 0 0 0 0 0 0 
0 0 0 0 0 0 0 0 0 
0 0 0 0 0 0 0 0 0 
0 0 0 0 0 0 0 0 0 
0 0 0 0 0 0 0 0 0 
0 0 0 0 0 0 0 0 0 
0 0 0 0 0 0 0 0 0 
0 0 0 0 0 0 0 0 0 
0 0 0 0 0 0 0 0 0 
0 0 0 0 0 0 0 0 0 
0 0 0 0 0 0 0 0 0 
0 0 0 0 0 0 0 0 0 
0 0 0 0 0 0 0 0 0 
0 0 0 0 0 0 0 0 0 
0 0 0 0 0 0 0 0 0 
0 -1 0 0 0 0 0 0 0 
0 0 0 0 0 0 0 0 0 
0 0 0 0 0 0 0 0 0 
0 0 0 0 0 0 0 0 0 
0 0 0 0 0 0 0 0 0 
0 0 0 0 0 0 0 0 0 
0 0 0 0 0 0 0 0 0 
0 0 0 0 0 0 0 0 0 
0 0 0 0 0 0 0 0 0 
0 0 0 0 0 0 0 0 0 
0 0 0 0 0 0 0 0 0 
0 0 0 0 0 0 0 0 0 
0 0 0 0 0 0 0 0 0 
0 0 0 0 0 0 0 0 0 
0 0 0 0 0 0 0 0 0 
0 0 0 0 0 0 0 0 0 
0 0 0 0 0 0 0 0 0 
0 0 0 0 0 0 0 0 0 
0 0 0 0 0 0 0 0 0 
0 0 0 0 0 0 0 0 0 
0 0 0 0 0 0 0 0 0 
0 0 0 0 0 0 0 0 0 
0 0 0 0 0 0 0 0 0 
0 0 0 0 0 0 0 0 0 
0 0 0 0 0 0 0 0 0 
0 0 0 0 0 0 0 0 0 
0 0 0 0 0 0 0 0 0 
0 0 0 0 0 0 0 0 0 
0 0 0 0 0 0 0 0 0 
0 0 0 0 0 0 0 0 0 
0 0 0 0 0 0 0 0 0 
0 0 0 0 0 0 0 0 0 
0 0 0 0 0 0 0 0 0 
0 0 0 0 0 0 0 0 0 
0 0 0 0 0 0 0 0 0 
0 0 0 0 0 0 0 0 0 
0 0 0 0 0 0 0 0 0 
0 0 0 0 0 0 0 0 0 
0 0 0 0 0 0 0 0 0 
0 0 0 0 0 0 0 0 0 
0 0 0 0 0 0 0 0 0 
0 0 0 0 0 0 0 0 0 
0 0 0 0 0 0 0 0 0 
0 0 0 0 0 0 0 0 0 
0 0 0 0 0 0 0 0 0 
0 0 0 0 0 0 0 0 0 
0 0 0 0 0 0 0 0 0 
0 0 0 0 0 0 0 0 0 
0 0 0 0 0 0 0 0 0 
0 0 0 0 0 0 0 0 0 
0 0 0 0 0 0 0 0 0 
0 0 0 0 0 0 0 0 0 
0 0 0 0 0 0 0 0 0 
0 0 0 0 0 0 0 0 0 
0 0 0 0 0 0 0 0 0 
0 0 0 0 0 0 0 0 0 
0 0 0 0 0 0 0 0 0 
0 0 0 0 0 0 0 0 0 
0 0 0 0 0 0 0 0 0 
0 0 0 0 0 0 0 0 0 
0 0 0 0 0 0 0 0 0 
0 0 0 0 0 0 0 0 0 
0 0 0 0 0 0 0 0 0 
0 0 0 0 0 0 0 0 0 
0 0 0 0 0 0 0 0 0 
0 0 0 0 0 0 0 0 0 
0 0 0 0 0 0 0 0 0 
0 0 0 0 0 0 0 0 0 
0 0 0 0 0 0 0 0 0 
0 0 0 0 0 0 0 0 0 
0 0 0 0 0 0 0 0 0 
0 0 0 0 0 0 0 0 0 
0 0 0 0 0 0 0 0 0 
0 0 0 0 0 0 0 0 0 
0 0 0 0 0 0 0 0 0 
0 0 0 0 0 0 0 0 0 
0 0 0 0 0 0 0 0 0 
0 0 0 
v 3 1000 double
7.7345171721 5.5831832814 -14.226837594 -10.069179547 -7.5197093876 -3.3881208413 2.6854258351 2.0594238174 -11.82391463 
-22.443153675 -8.778529674 -22.11827712 18.448195729 -19.869696632 31.138951391 7.3386100468 -11.762312944 7.6669281907 
-5.8821031084 18.277870153 -12.190703858 -4.4175490031 -21.990190549 0.96867668148 14.506878328 20.304458369 15.331856109 
0.24067455566 5.2347469331 -16.60775237 3.3947409061 17.383671621 14.988900542 1.9076291302 17.127431205 10.720073892 
-1.0646220243 -0.8401548345 -6.6239945306 -3.0069691964 12.458380449 -16.896042681 19.816378955 -8.7923089431 9.7658926007 
-24.810270261 0.89016328974 4.7959286066 1.5335986124 -6.9172285035 -7.4651121095 0.34001437786 12.735664346 13.959327064 
3.9112305407 14.647444774 -7.7304386676 -2.5964514009 1.3262874565 -10.451069453 -4.9477253072 -17.127112692 23.231424108 
-11.49073641 23.141178319 -6.9142664368 -22.671740941 -1.4144848677 2.387449238 -7.9729312681 -0.24980809216 6.0989658033 
-9.9667068365 3.1609874057 -19.716320677 -2.0462465724 -11.170521433 2.4795594022 -0.33343619524 -3.9249947865 8.8973094342 
-12.286618998 -24.642345329 -35.487110538 19.588134136 3.6181584847 -6.5450298035 -22.177676904 34.706847377 -3.392196482 
9.0130573036 -4.133515082 0.97038012541 5.6612759659 -5.281446315 -12.594180944 -30.703922076 -39.295672615 3.9488821692 
10.796345395 -2.3936616998 14.120429942 17.866490162 6.2435912102 3.0646908631 0 0 0 
-6.840232748 -0.64576812359 3.2933486581 -4.9770516963 -13.074560429 7.8137055329 -7.3469876232 6.2551632635 1.9091302203 
10.062852339 -4.5842973752 10.265292242 7.6743557169 -12.371878519 0.89074483214 0.49216094649 -16.284119941 4.7220422854 
9.7015172676 -29.110532196 19.297918614 -15.013596875 15.307576937 3.5803828249 -7.1815273645 -6.4079442031 17.339038267 
11.65907691 2.3311170171 -18.216938816 -21.286326441 11.318683205 -5.9247270385 -14.336390848 -21.157405899 2.4884472956 
4.6125972116 -4.6389309647 7.7643968347 -7.1072992404 -12.065050175 -9.41300621 4.9844772646 3.9840435667 3.7437112385 
11.22981592 -1.0441361112 1.2816255702 -12.379725789 10.155121802 -0.85148637414 1.4830481463 -3.787647326 -16.863608465 
-2.3618479649 14.963753266 -9.2648821171 -7.5111615052 -4.576929915 -9.4676195942 3.9508308527 1.0212200818 11.4867092 
6.9338569775 12.378903656 -2.4723166118 -14.27927281 -24.258595056 7.8634466399 25.784444267 -10.363877828 -9.1335132861 
2.655102432 5.0811071572 -11.886578212 -12.390493139 16.218971791 9.8778060236 16.055276117 25.192950332 12.192276827 
-14.108930537 8.138048498 -9.2049048134 -0.81226046195 -9.0291644697 -15.440596567 -2.1046450479 -5.4833433463 12.516558352 
-7.5545281228 -13.755695724 -3.6458574325 4.2398146352 25.782511626 22.340771721 -12.894529732 -6.9736120674 -8.8528383235 
-14.683191917 14.189300312 18.948395462 13.343340061 -2.8080133847 12.062495995 -20.232753907 7.6148866956 4.4698295455 
-13.780707823 0.43088116828 11.340182172 18.040951113 -8.7720657191 -8.5155542169 -0.86577007252 13.664579671 -0.63515048108 
-3.6742132764 5.6620569529 8.46147781 -0.081623479347 17.633245256 7.8642024933 -26.352122374 -16.347941412 4.4122645166 
7.7118695005 1.0479776961 8.8334689296 -13.394389675 -0.51524785124 -33.878377515 25.022528561 4.9957452471 31.722031456 
10.803393988 -4.0599257809 16.332051207 -4.9349173585 3.7350035887 1.3025131722 0.33314926379 -0.5741626577 -0.34042328615 
0.60187264729 11.613813203 21.469894682 12.645388649 -5.1173895644 -25.73603286 10.164411092 -3.4777759535 7.6759185424 
-13.06025245 5.2075167898 9.9885650884 -2.6181873831 1.2107962387 -10.573558907 2.324028661 -5.3232425502 1.4115835308 
0 0 0 9.7643789866 -18.071872713 -4.4746986953 1.7667350716 2.4936407271 -18.309927276 
0.095552662752 -0.36676329673 -0.36380808835 23.541689612 12.596117717 -15.48360095 16.407308574 -10.721806918 7.9763234812 
-16.407308574 10.721806918 -7.9763234812 1.0615527822 -18.698149472 -6.0033096972 17.557340112 12.137237977 -29.276503871 
-21.678907169 -2.0476720444 27.518597174 -3.5642571984 5.7578582326 20.994240965 -2.1129568543 -26.71209553 -8.6231433593 
8.7778461236 16.601172915 -13.180314755 8.46671482 7.1122223699 4.4200092715 0.78792644475 0.91591976764 2.2590975792 
-15.664263848 -2.108810375 4.5341682106 16.93781569 -7.6221877462 5.0933545134 20.839558611 0.39082285389 -6.9204816683 
6.0871079168 -9.4420820081 9.2520911013 -0.040505660984 3.1510865393 9.2870445841 -18.201975008 -10.85473626 -6.3448312064 
-10.32576388 2.0780710732 -23.571748102 -1.8618482608 -6.3560297515 -16.406144364 9.753951907 -15.30318421 5.1199629147 
-2.1923434452 -10.74728925 25.771327765 29.223725167 6.9493021809 4.3247364066 7.6364739078 3.9251780715 -7.6934074896 
1.8230029776 15.73642151 4.3200327227 -15.286533389 -9.3269268454 -12.583604126 1.5083074814 -17.553907747 -23.941297838 
11.544074351 -15.045492686 -6.2476892154 6.6108673431 18.556316321 12.386718991 -0.44217444785 12.893340831 15.633999743 
10.117949373 -17.17541209 -9.7514027931 6.1180286857 -2.8798535336 9.4018353976 18.236823148 17.86807445 2.3555064482 
-2.0900022511 -2.8218715956 1.5931845848 3.6716201739 -9.2379670498 2.1033202025 22.556095007 2.4166789798 -24.573945993 
7.2456082845 13.165437367 3.3222204367 -23.11121986 13.351906979 -3.6383395271 5.8033017051 -13.890197383 1.6450392261 
-14.716570784 -4.0917672644 9.0916364135 -5.1307574139 -9.1969616663 12.124815136 14.430890133 9.7605825741 4.9155685571 
17.405445131 19.120625809 11.016484873 4.4112097172 19.038941858 0.69214663517 -19.991669972 -12.609678464 0.41627712816 
21.408768674 1.7950724229 1.3133258913 -28.715309702 -19.271393017 -2.3584804698 4.7022568753 -7.1125819808 23.122440601 
-5.8225843739 -2.7425022654 2.262668804 -6.5279048144 13.106761137 -0.95723006386 18.375022782 -24.329041103 6.2293464173 
-13.753889691 -21.78638195 5.8696993031 1.423577448 16.929349288 5.2627773514 17.518771362 16.972116749 26.914962275 
-4.2072372499 4.7524186327 -0.84760911865 -12.21356844 -9.559539888 -13.763851822 10.898014301 -5.0053290086 0.77699991585 
11.054207763 6.1856033859 -10.347440811 1.8345790783 0.30718213595 -1.3473129631 18.812150706 -20.412783743 1.9042486399 
2.04920168 -1.3258927275 0.34306820321 -9.3402319426 -13.231360326 9.7272222669 9.5048691508 -10.082834346 29.664332538 
3.3393522482 -8.1892562842 1.0659288242 1.7969263732 1.7318920743 -0.38560342226 10.656498076 16.932803176 10.942019523 
6.9535677591 7.6630014579 11.238433885 -40.008559052 9.8240441135 -9.3016868382 -8.6050294788 -12.46746914 -15.114041324 
-13.930034572 -7.6830003449 -25.355322299 3.5716455751 20.957485411 -25.567572417 11.949047482 -4.2419948444 -6.6483737102 
-0.80947954334 22.874252491 -7.8996079879 3.7931893499 8.8777173012 10.74418653 -8.3194329169 2.9011152135 -8.3685553149 
2.2275926305 -8.9710967616 -20.246904492 -4.3014372143 -17.259319116 -10.218873569 1.184259106 9.2727166349 2.2311237406 
0.36847149461 17.942979903 6.0307450424 -17.733623113 5.4278652726 -7.2936239055 1.9552397477 -4.4910193557 -9.7060422448 
-11.178786335 -11.483046316 1.5386572822 7.4720357325 18.892341759 -10.174060636 6.5709436151 15.124082348 -17.250424255 
10.422041196 11.982722959 -2.5531631388 -2.2487818524 -11.843788115 2.8283893347 18.406811833 -13.914546417 0.95613145094 
-12.514309724 -11.654738842 -10.458318251 -30.038140015 -33.087547875 -32.096341948 -28.227041434 -15.137300358 -4.044652747 