# vtk DataFile Version 4.2
Generated by LIGGGHTS
ASCII
DATASET POLYDATA
POINTS 1000 float
0.605445 0.125805 0.053939 2.12246 0.198511 0.479813 1.91165 0.924321 0.293477 
3.70032 0.873807 0.106238 3.81138 0.818792 0.263471 0.397865 1.57268 0.435546 
1.5645 1.58737 0.652851 3.14681 1.61531 0.127115 4.01877 1.56549 0.136205 
2.23956 2.20813 0.548959 3.14176 1.97366 0.370714 0.390406 2.64431 0.0491131 
3.30299 3.43759 0.0903028 4.91637 3.53621 0.598423 2.27174 4.35026 0.127375 
1.88954 4.75905 0.556064 3.72711 4.43596 0.621543 0.387573 0.229463 0.796308 
2.65877 0.401558 1.04575 4.31103 0.723957 1.23754 1.55287 1.25934 0.972296 
4.84537 1.37241 0.937671 2.14009 2.00095 1.22679 2.46426 2.66181 1.26969 
2.79185 3.0527 0.788276 3.2838 2.58262 1.06272 3.87684 2.68917 1.26546 
4.62517 2.91819 1.06083 3.36285 3.45706 0.893605 4.61253 3.21892 1.16443 
0.559169 3.75944 0.947324 2.82638 4.21421 1.04422 2.06058 4.50273 1.27578 
2.24293 4.67109 1.31849 3.63071 4.97736 1.20144 1.22569 0.198821 1.58231 
3.54935 0.367931 1.42384 4.297 0.465767 1.90883 3.80979 1.12798 1.9611 
2.49983 1.81327 1.4711 2.90032 1.26904 1.66114 4.70478 2.1704 1.71038 
4.7862 2.76673 1.3794 2.32785 3.409 1.34794 3.17666 3.6188 1.44798 
4.17476 3.82335 1.66292 3.79498 3.94398 1.75713 1.48855 4.865 1.98455 
3.01048 4.98364 1.34405 2.21414 1.0483 2.3071 0.103107 1.40795 2.56402 
2.83145 1.31298 2.62441 4.69602 1.2559 2.05889 0.342618 2.38843 2.25804 
1.99285 2.27569 2.51602 3.49671 2.1419 2.45431 2.68864 2.93961 2.01482 
4.17335 2.51762 2.36478 4.27966 3.53221 2.60127 4.44984 3.70638 2.1335 
2.97988 3.97507 2.3977 3.8284 4.18421 2.39017 4.45078 4.18359 2.62753 
4.25389 0.611705 3.0779 4.59124 0.129863 2.69905 4.6189 0.328566 3.24056 
2.14127 1.06796 3.2984 4.97707 1.22189 3.04141 1.85696 1.63982 2.74396 
2.02544 1.84891 3.32546 2.64854 1.79827 3.27701 4.51493 1.29228 2.99732 
0.258654 2.40179 2.95514 0.975599 2.4745 2.74926 2.82682 2.37452 2.83339 
4.10094 1.88102 2.92017 0.93544 2.94556 3.22262 1.7389 3.39751 2.79282 
2.37528 3.63636 2.86473 2.16701 3.58518 2.66536 2.65454 3.71523 3.08605 
4.70293 3.56291 3.16099 1.05224 3.96196 2.97932 2.18392 4.89887 3.04074 
1.32133 0.198251 3.53986 0.570216 0.806299 3.91147 2.72099 0.892393 3.73187 
3.73652 0.816412 3.49885 0.245483 1.82833 3.70148 1.17779 2.3426 3.78749 
3.41479 2.33497 3.78036 0.209211 3.62379 3.87922 3.35767 3.39352 3.7805 
1.80963 3.87425 3.65726 0.435121 4.70343 3.83974 3.72107 4.55128 3.75302 
3.2849 4.83631 3.54098 0.0315849 0.563394 4.30471 2.45272 0.0785323 4.39062 
2.31337 0.0135689 4.61407 4.98265 0.543647 4.32462 0.912031 0.714633 4.62898 
0.306834 1.26606 4.31134 0.449345 2.19409 4.42561 1.46817 2.69001 4.62557 
2.72353 3.33375 4.04707 3.90236 3.24361 4.16873 0.288825 4.29615 4.23087 
0.0377714 4.14893 4.47461 3.37352 3.75905 4.56985 4.83526 3.99681 4.28168 
1.50767 4.63205 4.228 2.82668 4.48929 4.42798 0.131757 0.0243779 4.75011 
0.477101 1.01092 5.0997 1.2029 0.906095 4.7564 2.07205 0.865647 5.31757 
0.312617 1.29475 4.80929 1.21076 1.70836 5.16492 4.77107 1.47193 5.13306 
0.693682 4.55257 4.86892 0.911325 4.89876 5.03364 1.59132 4.82691 5.02054 
1.79492 4.52336 4.73854 2.40075 4.66723 5.23437 2.84277 4.87236 4.94976 
4.13795 4.72459 5.09832 0.0567807 0.0970876 5.67894 1.50939 0.565399 5.88413 
3.2084 0.245155 5.55662 0.739546 0.74331 5.96179 0.0307593 1.85085 5.54593 
4.11336 1.56013 5.96847 4.69164 1.71183 5.62352 0.164962 2.31643 5.79253 
1.4507 1.95979 5.40437 4.90429 2.11445 5.5193 2.10619 3.36757 5.82719 
2.64072 3.40247 5.85914 4.62798 3.24013 5.67088 0.261244 4.28187 5.36359 
1.95771 4.01088 5.43846 4.52665 4.04458 5.73171 2.12618 4.92684 5.98606 
1.15218 0.32474 6.06494 3.08891 0.362177 6.3276 1.43726 0.733254 6.2741 
1.19271 1.63604 6.19993 2.58604 1.58462 6.00722 2.94929 1.85225 6.40216 
0.146696 2.86562 6.38936 3.30794 4.36575 6.28082 0.283239 4.96088 6.10264 
1.0956 4.43945 6.23928 4.83644 0.597899 7.02228 0.0771153 1.0367 7.23752 
0.7202 0.859107 6.86979 3.47092 1.10744 6.83862 0.109677 1.86745 7.17351 
1.39906 1.34055 6.98171 4.82908 1.30965 6.75578 2.3903 2.1417 7.21299 
1.90999 2.38485 7.26123 2.56498 2.46092 6.71066 3.42632 2.24517 6.91722 
2.03518 2.91516 7.27565 3.54346 2.77855 7.31392 2.1696 3.52819 6.73477 
3.0449 3.45046 6.87113 4.67682 3.58277 7.07761 2.54309 4.24933 6.8461 
3.32136 3.84014 7.31544 4.76245 4.18134 7.16999 1.21075 4.81088 7.23179 
1.51467 0.167949 7.4991 3.6936 0.185765 7.73891 1.16372 1.04314 7.94246 
1.95303 0.666724 7.43458 2.9062 0.962771 7.59837 3.01294 1.74918 7.50085 
4.09812 1.7723 7.64971 1.04025 2.20386 7.8722 1.67495 2.36288 7.44021 
2.59116 2.0876 7.36225 4.51784 2.23685 7.53395 0.040541 2.74836 7.71091 
2.06733 2.62225 7.87147 2.63437 3.44395 7.53736 3.99223 3.63238 7.44984 
0.514391 4.912 7.70493 2.89438 4.9915 7.77381 3.95218 4.86934 7.89537 
0.503954 0.0904781 8.09117 2.38829 0.195631 8.14428 1.02216 0.714477 8.3287 
3.3556 1.83885 8.20678 3.8163 1.72802 8.63793 4.19113 1.60914 8.36284 
1.21952 2.06108 8.56099 1.12349 2.39947 8.2432 1.20924 2.51723 8.0056 
4.04582 3.0368 8.62225 2.7765 3.44564 8.23845 0.08594 3.78703 8.22264 
3.57657 4.20713 8.66503 2.12525 4.62558 8.64203 2.78536 4.66738 8.46006 
3.98149 4.61831 8.1813 0.0850209 0.380525 9.14392 0.967266 0.157049 9.01616 
2.6889 0.417709 9.10175 4.59413 0.589962 8.71684 0.0614664 1.11366 9.23194 
0.533118 1.46618 8.7704 2.67127 1.30786 8.7879 3.53647 2.16027 8.95322 
0.854636 3.0874 8.75847 1.21042 2.77647 9.02362 3.57824 3.66643 9.30286 
4.42532 3.21847 8.94127 3.1571 4.3887 8.71623 2.55313 0.876211 9.46024 
0.20351 1.44856 9.45458 1.03142 1.6177 9.92428 2.95471 1.82978 9.56124 
3.88068 1.39237 9.57078 0.426633 2.16367 9.7479 1.11857 2.83702 9.46272 
4.81482 2.73299 9.55421 0.0122066 3.73378 9.98199 1.99094 3.32188 9.54535 
4.55816 3.67506 9.63205 1.97431 4.07484 9.88667 4.70426 3.94784 9.79969 
2.71219 4.66308 9.50103 4.42188 4.43436 9.41268 2.18407 5.02918 0.174407 
4.09524 5.37986 0.329152 0.799803 6.00505 0.652648 3.06243 6.00813 0.183033 
3.74529 6.12484 0.19398 4.25945 6.01161 0.0252245 4.84515 5.7907 0.12146 
1.4433 6.43771 0.086668 2.38121 7.33828 0.577307 4.77852 7.56156 0.603896 
1.98362 8.69639 0.307632 4.3812 8.34142 0.66219 0.264134 9.57047 0.514511 
2.74144 9.6555 0.375157 4.09852 9.60198 0.232576 4.75025 9.6262 0.549224 
4.62776 9.6462 0.0937484 0.737117 5.32023 0.75841 2.21783 5.09266 1.32279 
4.7709 5.24824 1.32044 2.69427 5.64263 0.898624 1.35046 6.84616 0.749101 
1.61936 6.4851 1.26137 3.95283 6.39996 0.856964 3.26482 7.23322 0.895741 
4.10771 6.97178 0.867616 1.16436 7.63456 1.00321 1.11655 8.05091 1.03601 
4.69458 8.31013 1.20186 1.48861 9.08735 1.1345 3.25924 8.83421 0.701429 
4.38678 9.10402 0.975522 4.8799 9.11999 0.913475 3.27132 9.79737 0.782451 
1.76378 5.28969 1.94723 0.541585 5.94262 1.43157 0.0418931 6.02887 1.96073 
1.93137 6.08111 1.86605 2.96479 5.723 1.54185 3.86713 6.117 1.57376 
0.725644 6.42561 1.77973 2.17078 6.32784 1.34465 3.72386 6.48659 1.61452 
0.24885 7.29685 1.52793 0.312316 8.07533 1.69447 2.01651 8.0215 1.48292 
4.01028 7.56943 1.82101 2.57602 8.72096 1.85096 0.0415497 8.87392 1.96488 
3.68144 9.13163 1.98795 2.35411 9.80766 1.57573 2.64485 9.98722 1.70845 
2.09507 5.889 2.08868 0.527747 6.76973 2.26649 1.95053 6.41583 2.46173 
3.30456 6.51401 2.6196 3.92388 6.51065 2.56312 4.71444 6.52409 2.42877 
0.537898 8.5382 2.57005 1.86781 8.39551 2.00843 2.04016 8.72085 2.55177 
3.03818 8.54777 2.54126 3.69944 8.27319 2.28165 4.0298 8.46148 2.59917 
1.45864 8.7912 2.27477 2.74584 9.04751 2.18631 3.51116 8.91631 2.63152 
2.67426 9.64404 2.17638 3.79235 5.57571 2.83817 4.71329 6.17908 3.17104 
1.4512 6.7277 2.75085 2.60154 6.60107 3.09313 0.534693 7.08745 2.74675 
1.51947 7.18424 2.99638 2.07104 6.96958 2.87795 3.23497 7.33551 2.84167 
2.16715 8.19697 2.78716 0.824967 8.76089 2.71089 1.60836 9.2113 3.33297 
2.15133 8.84972 3.10036 2.50868 8.85672 2.728 4.34938 9.11139 2.79974 
1.30501 9.9698 3.09706 3.58928 9.4903 3.16502 0.945941 6.14388 3.85809 
1.74424 5.65664 3.49002 3.81613 5.77169 3.76699 4.00728 6.61166 3.39968 
4.56636 6.54234 3.49041 4.44046 6.96458 3.85859 2.74494 7.75846 3.78493 
3.70682 7.66987 3.7988 2.49033 8.56894 3.80197 4.30735 8.26131 3.40952 
0.632694 8.81082 3.46319 3.20676 9.02098 3.68293 3.7496 9.74444 3.86058 
3.20291 9.79235 3.46422 2.68553 6.21669 4.47832 4.38778 5.63905 4.07354 
0.574331 6.50575 4.37408 4.05927 6.35419 4.20983 2.31884 7.41299 4.64056 
3.37889 7.38889 4.24255 0.759126 8.01157 4.07997 1.38882 8.00724 4.47124 
1.48314 7.73993 4.05441 3.83053 7.84006 4.46605 3.19109 8.54418 4.10551 
4.41415 8.61089 4.57742 1.30712 9.23014 4.55878 2.39362 9.15365 4.41315 
1.91515 9.13838 4.20534 4.71813 9.49643 4.06979 0.116411 5.04637 4.91477 
4.65322 5.40385 4.72242 1.12418 5.78762 4.69902 0.671925 5.95159 4.81435 
2.06735 6.2944 4.94862 0.0307699 7.42919 4.81924 0.663771 6.92847 5.2275 
3.61711 7.01859 4.81587 0.484554 7.50319 5.03111 0.118284 7.86198 5.28617 
2.1847 7.60021 5.25271 2.99097 7.77208 4.77411 3.93926 7.63977 4.7689 
1.31722 8.21715 4.9067 2.24699 8.5738 5.13095 3.58155 8.40561 5.19304 
1.45981 9.12386 5.00727 3.04336 8.9913 4.67079 4.34854 9.33619 4.86209 
3.07229 9.89027 5.14083 1.97034 5.51082 5.43672 4.67148 6.06401 5.4108 
1.6756 6.85752 5.63416 4.08752 6.37992 5.95878 0.391054 7.72285 5.97518 
1.65526 7.68755 5.35352 3.45095 8.01369 5.36694 4.68443 8.06602 5.65297 
0.780933 8.66967 5.65949 2.78867 8.20613 5.86669 3.3098 8.63684 5.93216 
3.91727 8.54 5.93207 1.39196 9.71747 5.75993 4.74595 9.65194 5.91192 
0.0308281 5.28481 6.08189 1.85367 5.1432 6.0592 2.58579 5.70399 6.15848 
2.59578 5.94957 6.51489 0.418534 6.68768 6.33935 1.64265 6.39055 6.49893 
2.95341 6.42346 6.50614 0.285594 7.4651 6.20076 4.01492 6.99219 6.43753 
4.32751 7.87194 6.11226 1.40005 8.21398 6.64368 4.42927 8.65253 6.18739 
1.56768 9.11532 6.36938 0.520129 9.81832 6.47046 0.181834 9.37319 6.59258 
1.9037 9.70694 6.40719 3.11493 9.65047 6.27926 1.4437 6.29341 6.68744 
[...]
POINT_DATA 1000
FIELD FieldData 7
id 1 1000 int
9 520 509 507 528 2 519 531 506 
20 11 526 515 525 510 503 527 16 
530 502 14 18 518 522 501 505 10 
512 12 513 17 6 504 529 517 3 
5 8 13 523 514 524 15 1 21 
516 4 508 511 548 545 544 35 23 
541 554 7 38 543 537 547 532 550 
555 39 40 22 533 534 26 540 552 
536 551 31 557 42 30 24 41 556 
546 37 32 29 34 33 535 553 539 
538 549 25 36 27 28 542 570 560 
562 565 561 71 68 48 53 58 69 
563 44 558 67 54 65 55 63 51 
49 62 47 50 571 43 45 572 60 
559 564 566 59 64 57 61 46 567 
70 569 66 52 574 573 568 575 56 
95 588 578 84 80 583 99 92 91 
103 85 90 579 78 100 86 582 580 
585 589 96 81 584 592 101 83 591 
581 102 77 587 82 590 72 576 97 
74 88 93 79 87 76 73 586 75 
98 577 89 122 118 119 125 104 126 
107 111 593 110 117 108 106 115 601 
598 124 112 120 123 127 116 602 121 
597 605 114 105 594 604 606 607 599 
128 610 600 608 272 603 595 109 609 
596 113 521 143 612 628 151 618 619 
137 635 629 625 617 132 133 140 150 
633 142 129 145 630 152 634 620 134 
616 148 611 623 138 144 149 631 141 
626 130 632 131 613 627 622 135 614 
139 621 147 615 624 136 157 146 636 
168 175 642 658 653 159 160 641 646 
171 651 161 173 647 155 640 158 166 
156 643 648 659 650 657 639 163 644 
167 154 660 174 172 656 162 655 645 
164 165 637 652 169 153 649 638 654 
170 194 668 177 680 180 193 185 199 
682 686 182 676 677 661 673 192 669 
672 190 666 681 198 183 675 189 186 
178 181 184 679 684 678 670 662 195 
187 664 674 179 683 176 671 196 685 
665 191 188 197 667 663 709 702 207 
219 693 701 689 204 703 206 690 688 
205 213 706 220 707 203 215 218 210 
705 209 708 200 710 214 711 700 704 
212 201 202 208 694 211 697 695 698 
692 741 691 687 221 696 216 217 699 
240 743 224 712 720 714 222 243 225 
238 734 241 227 244 230 715 233 713 
742 235 242 721 737 736 729 229 237 
234 728 732 727 733 740 725 223 248 
726 735 247 228 739 717 738 719 730 
239 723 984 716 246 231 245 236 722 
724 226 718 731 773 257 252 750 251 
256 765 259 764 767 270 761 754 744 
260 271 752 266 749 771 758 250 756 
253 258 747 768 753 757 745 268 254 
769 760 762 255 770 273 249 262 261 
759 269 751 748 746 763 755 19 267 
772 766 265 263 777 413 790 778 296 
782 287 277 781 286 794 791 302 299 
788 297 300 283 275 784 775 780 290 
282 785 293 292 789 783 786 793 281 
776 276 288 301 787 795 298 792 779 
291 289 295 279 774 284 285 278 280 
274 294 306 818 324 319 325 808 318 
323 812 813 313 816 805 316 322 304 
811 321 803 320 806 308 307 797 305 
796 817 310 314 315 309 799 317 810 
809 303 798 802 814 804 311 815 807 
801 312 800 821 349 355 819 832 831 
340 332 343 348 345 835 335 820 334 
830 353 827 825 342 338 337 833 354 
333 346 823 94 331 350 351 336 837 
341 834 344 339 952 829 824 828 347 
822 826 329 330 836 326 327 352 328 
373 870 858 857 848 854 852 840 359 
869 845 864 377 853 371 850 376 379 
374 380 370 839 855 861 364 847 357 
856 867 868 378 849 365 851 838 375 
360 844 865 860 862 372 363 863 843 
362 366 356 866 368 842 841 846 361 
369 358 367 859 890 875 404 385 394 
401 897 392 390 872 884 391 873 880 
886 396 889 264 399 389 403 384 888 
871 892 383 877 395 878 887 405 387 
400 881 895 398 876 896 381 382 891 
386 898 874 388 393 882 397 883 885 
894 893 879 402 437 911 424 909 423 
432 419 431 927 922 923 899 410 914 
901 426 411 921 422 908 926 928 417 
904 903 912 414 902 918 412 915 415 
425 916 917 407 429 438 436 905 906 
433 427 900 430 406 919 408 418 924 
420 428 907 920 439 434 416 409 925 
421 910 435 913 459 939 942 450 945 
453 461 457 940 440 946 944 937 951 
449 442 948 443 447 930 947 941 444 
950 448 446 943 462 929 452 445 933 
460 938 451 936 458 932 455 441 949 
935 456 931 454 934 464 967 475 966 
468 970 960 953 470 465 471 962 976 
971 469 478 965 472 956 955 977 968 
958 477 964 954 473 474 466 973 467 
476 957 961 975 974 479 959 969 972 
963 463 494 995 481 497 998 489 493 
992 999 487 499 491 485 988 994 996 
997 989 985 483 495 986 979 486 480 
991 484 482 492 488 980 1000 500 498 
978 496 990 981 232 983 982 993 987 
490 
type 1 1000 int
1 2 2 2 2 1 2 2 2 
1 1 2 2 2 2 2 2 1 
2 2 1 1 2 2 2 2 1 
2 1 2 1 1 2 2 2 1 
1 1 1 2 2 2 1 1 1 
2 1 2 2 2 2 2 1 1 
2 2 1 1 2 2 2 2 2 
2 1 1 1 2 2 1 2 2 
2 2 1 2 1 1 1 1 2 
2 1 1 1 1 1 2 2 2 
2 2 1 1 1 1 2 2 2 
2 2 2 1 1 1 1 1 1 
2 1 2 1 1 1 1 1 1 
1 1 1 1 2 1 1 2 1 
2 2 2 1 1 1 1 1 2 
1 2 1 1 2 2 2 2 1 
1 2 2 1 1 2 1 1 1 
1 1 1 2 1 1 1 2 2 
2 2 1 1 2 2 1 1 2 
2 1 1 2 1 2 1 2 1 
1 1 1 1 1 1 1 2 1 
1 2 1 1 1 1 1 1 1 
1 1 2 1 1 1 1 1 2 
2 1 1 1 1 1 1 2 1 
2 2 1 1 2 2 2 2 2 
1 2 2 2 1 2 2 1 2 
2 1 2 1 2 2 1 2 2 
1 2 2 2 2 1 1 1 1 
2 1 1 1 2 1 2 2 1 
2 1 2 2 1 1 1 2 1 
2 1 2 1 2 2 2 1 2 
1 2 1 2 2 1 1 1 2 
1 1 2 2 2 1 1 2 2 
1 2 1 1 2 1 2 1 1 
1 2 2 2 2 2 2 1 2 
1 1 2 1 1 2 1 2 2 
1 1 2 2 1 1 2 2 2 
1 1 2 1 2 1 1 1 1 
2 2 1 2 2 2 2 1 2 
2 1 2 2 1 1 2 1 1 
1 1 1 2 2 2 2 2 1 
1 2 2 1 2 1 2 1 2 
2 1 1 1 2 2 2 2 1 
1 2 2 2 1 2 1 2 2 
1 1 2 1 2 1 1 1 1 
2 1 2 1 2 1 2 2 2 
1 1 1 1 2 1 2 2 2 
2 2 2 2 1 2 1 1 2 
1 2 1 2 2 2 1 1 1 
1 2 1 1 1 1 2 1 2 
2 1 1 2 2 2 2 1 1 
1 2 2 2 2 2 2 1 1 
2 2 1 1 2 2 2 2 2 
1 2 2 2 1 1 1 1 2 
2 1 2 2 2 1 1 2 1 
1 2 1 2 2 1 2 2 2 
1 1 2 1 2 2 2 1 2 
1 1 2 2 2 2 2 1 1 
2 2 2 1 2 1 1 1 1 
2 1 2 2 2 2 2 1 1 
2 2 1 1 2 1 2 2 1 
2 1 1 2 1 2 2 1 1 
2 1 1 1 1 2 2 2 1 
1 2 1 1 2 2 2 2 1 
2 1 1 1 2 2 1 2 2 
1 1 1 1 2 1 1 1 1 
1 1 1 2 1 1 1 2 1 
1 2 2 1 2 2 1 1 1 
2 1 2 1 2 1 1 2 1 
2 2 1 1 1 1 2 1 2 
2 1 2 2 2 2 1 2 2 
2 1 2 2 1 1 2 2 2 
1 1 1 1 1 2 1 2 1 
2 1 2 2 1 1 1 2 1 
1 1 2 1 1 1 1 1 2 
1 2 1 1 2 2 2 2 1 
2 2 1 1 2 1 1 1 1 
1 2 2 2 2 2 2 2 1 
2 2 2 1 2 1 2 1 1 
1 1 1 2 2 2 1 2 1 
2 2 2 1 2 1 2 2 1 
1 2 2 2 2 1 1 2 2 
1 1 1 2 1 2 2 2 1 
1 1 1 2 2 2 1 1 1 
1 2 1 1 2 2 1 2 2 
2 1 2 1 1 1 1 1 2 
2 2 1 2 1 2 2 1 1 
1 2 2 1 2 2 1 1 2 
1 2 2 1 1 2 1 2 2 
2 2 2 1 1 2 1 2 1 
1 1 1 2 2 2 2 1 2 
2 1 1 2 1 2 2 2 1 
2 2 2 1 2 2 1 2 1 
1 2 2 1 1 1 1 2 2 
1 1 2 1 1 2 1 1 2 
1 1 2 2 1 1 1 1 2 
1 2 1 2 1 2 2 1 2 
1 1 1 2 1 2 2 2 2 
1 1 2 1 1 2 2 2 1 
2 1 1 2 1 2 1 1 2 
1 2 1 2 1 2 1 1 2 
2 1 2 1 2 1 2 1 2 
1 2 2 2 1 1 1 2 2 
2 1 1 2 1 2 2 2 2 
2 1 2 2 1 1 1 2 1 
1 2 2 2 2 1 2 2 2 
2 1 1 2 1 1 2 1 1 
2 2 1 1 1 1 2 2 2 
2 2 2 1 1 2 2 1 1 
2 1 1 1 1 2 2 1 1 
2 1 2 2 1 2 2 2 2 
1 
i 3 1000 int
0 0 0 0 0 0 0 0 0 
0 0 0 0 0 0 0 0 0 
0 0 0 0 0 0 0 0 0 
0 0 0 0 0 0 0 0 0 
0 0 0 0 0 0 0 0 0 
0 0 0 0 0 0 0 0 0 
0 0 0 0 0 0 0 0 0 
0 0 0 0 0 0 0 0 0 
0 0 0 0 0 0 0 0 0 
0 0 0 0 0 0 0 0 0 
0 0 0 0 0 0 0 0 0 
0 0 0 0 0 0 0 0 0 
0 0 0 0 0 0 0 0 0 
0 0 0 0 0 0 0 0 0 
0 0 0 0 0 0 0 0 0 
0 0 0 0 0 0 0 0 0 
0 0 0 0 0 0 0 0 0 
0 0 0 0 0 0 0 0 0 
0 0 0 0 0 0 0 0 0 
0 0 0 0 0 0 0 0 0 
0 0 0 0 0 0 0 0 0 
0 0 0 0 0 0 0 0 0 
0 0 0 0 0 0 0 0 0 
0 0 0 0 0 0 0 0 0 
0 0 0 0 0 0 0 0 0 
0 0 0 0 0 0 0 0 0 
0 0 0 0 0 0 0 0 0 
0 0 0 0 0 0 0 0 0 
0 0 0 0 0 0 0 0 0 
0 0 0 0 0 0 0 0 0 
0 0 0 0 0 0 0 0 0 
0 0 0 0 0 0 0 0 0 
0 0 0 0 0 0 0 0 0 
0 0 0 0 0 0 0 0 0 
0 0 0 0 0 0 0 0 0 
0 0 0 0 0 0 0 0 0 
0 0 0 0 0 0 0 0 0 
0 0 0 0 0 0 0 0 0 
0 0 0 0 0 0 0 0 0 
0 0 0 0 0 0 0 0 0 
0 0 0 0 0 0 0 0 0 
0 0 0 0 0 0 0 0 0 
0 0 0 0 0 0 0 0 0 
0 0 0 0 0 0 0 0 0 
0 0 0 0 0 0 0 0 0 
0 0 0 0 0 0 0 0 0 
0 0 0 0 0 0 0 0 0 
0 0 0 0 0 0 0 0 0 
0 0 0 0 0 0 0 0 0 
0 0 0 0 0 0 0 0 0 
0 0 0 0 0 0 0 0 0 
0 0 0 0 0 0 0 0 0 
0 0 0 0 0 0 0 0 0 
0 0 0 0 0 0 0 0 0 
0 0 0 0 0 0 0 0 0 
0 0 0 0 0 0 0 0 0 
0 0 0 0 0 0 0 0 0 
0 0 0 0 0 0 0 0 0 
0 0 0 0 0 0 0 0 0 
0 0 0 0 0 0 0 0 0 
0 0 0 0 0 0 0 0 0 
0 0 0 0 0 0 0 0 0 
0 0 0 0 0 0 0 0 0 
0 0 0 0 0 0 0 0 0 
0 0 0 0 0 0 0 0 0 
0 0 0 0 0 0 0 0 0 
0 0 0 0 0 0 0 0 0 
0 0 0 0 0 0 0 0 0 
0 0 0 0 0 0 0 0 0 
0 0 0 0 0 0 0 0 0 
0 0 0 0 0 0 0 0 0 
0 0 0 0 0 0 0 0 0 
0 0 0 0 0 0 0 0 0 
0 0 0 0 0 0 0 0 0 
0 0 0 0 0 0 0 0 0 
0 0 0 0 0 0 0 0 0 
0 0 0 1 0 -1 0 0 0 
0 0 0 0 0 0 0 0 0 
0 0 0 0 0 0 0 0 0 
0 0 0 0 0 0 0 0 0 
0 0 0 0 0 0 0 0 0 
0 0 0 0 0 0 0 0 0 
0 0 0 0 0 0 0 0 0 
0 0 0 0 0 0 0 0 0 
0 0 0 0 0 0 0 0 0 
0 0 0 0 0 0 0 0 0 
0 0 0 0 0 0 0 0 0 
0 0 0 0 0 0 0 0 0 
0 0 0 0 0 0 0 0 0 
0 0 0 0 0 0 0 0 0 
0 0 0 0 0 0 0 0 0 
0 0 0 0 0 0 0 0 0 
0 0 0 0 0 0 0 0 0 
0 0 0 0 0 0 0 0 0 
0 0 0 0 0 0 0 0 0 
0 0 0 0 0 0 0 0 0 
0 0 0 0 0 0 0 0 0 
0 0 0 0 0 0 0 0 0 
0 0 0 0 0 0 0 0 0 
0 0 0 0 0 0 0 0 0 
0 0 0 0 0 0 0 0 0 
0 0 0 0 0 0 0 0 0 
0 0 0 0 0 0 0 0 0 
0 0 0 0 0 0 0 0 0 
0 0 0 0 0 0 0 0 0 
0 0 0 0 0 0 0 0 0 
0 0 0 0 0 0 0 0 0 
0 0 0 0 0 0 0 0 0 
0 0 0 0 0 0 0 0 0 
0 0 0 0 0 0 0 0 0 
0 0 0 0 0 0 0 0 0 
0 0 0 0 0 0 0 0 0 
0 0 0 0 0 0 0 0 0 
0 0 0 0 0 0 0 0 0 
0 0 0 0 0 0 0 0 0 
0 0 0 0 0 0 0 0 0 
0 0 0 0 0 0 0 0 0 
0 0 0 0 0 0 0 0 0 
0 0 0 0 0 0 0 0 0 
0 0 0 0 0 0 0 0 0 
0 0 0 0 0 0 0 0 0 
0 0 0 0 0 0 0 0 0 
0 0 0 0 0 0 0 0 0 
0 0 0 0 0 0 0 0 0 
0 0 0 0 0 0 0 0 0 
0 0 0 0 0 0 0 0 0 
0 0 0 0 0 0 0 0 0 
0 0 0 0 0 0 0 0 0 
0 0 0 0 0 0 0 0 0 
0 0 0 0 0 0 0 0 0 
0 0 0 0 0 0 0 0 0 
0 0 0 0 0 0 0 0 0 
0 0 0 0 0 0 0 0 0 
0 0 0 0 0 0 0 0 0 
0 0 0 0 0 0 0 0 0 
0 0 0 0 0 0 0 0 0 
0 0 0 0 0 0 0 0 0 
0 0 0 0 0 0 0 0 0 
0 0 0 0 0 0 0 0 0 
0 0 0 0 0 0 0 0 0 
0 0 0 0 0 0 0 0 0 
0 0 0 0 0 0 0 0 0 
0 0 0 0 0 0 0 0 0 
0 0 0 0 0 0 0 0 0 
0 0 0 0 0 0 0 0 0 
0 0 0 0 0 0 0 0 0 
0 0 0 0 0 0 0 0 0 
0 0 0 0 0 0 0 0 0 
0 0 0 0 0 0 0 0 0 
0 0 0 0 0 0 0 0 0 
0 0 0 0 0 0 0 0 0 
0 0 0 0 0 0 0 0 0 
0 0 0 0 0 0 0 0 0 
0 0 0 0 0 0 0 0 0 
0 0 0 0 0 0 0 0 0 
0 0 0 0 0 0 0 0 0 
0 0 0 0 0 0 0 0 0 
0 0 0 0 0 0 0 0 0 
0 0 0 0 0 0 0 0 0 
0 0 0 0 0 0 0 0 0 
0 0 0 0 0 0 0 0 0 
0 0 0 0 0 0 0 0 0 
0 0 0 0 0 0 0 0 0 
0 0 0 0 0 0 0 0 0 
0 0 0 0 0 0 0 0 0 
0 0 0 0 0 0 0 0 0 
0 0 0 0 0 0 0 0 0 
0 0 0 0 0 0 0 0 0 
0 0 0 0 0 0 0 0 0 
0 0 0 0 0 0 0 0 0 
0 0 0 0 0 0 0 0 0 
0 0 0 0 0 0 0 0 0 
0 0 0 0 0 0 0 0 0 
0 0 0 0 0 0 0 0 0 
0 0 0 0 0 0 0 0 0 
0 0 0 0 0 0 0 0 0 
0 0 0 0 0 0 0 0 0 
0 0 0 0 0 0 0 0 0 
0 0 0 0 0 0 0 0 0 
0 0 0 0 0 0 0 0 0 
0 0 0 0 0 0 0 0 0 
0 0 0 0 0 0 0 1 0 
0 0 0 0 0 0 0 0 0 
0 0 0 0 0 0 0 0 0 
0 0 0 0 0 0 0 0 0 
0 0 0 0 0 0 0 0 0 
0 0 0 0 0 0 0 0 0 
0 0 0 0 0 0 0 0 0 
0 0 0 0 0 0 0 0 0 
0 0 0 0 0 0 0 0 0 
0 0 0 0 0 0 0 0 0 
0 0 0 0 0 0 0 0 0 
0 0 0 0 0 0 0 0 0 
0 0 0 0 0 0 0 0 0 
0 0 0 0 0 0 0 0 0 
0 0 0 0 0 0 0 0 0 
0 0 0 0 0 0 0 0 0 
0 0 0 0 0 0 0 0 0 
0 0 0 0 0 0 0 0 0 
0 0 0 0 0 0 0 0 0 
0 0 0 0 0 0 0 0 0 
0 0 0 0 0 0 0 0 0 
0 0 0 0 0 0 0 0 0 
0 0 0 0 0 0 0 0 0 
0 0 0 0 0 0 0 0 0 
0 0 0 0 0 0 0 0 0 
0 0 0 0 0 0 0 0 0 
0 0 0 0 0 0 0 0 0 
0 0 0 0 0 0 0 0 0 
0 0 0 0 0 0 0 0 0 
0 0 0 0 0 0 0 0 0 
0 0 0 0 0 0 0 0 0 
0 0 0 0 0 0 0 0 0 
0 0 0 0 0 0 0 0 0 
0 0 0 0 0 0 0 0 0 
0 0 0 0 0 0 0 0 0 
0 0 0 0 0 0 0 0 0 
0 0 0 0 0 0 0 0 0 
0 0 0 0 0 0 0 0 0 
0 0 0 0 0 0 0 0 0 
0 0 0 0 0 0 0 0 0 
0 0 0 0 0 0 0 0 0 
0 0 0 0 0 0 0 0 0 
0 0 0 0 0 0 0 0 0 
0 0 0 0 0 0 0 0 0 
0 0 0 0 0 0 0 0 0 
0 0 0 0 0 0 0 0 0 
0 0 0 0 0 0 0 0 0 
0 0 0 0 0 0 0 0 0 
0 0 0 0 0 0 0 0 0 
0 0 0 0 0 0 0 0 0 
0 0 0 0 0 0 0 0 0 
0 0 0 0 0 0 0 0 0 
0 0 0 0 0 0 0 0 0 
0 0 0 0 0 0 0 0 0 
0 0 0 0 0 0 0 0 0 
0 0 0 0 0 0 0 0 0 
0 0 0 0 0 0 0 0 0 
0 0 0 0 0 0 0 0 0 
0 0 0 0 0 0 0 0 0 
0 0 0 0 0 0 0 0 0 
0 0 0 0 0 0 0 0 0 
0 0 0 0 0 0 0 0 0 
0 0 0 0 0 0 0 0 0 
0 0 0 0 0 0 0 0 0 
0 0 0 0 0 0 0 0 0 
0 0 0 0 0 0 0 0 0 
0 0 0 0 0 0 0 0 0 
0 0 0 0 0 0 0 0 0 
0 0 0 0 0 0 0 0 0 
0 0 0 0 0 0 0 0 0 
0 0 0 0 0 0 0 0 0 
0 0 0 0 0 0 0 0 0 
0 0 0 0 0 0 0 0 0 
0 0 0 0 0 0 0 0 0 
0 0 0 0 0 0 0 0 0 
0 -1 0 0 0 0 0 0 0 
0 0 0 0 0 0 0 0 0 
0 0 0 0 0 0 0 0 0 
0 0 0 0 0 0 0 0 0 
0 0 0 0 0 0 0 0 0 
0 0 0 0 0 0 0 0 0 
0 0 0 0 0 0 0 0 0 
0 0 0 0 0 0 0 0 0 
0 0 0 0 0 0 0 0 0 
0 0 0 0 0 0 0 0 0 
0 0 0 0 0 0 0 0 0 
0 0 0 0 0 0 0 0 0 
0 0 0 0 0 0 0 0 0 
0 0 0 0 0 0 0 0 0 
0 0 0 0 0 0 0 0 0 
0 0 0 0 0 0 0 0 0 
0 0 0 0 0 0 0 0 0 
0 0 0 0 0 0 0 0 0 
0 0 0 0 0 0 0 0 0 
0 0 0 0 0 0 0 0 0 
0 0 0 0 0 0 0 0 0 
0 0 0 0 0 0 0 0 0 
0 0 0 0 0 0 0 0 0 
0 0 0 0 0 0 0 0 0 
0 0 0 0 0 0 0 0 0 
0 0 0 0 0 0 0 0 0 
0 0 0 0 0 0 0 0 0 
0 0 0 0 0 0 0 0 0 
0 0 0 0 0 0 0 0 0 
0 0 0 0 0 0 0 0 0 
0 0 0 0 0 0 0 0 0 
0 0 0 0 0 0 0 0 0 
0 0 0 0 0 0 0 0 0 
0 0 0 0 0 0 0 0 0 
0 0 0 0 0 0 0 0 0 
0 0 0 0 0 0 0 0 0 
0 0 0 0 0 0 0 0 0 
0 0 0 0 0 0 0 0 0 
0 0 0 0 0 0 0 0 0 
0 0 0 0 0 0 0 0 0 
0 0 0 0 0 0 0 0 0 
0 0 0 0 0 0 0 0 0 
0 0 0 0 0 0 0 0 0 
0 0 0 0 0 0 0 0 0 
0 0 0 0 0 0 0 0 0 
0 0 0 0 0 0 0 0 0 
0 0 0 0 0 0 0 0 0 
0 0 0 0 0 0 0 0 0 
0 0 0 0 0 0 0 0 0 
0 0 0 0 0 0 0 0 0 
0 0 0 0 0 0 0 0 0 
0 0 0 0 0 0 0 0 0 
0 0 0 0 0 0 0 0 0 
0 0 0 0 0 0 0 0 0 
0 0 0 0 0 0 0 0 0 
0 0 0 0 0 0 0 0 0 
0 0 0 0 0 0 0 0 0 
0 0 0 0 0 0 0 0 0 
0 0 0 0 0 0 0 0 0 
0 0 0 0 0 0 0 0 0 
0 0 0 0 0 0 0 0 0 
0 0 0 0 0 0 0 0 0 
0 0 0 0 0 0 0 0 0 
0 0 0 0 0 0 0 0 0 
0 0 0 0 0 0 0 0 0 
0 0 0 0 0 0 0 0 0 
0 0 0 0 0 0 0 0 0 
0 0 0 0 0 0 0 0 0 
0 0 0 0 0 0 0 0 0 
0 0 0 0 0 0 0 0 0 
0 0 0 0 0 0 0 0 0 
0 0 0 0 0 0 0 0 0 
0 0 0 0 0 0 0 0 0 
0 0 0 0 0 0 0 0 0 
0 0 0 0 0 0 0 0 0 
0 0 0 0 0 0 0 0 0 
0 0 0 0 0 0 0 0 0 
0 0 0 
v 3 1000 double
7.7361775958 5.5881298799 -14.377857354 -10.349960599 -7.7254209806 -3.447929109 2.6889544877 2.2259905824 -12.034589585 
-22.787005566 -9.0497305807 -22.584431324 18.944645899 -19.890865725 31.533755455 7.4054201624 -11.872700404 7.8011542459 
-6.0479613658 18.530846606 -12.378825775 -4.5380604124 -22.425786162 0.98117897166 14.598790995 20.451271681 15.621810401 
0.24627213754 5.4406237228 -16.968663723 3.5296702571 17.599362122 14.982420364 1.8882253494 17.33490884 11.072878158 
-1.1014358794 -0.86480487151 -6.8109124156 -2.9403325704 12.544063348 -16.886862662 20.321600389 -8.9168480114 10.120354254 
-25.308051063 0.87871760814 4.8802890819 1.5625499673 -7.0782138187 -7.6375966966 0.20899606662 12.821948204 14.061901295 
3.9534370336 14.949724353 -7.8909096202 -2.7652279952 1.3850581289 -10.634836207 -5.0404791137 -17.542754334 23.641239962 
-11.54441952 23.58836329 -6.9899447805 -23.214000665 -1.4212259129 2.4865086982 -8.1707654229 -0.20425245297 6.2186685991 
-10.189853851 3.3325057438 -20.00995684 -2.194245118 -11.23003134 2.6379592849 -0.27206480834 -4.0005322881 9.2107651985 
-12.02617793 -25.061454676 -36.112288284 20.070670667 3.5943482222 -6.6064593809 -22.244983183 34.923563366 -3.4499587371 
9.2711905457 -4.2540864122 1.0006715419 5.7084252182 -5.3601635808 -12.922067081 -31.239332695 -39.966710831 4.0371396189 
10.883158548 -2.5112589887 14.414495599 18.378590952 6.3986136669 3.1128421924 0 0 0 
-6.978783171 -0.607320082 3.4483510821 -5.1091000366 -13.239385542 7.858184127 -7.4247862832 6.3098329121 1.917969197 
10.291011868 -4.6181577551 10.522407325 7.7972724697 -12.759535076 0.89504190788 0.36864638752 -16.459205591 4.7318551728 
9.8261386458 -29.287179861 19.478164603 -15.329574344 15.576590286 3.6823075546 -7.5383075651 -6.7564680754 17.621963615 
11.689489285 2.6701169387 -18.211384892 -21.518552569 11.621914259 -5.9107836368 -14.765443045 -21.721639141 2.5963913226 
4.7465441398 -4.6216575338 7.9490933499 -7.2169537138 -12.365214267 -9.6092085025 5.0932858259 4.0346822284 3.7772261384 
11.40964458 -1.1249566023 1.3322475306 -12.645921704 10.096779945 -0.92603246484 1.5741884179 -3.8858980674 -17.173321394 
-2.4275811127 15.247696223 -9.364666622 -7.6291813155 -4.692689368 -9.7560184846 4.0160664356 1.1061840029 11.706176946 
7.0539129187 12.662995224 -2.4955701544 -14.69358336 -24.481970858 7.8549175645 26.145720429 -10.346104833 -9.1914061071 
2.5166552001 5.120992343 -12.088910307 -12.200047401 16.338525942 9.9732223632 16.398599635 25.43567649 12.435963325 
-14.273489497 8.2990246086 -9.5104447906 -0.85287504556 -9.0879133294 -15.558917532 -1.9987652321 -5.3098376813 12.672855999 
-7.6308007005 -13.901022551 -3.8242232298 4.4236391282 25.996866531 22.927075295 -13.031996736 -7.0526090837 -8.8955450888 
-15.017191589 14.489761695 19.244285891 13.408549191 -2.9740328806 12.258984888 -20.26926673 7.4405699038 4.4972227014 
-13.918800246 0.61178316327 11.418685181 18.337586943 -8.9634728406 -8.6582677036 -0.92861292515 14.017224627 -0.60805123273 
-3.8503119237 5.973358092 8.6545260406 -0.15392489977 17.945383504 7.9928488055 -27.015659393 -16.818223701 4.5569773692 
7.6945098961 0.99500654032 9.0310567009 -13.387438581 -0.39700116304 -34.635224536 25.65379564 5.1555191987 32.326929433 
11.023918793 -4.0841187213 16.636711528 -5.1006680057 3.8707917572 1.3474977 0.33963911088 -0.58534751763 -0.34705483336 
0.61764946423 11.836992506 21.901675578 12.813000378 -5.2383817789 -26.340298604 10.403609672 -3.5505444953 7.8548108771 
-13.414015241 5.3475795587 10.275705515 -2.6857063462 1.2707105846 -10.773151453 2.4063045474 -5.4323242147 1.3921061534 
0 0 0 9.8813384139 -18.43224644 -4.4924135961 1.8193468556 2.5954419963 -18.621615841 
0.12043743139 -0.45147220057 -0.44496720992 23.864132161 12.81110293 -15.782481625 16.726927842 -10.930670917 8.1317046432 
-16.726927842 10.930670917 -8.1317046432 1.2478827093 -19.018180219 -6.2233047673 17.932644324 12.32715447 -29.820185002 
-22.196116669 -2.010470669 28.024332846 -3.570600376 5.8141407886 21.395660193 -2.2655615606 -27.221401195 -8.7565195978 
9.081522076 16.613962439 -13.305600561 8.7328896639 7.3476744025 4.4592361237 0.80769584538 0.93954381174 2.3161362092 
-15.950502127 -2.1215943892 4.6849745233 17.267627904 -7.762462778 5.2237132031 20.89756815 0.29869194358 -7.1175736846 
6.0796619089 -9.5288830978 9.2790360723 -0.035459872109 3.0670519568 9.3435945717 -18.633260656 -11.115800394 -6.5101438645 
-10.596529848 2.2574646001 -23.899027758 -1.998107351 -6.4310073015 -16.684268877 9.9569210666 -15.755631264 5.2605502137 
-2.0787090506 -10.897269436 25.894149538 29.60136635 7.0492836505 4.3954869467 7.9550612487 4.0949159057 -8.0142647527 
2.0587519774 15.672181242 4.2063313349 -15.631108989 -9.3227394703 -12.743903413 1.575628109 -17.783173193 -24.386605857 
11.884363801 -15.344712549 -6.2678883174 6.4016947095 18.938558921 12.818530196 -0.30824948039 13.001257138 15.752761304 
10.392032022 -17.591876185 -10.052647635 6.3423490661 -2.9546754674 9.4368791203 18.736270471 18.316177113 2.3412506902 
-2.153908144 -2.9062055153 1.6398931978 3.7019671479 -9.4700278905 2.1344289089 22.639329019 2.397692771 -24.929587926 
7.4237137596 13.420886328 3.3587114257 -23.087763532 13.536514376 -3.3645776174 6.0026594529 -14.092262992 1.9472159642 
-15.166113976 -4.2099988966 9.360136946 -5.2645830132 -9.4590418259 12.253705324 14.847058294 9.9168335761 4.9298375623 
17.808588906 19.554812775 11.198624216 4.3413935777 19.221924645 0.60894789256 -20.387831896 -13.008982376 0.39843086617 
21.869473811 1.8246325542 1.3409290541 -28.971821695 -19.609246414 -2.2839147276 4.7498064531 -7.0599000303 23.477326126 
-6.0291389591 -2.7673642634 2.3154926221 -6.4840144254 13.182116877 -0.96586729412 18.629146285 -24.696573319 6.4213973181 
-13.805390906 -21.913264252 5.9785106803 1.411131063 17.164160529 5.375232143 17.774077508 17.075680999 27.19150672 
-4.3350612555 4.8831952536 -0.81908712944 -12.521287329 -9.7868033593 -14.098879531 11.100008024 -5.1959587107 0.73818936968 
11.337902771 6.4698195014 -10.502295451 1.886063311 0.31504980127 -1.3853526964 18.891716104 -20.721923802 1.8843978015 
2.2901737173 -1.4806917258 0.38358154826 -9.5167702961 -13.319259467 9.9973083242 9.6511234844 -10.011272371 30.148137572 
3.4083633247 -8.3672562947 1.1448348285 1.8729626854 1.8692123927 -0.30149725738 10.795584149 17.351108682 11.1698744 
7.054352775 7.9815364597 11.566420558 -40.656229902 10.036402955 -9.331456375 -8.7865209864 -12.74199297 -15.439841583 
-14.14263761 -7.6912242298 -25.881321899 3.682577592 21.363133923 -25.879273893 12.181296432 -4.280935827 -6.7526006026 
-0.8919215066 22.794566659 -7.8731538788 3.8393999014 9.032806535 11.010803695 -8.4622555179 3.1007441851 -8.5641994622 
2.2326457363 -9.0852288439 -20.648053547 -4.2632471376 -17.57554899 -10.47279758 1.2381748903 9.4423808519 2.2870866189 
0.29735384409 18.36471647 6.1274702185 -18.197608305 5.669298547 -7.5118188195 1.9540037843 -4.6428580964 -10.001269769 
-11.402142389 -11.702889924 1.5694384967 7.567237385 19.076874159 -10.355653955 6.7179521985 15.465292413 -17.650948021 
10.648891679 12.187632037 -2.5987266864 -2.3046766625 -12.212409017 2.882696445 18.827386529 -14.251910227 0.76882736512 
-12.894166707 -12.012681103 -10.7627648 -30.66870969 -33.705815011 -32.193388127 -28.380194598 -15.414913343 -4.0655674735 