# vtk DataFile Version 4.2
Generated by LIGGGHTS
ASCII
DATASET POLYDATA
POINTS 1000 float
0.969735 0.458636 0.332739 2.24616 0.585392 0.453043 3.90126 1.06517 0.176057 
4.97062 0.772097 0.586966 1.8279 1.53929 0.677201 2.93204 1.35732 0.227541 
1.13312 2.23548 0.605327 2.09808 2.35168 0.0411507 0.231072 2.69833 0.306457 
3.2079 2.96421 0.275979 0.344491 3.76826 0.14631 1.45114 3.12734 0.296564 
4.24294 3.2044 0.301336 1.29002 4.10787 0.165879 2.29843 4.1802 0.378238 
1.76704 5.00193 0.51237 4.25039 4.72024 0.0309042 0.16947 0.340985 1.04866 
1.11083 0.0406176 1.23488 3.25331 0.523826 0.824197 0.604334 1.21379 0.887315 
2.60772 1.19464 1.1856 4.52846 1.64643 0.714163 0.201682 2.10256 1.10537 
2.77909 2.4521 1.02823 3.60392 2.00674 0.700652 1.82635 2.73219 1.12431 
3.72465 3.03447 1.12532 0.772349 3.12934 1.03237 2.50376 3.44671 1.00388 
4.74111 3.13227 1.17226 0.630661 4.12422 1.08803 1.57195 3.79286 1.06694 
0.0743358 4.93639 0.897225 3.36724 4.49067 0.747782 4.20491 4.43731 1.27607 
4.87734 4.97454 0.759218 2.14914 0.100134 1.35021 3.84104 0.00602974 1.64838 
0.595441 0.757022 1.84224 1.54132 0.902939 1.48381 4.22824 0.905653 1.44905 
1.08657 1.78445 1.53473 3.45506 1.5178 1.58584 2.27184 1.94553 1.76994 
3.436 2.46644 1.87481 4.34503 2.26115 1.46946 0.5643 2.52135 1.93863 
1.7536 3.28388 1.97994 3.05921 3.3916 1.80698 3.97103 3.72501 1.93663 
0.757731 4.68908 1.91193 1.79161 4.91287 1.52947 3.24457 4.4514 1.77532 
1.17351 0.37568 2.58629 4.5425 0.333871 2.39229 2.36106 0.803513 2.07059 
3.6392 0.793327 2.30888 0.426265 1.60609 2.36456 1.40712 1.35288 2.46024 
2.93613 1.51775 2.44509 4.82845 1.65593 2.11866 1.50946 2.36276 2.26582 
2.45576 2.7022 2.41352 4.40741 2.85003 2.26759 0.692863 3.49044 2.11067 
1.41208 4.18861 2.62981 2.33051 4.06372 2.26182 4.83388 4.19795 2.01168 
2.21263 0.0935255 2.75661 0.422378 1.05033 3.20378 2.20722 1.13228 3.00945 
4.73862 1.15021 2.96969 3.88614 1.6801 2.76295 0.082757 2.19536 3.12629 
2.22494 2.125 3.20168 0.868798 2.83469 2.87654 3.42031 2.56836 2.87677 
1.95235 3.45786 3.10931 3.01582 3.48976 2.78757 3.99363 3.53254 3.01997 
4.96523 3.23151 3.12688 0.30723 4.1383 2.76096 3.47311 4.37624 2.74565 
2.73314 4.89601 3.25444 4.46951 4.58784 2.8996 0.872026 0.203341 3.54941 
2.13358 0.385056 3.73975 1.36261 1.07739 3.53634 2.89414 1.10862 3.9142 
3.78102 0.725074 3.37128 4.63426 0.782317 3.88961 4.82138 1.74946 3.79553 
1.0402 2.04561 3.45984 3.07255 2.08283 3.78598 0.487992 2.80424 3.79727 
2.72318 2.99668 3.58805 4.32726 2.66084 3.70262 0.923891 3.73338 3.45241 
2.97584 4.01243 3.6304 4.56834 3.99435 3.78979 0.126764 4.97022 3.35842 
1.09279 4.91518 3.60089 1.90941 4.37912 3.46697 3.73611 4.65709 3.66809 
1.33894 0.408985 4.40187 2.759 0.322975 4.51815 3.84186 0.488547 4.41632 
0.275581 0.731376 4.14458 0.945569 1.33183 4.57776 1.99354 1.47826 4.19172 
3.87751 1.47824 4.05747 2.23778 2.41445 4.21385 4.4776 2.16044 4.6377 
3.61274 2.66031 4.3919 0.0312396 3.63144 4.07335 1.51558 3.42106 4.19283 
2.77559 3.19311 4.56104 3.65887 3.6932 4.30758 0.7861 4.24863 4.28974 
2.27203 4.04371 4.31957 2.96756 4.95935 4.2285 4.37777 4.59514 4.56352 
0.514969 0.299775 5.19839 3.38231 0.150014 5.27007 2.41493 1.17702 5.05449 
3.40354 1.22734 4.92666 4.30665 0.839192 5.22105 1.50426 2.07142 4.96334 
2.58798 2.18908 5.12406 0.884153 2.81112 4.70192 1.90611 2.9656 4.99 
1.14712 3.6956 5.08851 4.25706 3.13774 4.9797 0.148292 3.72087 5.0555 
2.1159 3.90928 5.28258 3.04579 4.21564 4.92324 0.425319 4.7673 5.03449 
2.22014 4.85255 4.87969 1.78211 0.219613 5.92274 1.48392 1.0224 5.34874 
2.72131 0.787632 5.93387 0.617165 1.37255 5.66141 1.60274 1.84231 5.94832 
2.91027 1.76948 5.96724 3.85963 1.52722 5.77689 3.5371 2.37399 5.39279 
4.49756 2.32079 5.64697 0.938911 2.59264 5.65937 2.52999 2.69309 5.97479 
1.67601 3.20899 5.93055 3.15065 3.28358 5.47449 4.60453 3.28543 5.90138 
0.616721 4.11987 5.83449 3.83602 4.00243 5.49469 4.79782 4.22075 5.64486 
1.36093 4.95537 5.37183 3.78462 0.422258 6.11691 0.925089 0.812645 6.42233 
1.96497 1.08864 6.51613 4.50496 1.05706 6.36425 0.675899 2.02067 6.41908 
3.53717 2.43777 6.40135 0.171076 2.95809 6.26252 4.51542 2.5053 6.61338 
0.895277 3.53195 6.62179 3.23454 3.40933 6.45357 1.5815 4.19803 6.06378 
2.44726 4.02265 6.62325 4.16061 4.32301 6.4651 0.92811 4.85007 6.44351 
2.31753 4.87327 6.12275 3.22391 4.45817 6.16482 1.42806 0.167394 6.9766 
2.49872 0.302064 6.98927 3.469 0.0643406 6.989 4.55758 0.226516 6.91837 
3.36585 1.14454 6.65685 4.13337 1.67956 7.04383 2.1714 2.08365 6.83539 
3.09506 1.93745 7.1973 1.37455 2.66903 6.71718 2.47492 3.02545 6.96079 
0.120933 3.33173 7.31516 1.64745 3.47924 7.2639 4.15628 3.39926 6.80823 
0.123336 4.14286 6.70038 1.62239 4.45299 7.041 3.26311 4.41414 7.16278 
4.47998 4.75127 7.31872 1.80769 0.192704 7.88636 0.490967 1.02044 7.48255 
1.48947 1.17491 7.90576 2.3674 1.19135 7.42707 3.28747 0.856498 7.61546 
4.27533 0.830658 7.70737 0.304943 1.94825 7.88176 1.18852 2.00236 7.4343 
4.89211 2.20282 7.47232 0.856585 2.86254 7.82436 2.79393 2.65276 7.82211 
3.89612 2.67696 7.43702 3.2392 3.44086 7.44836 4.89299 3.40617 7.46231 
0.850043 3.90584 7.68256 2.50234 3.93722 7.89476 4.06848 3.85212 7.7759 
0.382414 4.75235 7.44047 1.36818 4.89348 7.90172 2.60651 0.60177 8.31218 
4.86493 0.112752 8.06796 0.202863 0.914761 8.46847 2.82343 1.62475 8.24916 
3.79616 1.71635 8.00923 1.87757 2.14581 8.33044 4.37471 3.05496 8.25166 
1.9696 3.12493 8.14191 3.19812 3.44251 8.50457 0.017696 3.80197 8.22271 
1.42692 4.01958 8.4924 4.85697 4.17197 8.27594 0.585982 4.58917 8.43291 
2.22415 4.68587 8.48195 3.24158 4.59635 8.1376 1.27416 0.670242 8.74205 
2.62045 1.03849 9.24061 4.27531 0.712556 8.75081 1.09566 1.64336 8.69999 
3.53427 1.34766 9.02528 0.550393 2.4695 8.69378 2.57016 2.03322 9.15958 
4.32453 2.15878 8.75485 1.9423 2.80518 9.09316 4.9433 2.73869 9.2668 
2.30336 3.71328 8.87608 0.223899 4.06825 9.18966 4.06503 3.8291 8.84511 
1.37164 4.95637 8.9149 3.22185 4.47827 9.12243 1.66632 0.364895 9.60813 
2.74424 0.101595 9.7265 3.66814 0.216185 9.36814 4.55808 0.330719 9.79979 
0.696615 1.31553 9.88685 1.65976 1.49907 9.54055 4.66797 1.28828 9.4968 
1.132 2.45378 9.60822 3.4002 2.17331 9.69527 4.38206 2.17229 9.87191 
0.273947 3.10483 9.40048 1.30435 3.5257 9.35592 2.39154 3.3436 9.83649 
3.73677 3.11627 9.44742 3.30024 3.9221 9.93711 4.84801 4.13172 9.45619 
0.618391 4.74329 9.80848 2.06943 4.49171 9.46022 0.230983 5.66363 0.00833446 
1.05861 6.04908 0.447752 2.81936 5.89452 0.197668 4.41966 5.83285 0.441082 
0.265401 6.64447 0.168311 1.99238 6.47998 0.195383 1.16236 7.08242 0.120533 
3.61437 7.44425 0.239954 4.6208 6.95936 0.403407 2.1417 8.13735 0.501095 
3.04199 8.28275 0.0727305 3.94357 8.33278 0.544049 2.59739 9.10855 0.413185 
1.68401 9.74023 0.45013 3.47889 9.72026 0.283963 0.984582 5.29752 1.10671 
2.72188 5.21087 0.970819 3.74873 5.40622 1.05452 0.23011 5.94201 1.09461 
1.9681 5.85829 0.973568 2.77206 6.58613 0.93068 3.7881 6.52224 0.771792 
0.462782 7.22979 0.944481 1.62177 7.4048 0.938898 4.12625 7.46696 1.12861 
2.79407 7.60241 1.0399 4.86674 8.03231 0.783162 0.772848 8.16433 0.709796 
3.0553 8.58083 1.13704 0.693505 9.29214 0.727525 1.57162 8.85662 0.941805 
3.88396 9.13399 1.15362 4.79145 9.02647 0.750599 2.9983 9.58073 1.26377 
4.37617 9.97858 0.725587 1.4519 5.87165 1.82514 3.2526 5.91848 1.75596 
0.528729 6.67504 1.82362 2.35016 6.34284 1.85865 4.34269 6.317 1.57882 
1.60854 7.02287 1.86071 3.46631 6.8896 1.64049 4.97982 7.3398 1.71684 
0.947471 7.79318 1.61012 1.92418 8.03064 1.64962 3.4559 7.88119 1.74021 
0.205304 8.73141 1.39376 4.37252 8.27843 1.71513 1.1245 8.75779 1.8278 
0.382182 9.78032 1.86812 4.75252 9.45697 1.64374 0.983235 5.39936 2.64372 
2.49448 5.05596 2.21762 4.2448 5.18109 2.08977 3.80459 6.39279 2.43421 
4.76804 6.6198 2.4747 0.902329 7.40179 2.52021 2.16772 7.31181 2.63767 
3.16639 7.30307 2.55156 4.13062 7.36754 2.28281 0.237379 8.08898 2.27385 
2.66296 8.18412 2.60775 0.514242 9.04688 2.56006 2.27689 8.94014 2.03597 
3.26333 8.79575 2.09081 4.08787 9.28708 2.36438 1.56282 9.63742 2.03868 
3.04424 9.77162 2.28195 3.59299 5.5016 2.83159 2.72705 6.04066 2.83783 
4.55111 5.76889 2.95899 0.621253 6.50735 2.85186 1.74708 6.33401 2.6584 
3.4131 6.65554 3.30927 0.434896 8.00824 3.29893 3.69974 7.97813 3.12885 
1.68934 8.50388 2.78239 4.55598 8.46565 2.68217 2.72278 9.26185 3.12257 
1.28614 9.48275 3.00612 4.21325 9.81242 3.20752 4.17268 5.52244 3.90926 
1.20976 5.96853 3.45503 2.14556 5.63638 3.5694 3.18633 5.86121 3.86243 
2.42846 6.5818 3.73234 4.16235 6.55894 3.9579 0.0754277 7.14222 3.71428 
1.34694 7.06153 3.33798 2.90108 7.45214 3.61844 4.4915 7.28969 3.36745 
1.15347 8.62964 3.65062 2.35366 8.23534 3.90596 3.62418 8.90764 3.47806 
4.63726 8.95046 3.57607 0.0813945 9.59795 3.56477 3.41721 9.81813 3.8193 
0.511365 5.56802 4.06244 1.43228 5.44711 4.38586 2.50202 5.77302 4.59968 
4.93954 6.04683 4.3193 0.842806 6.64529 4.09375 1.74896 6.41721 4.43137 
3.24378 6.71542 4.39879 2.26182 7.33636 4.50412 0.582254 7.7848 4.31838 
4.22573 7.91704 4.09262 1.5388 8.21782 4.50887 3.41412 8.3763 4.42543 
0.0428156 8.90629 4.61025 1.62588 9.2367 4.3007 2.72619 9.17758 4.16038 
0.676351 9.64574 4.38432 4.45138 9.71749 4.18797 0.450407 5.76188 5.03909 
1.34505 6.13236 5.28312 3.7709 5.66567 4.81668 4.84212 5.90882 5.29821 
0.182778 6.8521 4.81631 2.33796 6.66249 5.25883 4.18787 6.56847 4.94822 
1.30019 7.25551 4.75984 3.13686 7.56012 4.92576 4.27556 7.56192 5.02559 
0.75036 8.36208 5.11438 2.53769 8.44059 4.88877 4.34796 8.55792 4.92673 
1.59737 8.88605 5.24318 3.61655 9.25716 4.82537 1.97768 9.89769 4.9851 
3.07085 5.20984 5.37425 4.32424 5.06892 5.43987 2.20541 5.70831 5.57672 
3.21077 6.25445 5.59498 0.461531 6.66129 5.76108 1.50222 7.00005 5.75671 
3.16932 7.47567 5.91572 4.03066 6.97876 5.84101 5.02772 7.15957 5.54878 
2.00165 7.77087 5.37543 2.41959 8.55947 5.95719 3.41836 8.35687 5.50542 
2.70224 9.31021 5.34955 4.60781 8.84506 5.83984 1.01337 9.56772 5.68293 
[...]
POINT_DATA 1000
FIELD FieldData 7
id 1 1000 int
9 530 528 773 509 531 519 20 526 
11 255 600 595 109 510 503 527 16 
3 5 2 514 18 757 505 506 522 
12 17 501 513 504 1 269 6 516 
770 146 8 748 14 502 518 13 523 
554 10 302 41 21 537 909 529 4 
34 35 548 555 23 534 544 524 541 
7 38 508 626 547 794 640 545 22 
533 552 536 26 30 557 24 543 546 
277 283 532 542 550 644 29 71 33 
170 40 47 551 540 42 31 279 37 
556 558 418 67 32 28 561 560 654 
570 49 63 535 539 58 25 294 36 
53 44 69 45 54 559 55 187 80 
51 59 62 70 68 48 50 817 563 
568 572 669 43 220 566 588 57 84 
583 61 538 569 567 589 66 52 311 
573 575 345 571 663 64 578 582 337 
574 303 96 99 101 103 592 102 91 
56 92 95 202 699 85 78 74 580 
97 585 79 350 81 83 339 77 591 
89 118 579 590 72 576 82 88 86 
833 93 125 87 584 75 593 586 581 
98 694 120 870 127 602 104 107 105 
73 110 108 115 598 233 601 235 119 
604 123 116 128 111 599 608 605 846 
117 272 106 240 594 112 735 507 633 
606 607 372 610 121 512 365 597 603 
114 515 113 142 596 404 612 630 143 
872 634 152 723 984 625 231 617 133 
520 140 130 511 517 892 129 135 151 
148 147 616 134 629 611 144 132 138 
149 631 141 150 632 613 139 131 620 
622 614 383 641 624 651 136 623 173 
912 402 27 168 627 653 423 659 650 
657 615 160 171 163 646 647 157 174 
636 158 658 166 156 642 645 648 652 
639 161 154 167 172 668 656 162 655 
643 164 920 682 637 159 649 169 155 
660 436 638 450 190 194 420 177 681 
193 180 185 153 199 182 448 673 661 
677 192 948 666 60 674 198 178 680 
189 181 686 679 684 676 670 662 562 
207 683 664 675 183 179 196 703 184 
671 191 678 188 685 667 195 469 709 
211 215 970 701 689 176 690 206 665 
200 205 197 706 707 702 577 203 692 
693 214 218 210 209 700 201 216 704 
710 688 217 698 224 219 712 691 741 
708 222 705 238 221 212 122 587 230 
208 374 695 743 713 719 721 714 737 
720 225 992 227 727 726 733 696 715 
717 742 228 739 242 738 730 239 736 
991 734 234 237 725 124 244 226 223 
521 247 628 137 618 716 635 229 243 
728 245 246 722 732 724 236 718 248 
843 252 251 259 767 745 866 268 525 
369 260 609 752 891 758 747 761 765 
754 744 254 261 262 382 904 257 250 
768 253 258 15 753 764 19 287 760 
769 263 265 772 762 413 756 790 746 
763 282 778 755 781 286 267 788 281 
766 791 300 908 780 784 785 777 775 
782 293 783 292 276 786 793 275 427 
298 818 290 306 553 289 774 285 296 
274 789 284 776 288 301 779 806 291 
792 809 295 325 813 816 323 549 280 
313 278 811 406 321 408 803 320 319 
324 808 308 305 812 318 797 796 814 
807 316 310 314 322 317 565 934 943 
821 810 46 832 355 802 831 798 307 
815 343 805 312 315 801 837 335 827 
830 338 564 349 333 340 94 819 332 
804 348 952 835 864 800 334 213 329 
826 342 353 823 825 354 331 346 100 
336 341 351 824 829 344 347 996 822 
858 330 848 90 359 836 327 326 377 
352 834 328 466 855 373 126 857 856 
852 854 840 838 869 76 850 845 371 
844 861 839 989 364 363 362 863 847 
867 368 357 868 270 849 851 367 360 
378 859 1000 865 853 490 860 750 862 
256 356 366 271 842 841 361 249 358 
266 375 380 273 389 759 990 385 875 
391 390 400 895 873 399 396 264 749 
403 384 871 395 878 884 387 887 405 
881 886 876 381 889 896 145 898 874 
888 393 877 883 899 901 885 621 894 
879 398 893 751 386 299 432 424 437 
388 922 882 927 397 410 426 411 422 
921 905 906 928 911 414 297 419 915 
415 923 431 175 916 914 925 412 917 
926 438 435 39 417 903 900 918 907 
919 924 439 461 434 409 407 429 787 
910 433 430 902 939 459 942 945 165 
425 416 447 937 457 940 944 446 421 
951 913 672 304 309 449 428 443 442 
453 947 941 444 186 938 440 950 456 
946 454 795 462 929 452 799 933 468 
460 470 930 936 455 932 935 458 931 
949 65 472 445 204 960 962 953 451 
465 976 964 441 954 474 971 965 828 
464 967 977 697 476 467 966 711 687 
958 471 959 820 972 473 478 379 475 
481 489 956 955 968 957 974 961 477 
479 994 499 969 963 463 985 497 973 
995 493 494 998 999 485 975 491 482 
370 988 241 488 483 376 978 495 486 
729 480 986 496 487 740 484 492 997 
980 890 500 771 979 619 498 401 392 
981 897 394 232 983 880 982 987 993 
731 
type 1 1000 int
1 2 2 2 2 2 2 1 2 
1 1 2 2 1 2 2 2 1 
1 1 1 2 1 2 2 2 2 
1 1 2 2 2 1 1 1 2 
2 1 1 2 1 2 2 1 2 
2 1 1 1 1 2 2 2 1 
1 1 2 2 1 2 2 2 2 
1 1 2 2 2 2 2 2 1 
2 2 2 1 1 2 1 2 2 
1 1 2 2 2 2 1 1 1 
1 1 1 2 2 1 1 1 1 
2 2 1 1 1 1 2 2 2 
2 1 1 2 2 1 1 1 1 
1 1 1 1 1 2 1 1 1 
1 1 1 1 1 1 1 2 2 
2 2 2 1 1 2 2 1 1 
2 1 2 2 2 2 1 1 1 
2 2 1 2 2 1 2 2 1 
2 1 1 1 1 1 2 1 1 
1 1 1 1 2 1 1 1 2 
1 2 1 1 1 1 1 1 2 
1 1 2 2 1 2 1 1 1 
2 1 1 1 2 1 2 2 2 
1 2 1 2 1 2 1 1 1 
1 1 1 1 2 1 2 1 1 
2 1 1 1 1 2 2 2 2 
1 1 1 1 2 1 2 2 2 
2 2 1 2 1 2 1 2 2 
1 2 1 1 2 1 2 2 1 
2 2 1 2 2 2 1 2 1 
2 1 1 2 2 2 1 1 1 
1 1 2 1 2 2 1 1 1 
1 2 1 1 2 2 1 1 2 
2 2 1 2 2 2 1 2 1 
2 1 1 1 2 2 1 2 2 
2 2 1 1 1 2 2 1 1 
2 1 2 1 1 2 2 2 2 
2 1 1 1 1 2 2 1 2 
2 1 2 2 2 1 2 1 1 
2 1 2 1 1 1 1 1 2 
1 1 1 1 1 1 1 2 2 
2 1 2 2 1 2 1 1 2 
1 1 2 2 2 2 2 2 2 
1 2 2 2 1 1 1 2 1 
2 1 2 1 2 2 1 1 2 
1 1 2 2 2 1 2 1 2 
1 1 1 2 2 2 2 1 2 
2 1 1 1 1 2 1 1 2 
2 2 1 2 1 1 2 2 2 
2 1 2 1 1 1 1 2 1 
1 1 2 2 2 2 2 2 2 
2 1 2 1 2 2 2 2 2 
2 2 1 2 1 2 2 1 2 
2 2 1 1 2 1 1 1 1 
2 1 2 1 2 2 2 1 1 
2 1 1 2 2 2 1 2 1 
2 1 1 1 2 2 2 1 2 
1 1 2 2 2 2 2 2 2 
2 2 1 1 1 1 2 1 1 
2 1 1 1 2 2 1 1 2 
2 1 1 2 2 1 2 2 2 
2 1 2 2 2 1 1 2 1 
2 2 1 2 2 2 2 2 2 
2 1 2 1 1 2 2 1 1 
1 2 1 1 2 1 2 1 1 
1 2 1 2 1 1 2 2 1 
2 2 1 1 2 2 1 2 1 
1 1 2 1 1 1 2 1 1 
1 2 1 1 2 1 2 2 2 
2 1 1 1 1 1 2 2 2 
2 2 1 2 1 2 2 2 1 
2 1 2 1 1 2 2 1 2 
2 1 2 1 1 1 1 2 1 
2 1 2 2 2 2 1 1 1 
2 1 1 2 2 1 1 1 1 
1 1 1 2 2 1 1 2 2 
2 1 2 1 1 2 1 1 1 
1 2 1 1 2 1 1 2 2 
2 2 2 2 2 1 2 2 1 
2 2 2 2 1 1 1 2 2 
2 1 1 2 1 2 2 1 1 
1 2 2 2 2 1 2 2 2 
1 1 1 1 2 2 1 1 1 
1 1 1 1 1 2 2 1 2 
1 1 1 2 2 1 1 1 2 
1 1 2 1 2 2 1 2 1 
2 2 2 1 2 2 1 2 2 
2 1 2 2 2 2 2 2 2 
2 1 2 2 1 1 1 1 1 
1 2 2 2 1 1 1 1 1 
2 2 2 2 2 1 1 1 2 
1 2 1 1 2 2 2 1 2 
2 1 1 1 1 2 2 2 2 
2 2 1 1 1 1 1 1 2 
2 1 1 2 2 1 2 2 1 
1 1 1 2 1 2 2 1 1 
2 2 2 1 1 1 1 1 1 
1 2 2 1 1 2 1 2 1 
2 1 2 1 2 1 2 2 1 
1 1 2 2 1 2 2 1 2 
2 1 1 1 1 2 2 2 1 
1 2 2 1 2 1 2 2 2 
1 2 2 2 1 1 2 2 2 
2 1 2 2 2 1 1 1 1 
1 1 2 2 2 2 2 2 1 
1 2 1 2 2 1 2 1 2 
2 1 1 2 2 1 2 1 1 
1 2 1 1 1 1 2 1 1 
2 1 2 1 1 2 1 1 2 
2 2 1 2 2 2 1 1 1 
2 2 1 1 2 2 2 2 2 
2 
i 3 1000 int
0 0 0 0 0 0 0 0 0 
0 0 0 0 0 0 0 0 0 
0 0 0 0 0 0 0 0 0 
0 0 0 1 0 0 0 0 1 
0 0 1 0 0 1 0 0 0 
0 0 0 0 0 0 0 0 0 
0 0 0 0 0 0 0 0 0 
0 0 0 0 0 0 1 0 0 
0 0 0 0 0 0 0 0 0 
0 0 0 0 0 0 0 0 0 
0 0 0 0 0 0 0 0 0 
1 0 0 0 0 0 0 0 0 
0 0 0 0 1 0 0 0 0 
1 0 0 0 0 0 0 0 0 
0 0 0 0 0 0 0 0 0 
0 0 0 0 0 0 1 0 0 
0 0 0 0 0 0 0 0 0 
1 0 0 0 0 0 0 0 0 
0 0 0 0 0 0 0 0 0 
0 0 0 0 0 0 0 0 0 
0 0 0 0 0 0 0 0 0 
0 0 0 0 0 0 0 0 0 
0 0 0 0 0 0 0 0 0 
0 1 0 0 0 0 0 0 0 
0 0 0 0 0 0 0 0 0 
0 0 0 0 0 0 0 0 0 
0 0 0 0 0 0 0 0 0 
0 0 0 1 0 0 0 0 0 
0 0 0 0 0 0 0 1 0 
0 0 0 0 0 0 0 0 0 
0 1 0 0 0 0 0 0 0 
0 0 0 0 0 0 0 0 0 
0 0 0 0 0 0 0 0 0 
0 0 0 0 0 0 1 0 0 
0 0 0 0 0 0 0 0 0 
0 0 0 0 0 0 0 1 0 
0 0 0 0 0 0 0 0 0 
0 0 0 0 0 0 0 0 0 
0 0 0 1 0 0 0 0 0 
0 0 0 0 0 0 0 0 0 
0 0 0 0 0 0 0 0 0 
0 0 0 0 1 0 0 0 0 
0 0 0 0 0 0 0 0 0 
0 0 0 0 0 0 0 0 0 
0 0 0 0 0 0 0 0 0 
0 0 0 0 0 0 0 0 0 
0 0 0 0 1 0 0 0 0 
0 0 0 0 0 0 0 0 0 
0 0 0 0 0 0 0 0 0 
0 0 0 0 0 0 0 0 0 
0 0 0 0 0 0 0 0 0 
0 0 0 0 0 0 0 0 0 
0 0 0 0 1 0 0 0 0 
0 0 0 0 0 0 1 0 0 
0 0 0 1 0 0 0 0 0 
0 0 0 0 0 0 0 0 0 
0 0 0 0 0 0 0 0 0 
0 0 0 0 0 0 0 0 0 
0 1 0 0 1 0 0 0 0 
0 0 0 0 0 0 0 0 0 
0 0 0 0 0 0 0 0 0 
1 0 0 0 0 0 0 0 0 
1 0 0 0 0 0 0 0 0 
0 0 0 0 0 0 0 0 0 
0 0 0 0 0 0 0 0 0 
0 0 0 0 0 0 0 0 0 
0 0 0 0 0 0 0 0 0 
0 0 0 0 0 0 0 0 0 
0 0 0 0 0 0 0 0 0 
0 0 0 0 0 0 0 0 0 
0 0 0 0 0 0 0 0 0 
0 0 0 0 0 0 0 0 0 
0 0 0 0 0 0 0 0 0 
0 0 0 0 0 0 0 0 0 
0 0 0 0 0 0 0 0 0 
0 0 0 0 0 0 0 0 0 
0 0 0 0 0 0 0 0 0 
0 0 0 0 0 0 0 0 0 
0 0 0 1 0 -1 0 0 0 
0 0 0 0 0 0 0 0 0 
0 1 0 0 0 -1 0 1 -1 
0 0 0 0 0 0 0 0 0 
0 0 0 0 0 0 0 0 -1 
1 0 0 0 0 0 0 0 0 
0 0 0 0 0 -1 0 0 0 
0 0 -1 0 0 0 1 0 0 
0 0 0 0 0 0 0 0 0 
1 0 0 0 0 0 0 0 0 
0 0 1 0 0 1 0 0 0 
0 0 1 0 0 0 0 0 0 
0 -1 0 0 0 0 0 0 0 
0 0 0 0 0 0 1 0 0 
0 0 0 0 0 0 0 0 0 
0 0 0 0 0 0 0 0 0 
0 0 0 0 0 0 0 0 0 
0 0 0 0 0 0 0 0 0 
0 0 0 0 0 0 0 0 0 
0 0 0 0 0 0 0 0 0 
0 0 0 0 0 0 0 0 0 
0 0 0 0 0 0 0 0 0 
0 0 0 0 0 0 0 0 0 
0 0 0 0 0 0 0 0 0 
1 0 0 0 0 0 0 0 0 
0 0 0 0 0 0 0 0 0 
0 0 0 0 0 0 0 0 0 
0 0 0 0 0 0 0 0 0 
0 0 0 0 0 0 0 0 0 
0 0 0 0 0 0 0 0 0 
0 0 0 0 0 0 0 0 0 
0 0 0 0 0 0 0 0 0 
0 0 0 0 0 0 0 0 0 
0 0 0 0 0 0 0 0 0 
0 0 0 0 0 0 0 0 0 
0 0 0 0 0 0 0 0 0 
0 0 0 0 0 0 1 0 0 
0 0 0 0 0 0 0 0 0 
0 0 0 0 0 0 0 0 0 
0 0 0 1 0 0 0 0 0 
1 0 0 0 0 0 0 0 0 
0 0 0 0 0 0 0 0 0 
0 0 0 0 0 0 0 0 0 
0 0 0 0 0 0 0 0 0 
1 0 0 0 0 0 0 0 0 
0 0 0 0 0 0 1 0 0 
0 0 0 0 0 0 0 0 0 
0 0 0 0 0 0 0 0 0 
0 0 0 0 0 0 0 0 0 
0 0 0 0 0 0 0 0 0 
0 0 0 0 0 0 0 -1 0 
0 0 0 0 0 0 0 0 0 
0 0 0 0 0 0 0 0 0 
0 0 0 0 0 0 0 0 0 
0 0 0 0 0 0 0 0 0 
0 0 0 0 0 0 0 0 0 
0 0 0 0 0 0 0 0 0 
0 0 0 0 0 0 0 0 0 
0 0 0 0 0 0 0 0 0 
0 0 0 0 0 0 0 0 0 
0 0 0 0 0 0 0 0 0 
0 0 0 0 0 0 0 0 0 
0 0 0 0 0 0 0 0 0 
0 0 0 0 0 0 0 0 0 
0 0 0 0 0 0 0 0 0 
0 0 0 0 0 0 0 0 0 
0 0 0 0 0 0 0 0 0 
0 0 0 0 0 0 0 0 0 
0 0 0 0 0 0 0 0 0 
0 0 0 0 0 0 0 0 0 
0 0 0 0 0 0 0 0 0 
0 -1 0 0 -1 0 0 0 0 
0 0 0 1 0 0 0 0 0 
0 0 0 0 0 0 0 0 0 
0 0 0 0 0 0 0 0 0 
0 0 0 0 0 0 0 0 0 
0 0 0 0 0 0 0 0 0 
0 0 0 0 0 0 0 0 0 
0 0 0 0 0 0 0 0 0 
0 0 0 0 0 0 0 0 0 
0 0 0 0 0 0 0 0 0 
1 0 0 0 0 0 0 0 0 
0 0 0 0 0 0 0 -1 0 
0 0 0 0 0 0 0 0 0 
0 0 -1 0 0 0 0 0 -1 
0 0 -1 0 0 -1 0 0 0 
0 0 -1 0 0 0 0 0 0 
0 0 0 0 0 0 0 0 0 
0 0 0 0 0 0 0 0 0 
0 0 0 0 0 0 0 0 0 
0 0 1 0 0 0 0 0 0 
0 0 0 0 0 0 0 0 0 
0 0 1 0 0 0 0 0 0 
0 0 1 0 0 0 0 0 1 
0 0 0 0 1 0 0 0 0 
0 0 0 0 0 0 0 0 0 
0 0 0 0 0 0 0 0 0 
0 0 0 0 0 0 0 1 0 
0 1 0 0 0 0 0 0 0 
0 0 0 0 0 0 0 0 0 
0 0 0 0 0 0 0 0 0 
0 0 0 0 0 0 0 0 0 
0 0 0 0 0 0 0 0 0 
0 0 0 0 0 0 0 1 0 
0 0 0 0 0 0 0 0 0 
0 0 0 0 0 0 0 0 0 
0 0 0 0 0 0 0 0 0 
0 0 0 0 0 0 0 0 0 
0 0 0 0 0 0 0 0 0 
0 1 0 0 0 0 0 0 0 
0 0 0 0 0 0 0 0 0 
0 0 0 0 0 0 0 0 0 
0 0 0 0 0 0 0 0 0 
0 0 0 0 0 0 0 1 0 
0 0 0 0 0 0 0 0 0 
0 0 0 -1 0 0 0 0 0 
0 0 0 0 0 0 0 0 0 
0 0 0 0 0 0 0 0 0 
0 0 0 0 0 0 0 0 0 
0 0 0 0 0 0 0 0 0 
0 0 0 0 0 0 0 0 0 
0 0 0 0 0 0 0 0 0 
0 0 0 -1 0 0 0 0 0 
0 0 0 0 0 0 0 0 0 
0 0 0 0 0 0 0 0 0 
0 0 0 0 0 0 0 0 0 
0 0 0 0 0 0 0 0 0 
0 0 0 0 0 0 0 0 0 
0 0 0 0 0 0 0 0 0 
0 0 0 0 0 0 0 0 0 
0 0 0 0 0 0 0 0 0 
0 0 0 0 1 0 0 1 0 
0 0 0 0 0 0 0 0 0 
0 0 0 0 0 0 0 0 0 
0 0 0 0 0 0 0 0 0 
0 0 0 0 0 0 0 0 0 
0 0 0 0 0 0 0 0 0 
0 0 0 0 0 0 0 0 0 
0 0 0 0 0 0 -1 0 0 
0 0 0 0 0 0 0 0 0 
0 0 0 0 0 0 0 0 0 
0 0 0 0 0 0 0 0 0 
0 0 0 0 0 0 0 0 0 
0 0 0 -1 1 0 0 0 0 
0 0 0 0 0 0 0 0 0 
0 0 0 0 0 0 0 0 0 
0 0 0 0 0 0 -1 0 0 
0 0 0 0 0 0 0 0 0 
0 0 0 0 0 0 0 0 0 
0 0 0 0 1 0 0 0 0 
0 0 0 0 0 0 0 0 0 
-1 0 0 0 0 0 0 0 0 
0 0 0 0 0 0 0 0 0 
0 0 0 0 0 0 0 0 0 
0 0 0 0 0 0 0 0 0 
0 0 0 0 0 0 0 0 0 
0 0 0 0 0 0 0 0 0 
0 0 0 0 0 0 -1 0 0 
0 0 0 0 0 0 0 0 0 
0 0 0 0 0 0 0 0 0 
0 1 0 0 0 0 0 0 0 
0 0 0 0 0 0 0 0 0 
0 0 0 0 0 0 0 0 0 
0 0 0 0 0 -1 0 0 0 
0 0 0 0 0 0 0 0 0 
0 0 0 0 0 0 0 0 0 
0 0 0 0 0 0 0 1 0 
0 0 0 0 0 -1 0 0 0 
0 0 -1 0 0 0 0 0 0 
0 0 -1 0 0 0 0 0 0 
0 0 0 0 0 -1 0 0 0 
0 0 -1 0 0 0 0 0 0 
0 0 0 0 0 0 0 0 0 
0 0 1 0 0 0 0 0 0 
0 0 0 0 0 0 0 0 0 
0 0 0 0 0 0 0 0 0 
0 0 0 0 -1 0 0 0 0 
0 0 0 0 0 0 0 0 0 
0 0 0 0 0 0 0 0 0 
0 0 0 0 0 0 0 0 0 
0 0 0 0 0 0 0 0 0 
0 0 0 0 0 0 0 0 0 
0 0 0 0 0 0 0 0 0 
0 0 0 0 0 0 0 0 0 
0 0 0 0 0 0 0 0 0 
0 0 0 -1 0 0 0 0 0 
0 0 0 0 0 0 0 0 0 
0 -1 0 0 0 0 0 0 0 
0 0 0 0 0 0 0 0 0 
0 0 0 0 0 0 0 0 0 
0 0 0 0 0 0 0 0 0 
0 0 0 0 0 0 0 0 0 
0 0 0 0 0 0 0 0 0 
0 0 0 0 0 0 0 0 0 
0 0 0 0 0 0 0 0 0 
0 0 0 0 0 0 0 0 0 
-1 0 0 0 0 0 0 0 0 
0 0 0 0 0 0 0 0 0 
0 0 0 0 0 0 0 0 0 
0 -1 0 0 0 0 0 0 0 
0 0 0 0 0 0 0 0 0 
0 0 0 0 0 0 0 0 0 
0 0 0 0 0 0 0 0 0 
0 0 0 0 0 0 0 -1 0 
0 0 0 0 0 0 0 0 0 
0 0 0 0 0 0 0 0 0 
0 0 0 0 0 0 0 0 0 
0 0 0 0 0 0 0 0 0 
0 0 0 0 0 0 0 0 0 
0 0 0 0 0 0 0 0 0 
0 0 0 0 0 0 0 0 0 
0 0 0 0 0 0 0 0 0 
0 0 0 0 0 0 0 0 0 
0 0 0 0 0 0 0 0 0 
0 0 0 -1 0 0 0 0 0 
0 0 0 0 0 0 0 0 0 
0 0 0 0 0 0 0 -1 0 
0 0 0 0 0 0 0 0 0 
0 0 0 0 0 0 0 0 0 
0 0 0 0 0 0 0 0 0 
0 0 0 0 0 0 0 0 0 
0 0 0 0 0 0 0 0 0 
0 0 0 -1 -1 0 0 0 0 
0 0 0 -1 0 0 0 0 0 
0 0 0 0 0 0 0 0 0 
0 0 0 0 0 0 0 0 0 
0 0 0 0 0 0 0 0 0 
0 0 0 0 0 0 0 0 0 
0 0 0 0 0 0 0 0 0 
-1 0 0 0 0 0 0 0 0 
0 0 0 0 0 0 -1 0 0 
0 0 0 0 0 0 0 0 0 
0 -1 0 0 0 0 0 0 0 
0 0 0 0 0 0 0 0 0 
0 0 0 0 0 0 0 0 0 
0 0 0 0 0 0 0 0 0 
0 0 0 0 0 0 0 0 0 
0 0 0 0 0 0 0 0 0 
0 0 0 0 0 0 0 0 0 
0 0 0 0 0 0 0 0 0 
0 0 0 0 0 0 0 0 0 
0 0 0 0 0 0 0 0 0 
0 0 0 0 0 0 0 0 0 
0 -1 0 0 0 0 -1 0 0 
0 0 0 0 0 0 0 0 0 
0 0 0 0 0 0 0 0 0 
0 0 0 0 0 0 0 0 0 
0 0 0 0 0 0 0 0 0 
0 0 0 0 0 0 0 0 0 
0 0 0 0 0 -1 0 0 0 
0 0 -1 0 0 0 0 0 -1 
0 0 0 0 0 -1 0 0 -1 
0 0 0 0 0 -1 0 0 -1 
0 0 0 0 0 0 0 0 -1 
0 0 0 0 0 0 0 0 0 
0 0 0 
v 3 1000 double
3.0683940602 0.063485275466 -0.48968791644 -1.6599295035 0.98381996052 -3.6340181657 -2.0166160689 2.6640969967 -2.8561122949 
0.25341180073 -2.0163812942 4.7119933227 -0.25101670069 2.149369603 1.8337825798 -2.6345215904 2.4302356102 0.13002169754 
0.26031786615 2.2954420192 0.20585874505 2.7409816829 1.2513883871 -1.8334203465 -0.81685377658 -0.44390274849 -0.22053678317 
0.9404395796 3.2155082508 0.77794782426 0.060256766498 2.6090482626 -0.99588277318 -1.6533652212 0.40922921302 -2.057939455 
3.2923434702 -1.2740011562 -0.11399323238 2.0456675853 0.045954001439 2.0062155885 2.4940695242 3.1302243611 1.1646416662 
2.0093223126 3.0030242907 0.81949301254 5.3851940711 2.3081867806 -2.7491529555 2.7721030101 -2.0810175968 3.1210814928 
0.70654850918 -2.9973920717 -0.48028683453 -0.27364192588 -1.7182682999 -2.388833327 0.58744785853 -0.50024426642 -1.1336368181 
1.7184641679 0.2242018273 -3.181924989 0.73635451519 0.44521563322 -2.5086890537 0.64823700257 -0.82484336175 0.24673295491 
-0.63113546675 -0.014369781171 -1.7204887437 0.68981402144 1.6171629271 -3.2772021379 -1.408644088 -1.1643879183 -2.773361438 
1.9620051719 0.33046261541 0.54325036399 -0.77330985578 -0.022156160637 -0.19712841025 -1.2886877101 -1.6510143799 -2.8352340401 
2.0134449975 -1.9058127334 1.6991172637 -3.7215388057 -3.8092860056 -2.5138225311 -2.2436350085 -1.8042006449 2.8514607673 
-0.18193840683 -0.14982512761 1.9733681314 1.4367260729 1.1289628029 -3.1620408001 0.97444888181 2.822143561 -2.2927937216 
2.0740545602 5.5706701825 0.57080319803 0.30572651994 2.6683983583 -1.3591467244 -1.1452762717 -0.92957751654 -0.72475863758 
0.5900735677 -1.1359931063 1.220472453 1.2026881777 -3.6681769408 1.8674570195 0.73201377492 -0.78603111136 0.79535217185 
1.9497221817 -1.5765516513 -0.043981717772 0.74800379341 -0.29341071604 -1.4328769533 -3.5761472163 -0.67364528642 -2.7329511432 
-1.4683649175 -0.7804969293 1.1399888739 1.2692558236 -1.9605189404 1.5407654999 -1.5303987404 -3.4232979567 2.5430660407 
2.1073321612 -2.1316732541 -0.022557691294 -2.2733048419 -1.4072430453 -0.3598203472 1.2744645014 -2.2376013955 -6.6756525243 
4.1331415524 -6.1952917204 -1.4438522181 1.2432210603 -1.0951693712 -0.71736139592 0.12440459989 0.40212413127 -1.4958335552 
2.840869446 -0.6371880158 -1.6590554763 -1.3430496484 -3.8702042817 -1.9512843575 3.0875671198 1.1804826071 -2.2201760406 
0.04832921852 1.5012586745 -3.7350418125 2.8327719054 -0.69795382571 0.64862972153 2.8574667028 -1.1702352858 0.81737261604 
0.25407660667 2.6418719971 -0.9474518948 1.7077694716 -1.3483350206 -3.0572915747 -2.3859095683 -2.2778147521 0.90775613294 
-3.4005492741 0.92611885773 -3.4529614479 1.2873168665 0.89679835349 1.1238751824 1.63917364 -2.3678032667 -0.084025794655 
0.20197023887 -9.584417625 3.0024829104 -3.0620926383 0.37121596951 -2.6910812546 0.014002680833 1.0175012379 -2.0507994881 
0.21458360796 0.6210461314 -3.585982521 0.93406392895 -1.5033001864 2.2492774941 2.8955648864 -1.8999790105 0.25676950215 
0.4105569957 -3.5953092872 -3.1605884021 0.18428583675 0.81849672658 -1.5895792353 0.17324623067 -2.5194458135 0.97891145202 
-2.814939467 0.1752436917 -3.3449769227 -2.1529961386 -2.4729087645 1.8518602595 -5.1756107158 -0.55766040792 -2.6421204341 
-3.7703465668 -2.0052191034 -1.1340332381 -2.53978837 2.4031803406 -0.355743344 -1.3099521534 2.0713918727 -4.3183394547 
-2.2964796638 -1.1921094593 1.0782668283 2.1243399095 -2.2278645091 0.74229366766 0.76800470821 0.40702008624 -1.7837187245 
-1.9241323574 -0.88850343756 -3.0389884519 0.77775179495 -1.7666434188 -0.29724872191 -1.0086290751 1.5869542466 -1.9577253256 
2.4664526426 -2.6435077493 -1.205720976 3.4733122663 -1.588756161 -2.1553032364 2.8243864922 -1.3687737644 -1.3787319915 
4.4298441949 2.2819522186 -3.2367277932 2.793704588 0.67376200777 -0.43893704095 -1.5358236817 0.83375269044 -1.6059701482 
1.8366148045 -1.407586914 3.1915420677 -3.3632532264 0.039122539494 -0.14362304523 -1.2527099798 -2.9598027486 2.0409474203 
-2.6422244767 1.0616084846 -0.78700858794 -6.5097697945 1.5256817714 0.9670951325 1.7367975405 -0.5138705062 1.3903570615 
-0.72230909189 1.0113191937 0.99072411273 1.8003107957 -1.3291213234 -2.8232071515 -0.58392444348 -2.6514067529 1.1668018358 
0.46384193213 -0.20691431127 -1.8736436554 -0.047143102959 -1.6268573772 1.2488842876 1.8806898319 -1.3469917715 -1.4315562059 
1.0965508609 0.1256256633 -1.5732045079 -1.114656804 0.93903728093 0.23450181994 1.3392514835 3.7433447335 -0.52005263604 
2.8452599539 -0.23921593208 4.4471533988 3.510793546 3.133641167 -2.0753274219 3.0074732709 0.60172897414 -3.4122779187 
0.23142486474 2.3310254753 -0.56946663897 4.307071178 0.20870321513 3.9017111535 0.16658198226 -7.1404850122 1.0039318346 
-2.6115363307 -3.9760530536 4.0415399201 1.654218895 -1.9398754401 2.8779527575 -0.62626260771 -1.0965619807 3.3089279266 
0.43204677465 3.2842830609 -0.9216389479 3.305571133 -1.4834055091 -4.1757060961 2.1637779012 -0.12644859656 -2.2491823325 
-0.30184339871 -2.383214258 2.0170793753 0.68088775168 -0.8594912067 -2.569978118 1.9840256993 -3.0279969921 -3.0073660163 
0.28018727892 1.209331744 0.27016223035 0.2651637652 3.1942207804 -1.5065440085 0.99583730571 -2.9666462184 -3.3169079203 
0.38640936455 2.5592248487 0.74427309452 3.9589855109 2.6861055934 -1.1540580526 2.1074435553 0.30716812513 0.51844685971 
7.5537091349 -2.4966803772 0.18501683511 -1.3119269969 0.4166424507 2.0718601962 3.0681697371 -0.82056475519 1.2292484078 
1.7645463434 0.65003931416 1.3686673472 1.4682566313 -3.5879373096 1.3370527565 1.1456888835 -4.8181225193 3.6567847859 
1.222819772 -2.7266247952 3.2121778555 2.969051348 -2.3155121715 -1.7790612273 2.1969139518 1.7574714925 -1.0262123277 
0.57495611674 0.63782219035 -1.4795979642 -5.2082647213 2.3297647293 -0.91770418029 0.93464939025 1.2730886505 -0.90840455419 
-0.28242814234 -0.99960771189 -0.38524340849 -0.91121782121 1.0338105945 1.882144452 3.9947165451 2.8321794322 0.63655692312 
0.29664063375 -0.96832409768 -0.82478199906 0.95928211768 -2.4936866608 3.839677486 5.6121709471 0.7818913388 4.9065164369 
-2.0397008344 2.0934203877 0.082819460722 -1.5769012328 1.3007208096 1.1657300839 -0.67463307197 -1.1482590566 -1.0317899376 
-0.61078581644 -1.3908343075 0.47261719534 1.2282038495 -0.79314998496 -0.11158438461 0.94540872472 1.3226646489 1.1976161364 
0.78519692574 1.6237116567 1.8175974815 1.158321744 -0.91530332369 1.8352840073 1.46262217 0.7219180782 -0.24821179946 
2.2213724308 -0.38032531507 -0.4412708099 -3.4626259563 2.3678206185 -0.75837182278 -0.30919716835 0.43958441621 1.700274743 
1.9018510463 1.7821459815 1.4699387772 1.5461216821 -3.5356208126 -0.073964510655 2.3879936829 -0.28316319184 1.5978265531 
-1.540696887 -1.4094134941 7.6920111569 -1.1450647277 1.4014970461 3.2639981667 2.2599011722 -0.030920730489 -2.5928395012 
1.2998379061 1.6122389063 2.3841414264 1.0552411291 2.7243429953 0.2675510652 1.0182403552 -0.40853759497 2.3929947392 
2.4625261488 1.8474785435 2.6883460788 -0.033837763322 -2.3836525332 0.76406467839 1.4111811183 1.3571353338 1.1248077717 
1.5449326136 -0.14872404127 -0.81729388196 2.1964746933 1.5747656314 0.46659503185 -0.24364968026 -0.36262201712 -1.0028579056 
1.0203898409 3.5998142827 0.21773067239 -0.10005406675 1.3793839671 -0.26198229804 -1.2807651307 -3.4797223141 -0.15141871637 