# vtk DataFile Version 4.2
Generated by LIGGGHTS
ASCII
DATASET POLYDATA
POINTS 1000 float
0.53432 0.177064 0.295743 2.17465 0.139502 0.483364 3.88149 0.310973 0.388043 
1.40148 0.751167 0.199482 2.99982 0.962534 0.0919767 2.12404 1.39325 0.576344 
3.8929 1.29759 0.555227 4.72715 1.58694 0.0858058 0.0210313 2.1308 0.491783 
1.06705 2.46866 0.549224 3.01368 1.85508 0.545713 2.35727 3.07683 0.578662 
4.99005 2.84991 0.277996 3.22572 3.90448 0.270688 4.42663 3.87644 -0.0267478 
1.32982 4.51459 0.368763 2.29118 4.80864 0.431096 4.20338 4.84331 0.0975361 
1.00435 0.384343 1.15374 3.09381 0.0513809 0.953536 4.77581 0.476995 1.28417 
2.90817 1.02499 1.09392 0.850067 1.53282 0.834438 4.36271 2.22585 0.763093 
0.30799 2.98234 1.00478 3.48175 2.69597 0.817475 4.78548 2.98185 1.26274 
1.07783 3.57771 0.689497 3.48077 3.62184 1.19539 0.306634 4.26068 0.687138 
2.46281 4.25312 1.24955 4.21614 4.226 0.887961 0.964384 4.682 1.31327 
3.32309 4.69962 0.995617 2.70976 0.468084 1.90245 1.80998 0.916205 1.41696 
3.79173 0.634302 1.37051 3.68201 1.63529 1.47261 4.66526 1.47222 1.34664 
1.13245 2.13188 1.68051 2.29302 2.00729 1.63868 0.20589 2.98115 1.99994 
3.95383 2.53205 1.89918 2.12513 3.32593 1.52196 0.6055 3.77851 1.54768 
4.44328 3.8363 1.78093 4.02149 4.81224 1.70246 0.729496 0.727782 2.05181 
3.62207 0.997765 2.31352 4.63926 0.752611 2.23624 1.2616 1.4868 2.43391 
2.6785 1.37566 2.32153 4.43407 1.7317 2.28452 0.370741 2.1248 2.52427 
3.05315 2.30272 2.33877 2.22722 3.05084 2.48557 4.85145 2.63611 2.37337 
1.27824 3.2538 2.06944 3.60632 3.43877 2.17044 1.4705 4.168 2.42775 
2.68318 3.89922 2.21656 3.93422 4.29674 2.56614 0.586966 4.60945 2.2667 
2.07035 4.93238 2.19074 3.14696 4.7849 2.18889 4.90791 4.67256 2.14464 
0.386862 0.370072 2.93362 1.36491 0.569216 2.81945 2.36532 0.607825 2.8931 
4.13986 0.177215 2.88399 3.30993 0.654418 3.22173 3.69789 1.78348 2.95943 
1.29281 2.47296 2.69404 2.20506 2.18588 2.98702 3.53085 2.92305 3.02387 
0.518941 3.69785 2.6826 4.52571 3.50952 2.74077 2.14481 4.32006 3.18747 
3.16211 4.3834 3.24301 4.72358 4.413 3.17062 4.65429 -0.0279652 3.72003 
0.421577 0.641523 3.89566 2.61384 0.733597 3.9412 4.2163 1.01576 3.44679 
1.84371 1.32829 3.35305 2.84713 1.5659 3.43813 1.19148 2.13076 3.63124 
4.44994 1.97721 3.59312 0.744741 2.98353 3.36055 2.78309 2.68342 3.64553 
4.29149 2.96421 3.67177 1.99319 3.36018 3.42448 0.142469 4.11792 3.51912 
1.13408 4.09066 3.36628 2.71243 3.8243 3.94534 4.04168 3.94063 3.72909 
1.93491 0.0373423 4.62631 3.76051 0.267064 4.05784 1.45676 0.673961 4.00287 
4.5644 0.781775 4.36359 0.338931 1.54464 4.31733 1.33174 1.57071 4.44775 
2.84699 1.83763 4.59076 3.49413 1.22805 4.13246 2.04635 2.31574 4.21316 
3.58579 2.22572 4.0309 4.70438 2.57244 4.56057 1.29416 3.25608 4.15957 
3.49271 3.25331 4.20474 4.46544 3.54389 4.5909 1.76506 4.14693 4.14006 
0.842326 4.71863 4.20323 2.52032 4.74779 4.4256 3.50158 4.71704 4.12931 
4.53991 4.53961 4.42648 0.990848 0.595807 4.89111 3.5673 0.118457 5.07644 
0.0154022 0.817344 4.93467 1.90919 0.987499 5.01908 2.89447 0.8377 4.89557 
4.23577 1.69008 4.62259 0.639053 2.23 4.98081 1.62469 2.25729 5.2532 
3.48455 2.59279 4.95558 0.425841 3.2014 4.6985 2.07962 3.17216 4.77426 
1.11391 3.94973 4.88083 2.06837 4.15914 5.09644 3.69342 4.10254 4.89456 
0.539676 4.83458 5.22377 1.49339 4.97732 4.95787 1.45294 0.509477 5.77443 
4.64463 0.473924 5.3318 3.79295 1.07403 5.27427 0.909121 1.41371 5.51378 
1.85007 1.47481 5.89467 2.86179 1.49098 5.65573 4.74037 1.32818 5.84705 
2.60137 2.42127 5.39213 3.86707 2.01168 5.67407 4.80139 2.35389 5.57134 
4.04748 3.01397 5.6885 2.07145 3.42819 5.77918 0.269158 3.88446 5.41273 
1.33218 4.25409 5.83077 2.93859 3.90532 5.52024 4.34619 3.96099 5.8701 
4.3668 4.8952 5.49083 4.42051 0.348399 6.30819 0.416978 1.19877 6.51816 
2.09485 0.683046 6.52194 3.0202 0.630802 6.1462 3.82792 1.20786 6.26772 
0.328581 2.27882 6.16179 1.17031 1.88485 6.53209 2.415 2.36095 6.40187 
4.42035 2.00894 6.55572 1.40773 2.7766 6.14678 4.72958 2.97172 6.42854 
0.644406 3.41913 6.21445 1.58771 3.72607 6.64306 2.92858 3.21526 6.24866 
2.42218 4.28121 6.55444 0.660589 4.85454 6.28662 3.50687 4.56249 6.03032 
-0.00745215 0.5741 7.26888 1.29364 0.241974 6.9552 3.72392 0.0600369 6.96713 
1.13576 1.19465 7.25678 4.24928 1.01051 7.1529 2.03968 1.59446 6.93242 
3.02248 1.58584 6.73454 0.318334 3.04382 7.08647 1.57594 2.61519 7.14817 
3.76224 2.8257 6.64046 2.82958 3.30922 7.25403 0.571196 4.08922 6.95312 
3.33578 4.22875 6.98216 4.21402 3.75196 6.84269 1.2049 4.84571 7.12554 
5.01245 4.46743 6.80107 1.39567 0.354656 7.9436 2.37649 0.150671 7.77412 
2.55619 1.13213 7.66129 3.48232 1.5071 7.61924 0.614456 2.12572 7.37882 
2.53505 2.32146 7.40898 3.75529 2.4681 7.57437 4.74841 2.60811 7.62139 
1.10438 3.49195 7.5523 2.55586 4.23612 7.60831 4.19831 4.59582 7.62641 
0.410462 0.333495 8.15949 4.45165 0.210062 7.96208 3.70016 0.788718 8.28039 
0.3674 1.32653 8.03213 1.46612 1.32031 8.19461 4.48703 1.39861 8.04334 
0.971056 2.37914 8.27824 1.99974 2.1189 8.4866 3.01301 2.14735 8.27081 
0.148698 2.84834 8.61002 1.831 3.00966 8.05437 3.83015 2.66886 8.55203 
3.00532 3.15645 8.22714 4.32548 3.4268 8.07496 0.396623 3.85527 8.4842 
2.13589 3.8797 8.44302 3.44951 4.08813 8.07929 1.0687 4.4392 8.02892 
1.84053 4.86896 8.49752 1.06071 0.592433 8.8792 2.8343 0.397084 8.6284 
0.0288308 1.78237 8.8855 1.72793 1.27233 9.19062 2.6309 1.36926 8.77012 
3.80764 1.68321 8.71978 4.96151 1.3894 9.13394 1.25404 2.42478 9.23633 
4.72115 2.2029 8.58956 2.02852 3.0355 9.03509 3.6783 3.58008 8.93631 
4.63784 3.3761 9.13298 1.24043 4.19167 9.03669 2.87423 4.15272 9.09913 
0.57624 5.00042 8.78005 3.89823 4.52013 9.19759 4.83487 4.34598 8.87874 
0.108922 0.0752073 9.3958 2.29495 0.497481 9.55212 3.52709 0.615141 9.31583 
0.438006 0.986956 9.64306 4.47354 0.658117 9.63622 1.12661 1.67255 9.88294 
3.33191 1.7943 9.59237 2.34928 1.91229 9.73635 2.91362 2.70936 9.50645 
4.40059 2.48073 9.51475 0.652156 3.4502 9.40098 1.71399 3.59176 9.91821 
3.74542 3.14258 9.88241 0.375089 4.53879 9.64653 3.19268 4.86028 9.97757 
1.3845 5.52098 0.350963 3.64412 5.54458 0.556557 0.333516 6.70426 0.538383 
1.53215 6.46523 0.645232 3.68273 6.68565 0.585598 2.99026 7.42915 0.614331 
4.60569 6.89674 0.24356 2.00642 7.55884 0.243914 3.92488 7.78196 0.569389 
0.417584 8.36445 0.288116 2.05005 8.55855 0.229774 3.05302 8.42991 0.472957 
4.05794 8.72426 0.210998 0.113415 9.29356 0.502199 4.97173 9.02736 0.550089 
3.32689 9.4164 0.197622 0.470052 5.44169 0.747808 1.69441 5.36507 1.29081 
0.837844 6.18438 1.30785 2.41079 5.97524 0.781281 3.03245 6.5261 1.33827 
4.61161 6.44758 1.15219 0.958519 7.41069 0.871113 2.19453 7.06301 1.09682 
2.18796 8.06292 1.10673 1.26363 8.36683 0.874684 4.45365 8.40917 1.14124 
1.40564 9.34541 0.70945 2.52169 9.24913 0.778081 3.53458 8.89911 1.25924 
4.28747 9.54688 1.11588 2.67598 5.30267 1.47471 4.82781 5.46443 1.35355 
3.90003 5.80609 1.50795 1.88704 6.28142 1.6419 0.261215 6.98885 1.59473 
1.21972 7.40172 1.83648 3.66415 7.29751 1.41698 4.66174 7.41944 1.42909 
0.0885569 7.96567 1.39439 1.20174 8.42253 1.87129 2.21099 8.66121 1.90784 
3.06091 8.08607 1.5984 0.39085 8.92033 1.55811 0.00335765 9.8188 1.34604 
1.87484 9.88073 1.41361 2.75409 9.48418 1.72187 0.972841 5.51255 2.07754 
4.47617 5.56206 2.34241 1.95289 5.86408 2.54827 2.86959 5.99782 2.1717 
0.767963 6.47015 2.28748 1.66056 6.84053 2.54696 4.31571 6.69319 2.07911 
0.50212 7.41309 2.53366 2.50935 7.03416 2.04571 3.40245 7.26516 2.43156 
2.5383 7.93069 2.51175 4.03294 7.96022 2.06893 4.9947 7.70777 2.3587 
3.06851 8.78059 2.41032 4.06191 8.91444 2.36935 0.399221 9.59179 2.30058 
1.33677 9.5744 2.65699 2.33746 9.62841 2.61942 3.56361 9.94717 2.08284 
4.55273 9.73185 2.06717 0.350892 5.0425 3.14484 1.31272 5.30796 3.0783 
2.61135 5.18384 2.9967 3.66793 5.22608 2.97967 0.0441182 5.97891 2.95303 
2.69227 6.16941 3.14878 4.48039 6.07078 3.26032 0.946352 6.28554 3.2582 
3.63936 6.26051 2.7535 0.054261 6.91306 3.32507 4.16784 7.10127 3.06616 
1.90405 7.52218 3.24457 3.36699 7.84831 3.24503 4.35166 8.08737 3.05764 
0.650543 8.38681 2.70716 1.83317 8.70086 2.8383 3.67195 8.80019 3.28321 
4.63647 9.0713 3.20417 3.25091 9.67322 3.03515 2.89752 5.51726 3.90997 
4.87518 5.21824 3.77108 0.392837 5.70074 3.95008 3.90572 5.61869 3.96966 
2.41926 6.73286 3.99148 4.10871 6.61164 4.01486 0.968368 7.27793 3.50356 
3.29205 6.88511 3.50662 4.73693 7.37744 3.85687 2.60254 7.77404 3.9146 
1.24073 8.24124 3.50158 4.7148 8.37716 3.98751 0.299363 9.27372 3.89191 
1.64133 9.12875 3.73071 2.64423 8.82368 3.41505 1.01753 9.89198 3.56043 
2.37119 9.82558 3.59921 1.60128 5.34774 4.03501 2.19944 5.9453 4.56918 
3.20668 6.15295 4.61781 0.408808 6.66188 4.22707 1.4235 6.59791 4.07983 
3.19862 7.15201 4.467 0.527058 7.71403 4.30948 1.61215 7.60558 4.20216 
3.8474 7.91221 4.18117 0.912629 8.63807 4.36084 2.17187 8.60809 4.40447 
3.16169 8.75113 4.27219 3.99985 9.29551 4.08788 4.96076 9.2708 4.364 
1.03224 9.61446 4.54378 2.87534 9.73992 4.45856 0.182879 5.72929 4.93559 
1.17902 5.94034 4.80476 4.12654 5.9018 4.92088 1.01312 7.0396 4.92886 
1.91712 6.92059 5.34098 4.29657 6.89569 4.95508 1.25214 8.00266 5.05476 
2.38989 7.72257 4.95649 2.6905 8.62365 5.27214 4.22913 8.54721 4.88389 
4.39186 9.5217 5.1507 2.51371 4.99456 5.41865 3.45234 5.34011 5.40065 
0.82815 5.67434 5.73544 1.81458 5.69813 5.573 3.90388 6.08616 5.89025 
0.0994274 6.50218 5.57122 1.09512 6.66564 5.85313 2.65132 6.24326 5.5168 
4.87935 6.33805 5.54618 3.40709 6.88998 5.41216 0.963071 7.66448 6.00985 
3.54418 7.87835 5.3287 4.55497 7.73699 5.4299 0.260193 8.1325 5.44626 
1.62416 8.58371 5.77928 4.07282 8.4087 5.99235 4.95977 8.63797 5.58818 
0.520176 9.18301 5.38337 3.49253 9.19366 5.4514 1.44681 9.55637 5.46391 
2.37653 9.9195 5.53736 1.75482 5.024 6.30964 2.60796 5.54227 6.25057 
4.20484 5.02992 6.58036 4.95157 5.4794 6.05362 0.372477 6.41197 6.52998 
1.76022 6.27667 6.51381 1.91785 7.27587 6.2759 2.84821 6.91027 6.31989 
[...]
POINT_DATA 1000
FIELD FieldData 7
id 1 1000 int
5 62 69 24 32 626 288 939 7 
501 130 20 990 601 129 605 117 234 
561 48 568 36 541 759 1 142 175 
531 521 116 109 147 111 242 588 37 
43 404 927 504 418 519 762 600 610 
624 646 551 61 591 30 70 776 17 
263 255 674 526 872 841 272 659 368 
365 899 651 644 562 663 581 87 50 
508 283 766 251 419 358 752 681 377 
545 74 235 566 589 42 592 765 84 
408 269 253 767 286 749 82 598 197 
846 570 583 584 105 294 79 698 744 
783 215 769 866 262 177 193 78 851 
670 608 114 515 68 578 571 755 276 
764 814 669 813 281 833 838 268 104 
554 546 848 110 12 361 510 296 318 
285 322 214 164 868 576 279 782 277 
202 512 594 274 97 558 278 580 577 
702 307 284 208 123 47 557 867 543 
44 72 128 532 529 797 630 28 323 
703 13 552 556 559 506 27 393 54 
602 742 511 722 880 747 528 540 280 
505 542 162 236 11 424 148 139 120 
596 503 567 125 544 170 735 67 539 
53 746 547 656 21 612 134 121 634 
590 229 729 246 25 535 31 45 909 
450 874 922 300 604 603 892 599 152 
86 635 100 81 696 718 491 714 839 
694 548 150 362 243 975 58 88 73 
115 77 625 963 593 716 22 133 654 
534 80 538 52 597 370 144 240 845 
884 140 750 137 29 661 560 3 640 
49 51 849 8 717 138 378 160 633 
108 174 638 662 502 773 187 46 167 
169 188 59 574 356 380 979 154 842 
639 629 375 141 360 402 636 172 35 
173 684 301 349 75 415 623 369 647 
171 157 648 149 275 180 682 40 163 
182 192 673 582 261 791 190 254 384 
155 426 920 565 199 676 342 354 353 
195 840 781 788 652 917 945 446 198 
637 347 291 836 292 664 406 902 153 
313 919 297 161 660 470 830 795 186 
181 329 934 178 858 685 357 816 789 
680 159 453 321 948 675 456 474 335 
943 701 126 856 85 10 330 835 573 
737 314 317 211 916 935 933 709 334 
800 689 686 363 822 463 200 372 827 
332 940 938 348 807 196 971 91 857 
870 223 988 256 736 66 219 206 831 
458 224 837 688 954 315 961 969 863 
958 875 745 15 628 999 976 337 103 
972 691 996 471 563 210 994 861 507 
555 533 993 579 107 586 238 237 585 
225 820 99 727 997 477 231 18 479 
713 63 33 809 486 328 520 490 391 
132 523 9 924 252 879 509 399 607 
616 683 980 653 127 730 146 26 981 
522 60 873 439 860 655 420 364 631 
847 96 484 995 101 136 14 405 2 
692 575 881 41 194 843 469 289 650 
768 614 615 620 316 854 889 71 102 
385 524 896 518 929 311 449 345 891 
657 423 431 815 383 413 928 386 295 
23 719 264 970 777 758 468 877 811 
290 798 903 748 89 952 757 228 904 
302 56 712 801 763 310 774 207 165 
304 645 796 333 780 94 832 257 790 
258 834 775 802 476 478 425 452 324 
461 806 679 113 779 818 106 819 536 
695 743 306 738 351 184 489 923 443 
320 678 352 55 677 707 808 553 1000 
359 325 4 340 985 829 6 428 338 
462 65 305 665 699 230 326 355 308 
220 859 564 247 371 473 179 671 667 
209 710 488 499 706 191 513 241 826 
549 810 38 595 343 957 700 218 690 
482 704 715 587 217 658 900 989 64 
527 373 57 496 212 222 201 221 733 
641 725 244 205 271 95 642 216 168 
270 118 705 741 724 895 227 245 112 
572 726 156 226 672 119 622 122 379 
344 991 487 720 732 92 721 530 514 
982 248 606 632 643 124 723 668 855 
135 299 869 131 760 962 619 956 93 
968 350 828 977 341 233 852 617 392 
918 613 76 740 516 494 480 466 493 
475 853 817 844 611 761 395 366 367 
492 794 517 396 973 890 569 498 621 
912 862 232 786 983 145 267 485 249 
166 401 885 986 376 495 387 282 886 
728 731 260 437 609 265 771 250 400 
865 394 273 905 83 756 16 34 151 
259 984 753 381 143 293 987 754 897 
432 921 770 500 871 784 812 894 914 
39 398 403 907 882 390 389 772 382 
887 785 417 878 901 436 649 410 942 
778 422 883 793 751 906 414 876 893 
898 298 438 397 185 319 457 992 312 
411 430 925 412 388 908 926 888 429 
792 433 951 189 331 427 442 967 409 
915 309 787 435 407 910 434 416 937 
821 913 448 666 447 739 440 459 421 
467 946 965 799 931 944 803 950 441 
941 183 949 176 451 287 346 978 947 
454 455 460 204 203 693 711 537 483 
825 550 336 960 974 497 964 959 444 
697 998 687 481 98 708 911 213 936 
627 158 266 932 930 472 850 953 824 
464 864 804 339 966 734 618 19 90 
465 955 525 805 445 823 303 327 374 
239 
type 1 1000 int
1 1 1 1 1 2 1 2 1 
2 1 1 2 2 1 2 1 1 
2 1 2 1 2 2 1 1 1 
2 2 1 1 1 1 1 2 1 
1 1 2 2 1 2 2 2 2 
2 2 2 1 2 1 1 2 1 
1 1 2 2 2 2 1 2 1 
1 2 2 2 2 2 2 1 1 
2 1 2 1 1 1 2 2 1 
2 1 1 2 2 1 2 2 1 
1 1 1 2 1 2 1 2 1 
2 2 2 2 1 1 1 2 2 
2 1 2 2 1 1 1 1 2 
2 2 1 2 1 2 2 2 1 
2 2 2 2 1 2 2 1 1 
2 2 2 1 1 1 2 1 1 
1 1 1 1 2 2 1 2 1 
1 2 2 1 1 2 1 2 2 
2 1 1 1 1 1 2 2 2 
1 1 1 2 2 2 2 1 1 
2 1 2 2 2 2 1 1 1 
2 2 2 2 2 2 2 2 1 
2 2 1 1 1 1 1 1 1 
2 2 2 1 2 1 2 1 2 
1 2 2 2 1 2 1 1 2 
2 1 2 1 1 2 1 1 2 
1 2 2 1 2 2 2 2 1 
1 2 1 1 2 2 1 2 2 
2 2 1 1 1 2 1 1 1 
1 1 2 2 2 2 1 1 2 
2 1 2 1 2 1 1 1 2 
2 1 2 1 1 2 2 1 2 
1 1 2 1 2 1 1 1 2 
1 1 2 2 2 2 1 1 1 
1 1 1 2 1 1 2 1 2 
2 2 1 1 1 1 2 1 1 
1 2 1 1 1 1 2 1 2 
1 1 2 1 1 1 2 1 1 
1 1 2 2 1 2 1 1 1 
1 1 2 2 1 2 1 1 1 
1 2 2 2 2 2 2 1 1 
2 1 1 2 1 2 1 2 1 
1 2 1 1 2 1 2 2 1 
1 1 2 1 2 2 1 2 2 
2 1 1 1 2 2 1 1 1 
2 2 1 2 1 1 1 2 2 
2 1 1 1 2 2 2 2 1 
2 2 2 1 2 1 1 1 2 
1 2 2 1 2 1 2 1 2 
2 1 2 1 2 1 1 1 2 
1 1 2 2 2 1 2 2 2 
2 2 2 1 2 2 2 1 1 
2 2 2 1 2 1 2 2 2 
2 2 2 2 1 2 1 1 2 
1 2 1 2 2 1 1 1 1 
2 1 1 2 1 1 2 1 1 
1 2 1 2 1 2 2 1 2 
2 2 2 2 1 2 1 1 2 
2 1 2 1 2 2 1 1 2 
2 1 1 2 1 1 1 1 1 
2 2 2 1 1 2 1 1 2 
2 2 2 2 1 2 2 1 1 
1 2 2 2 2 1 1 1 2 
2 1 1 2 1 1 2 1 1 
1 2 1 2 2 2 1 2 2 
1 2 2 2 1 2 2 1 2 
1 1 2 2 2 1 2 1 1 
1 2 2 1 2 1 2 1 2 
1 2 2 2 1 1 1 1 1 
1 2 2 1 2 2 1 2 2 
2 2 1 2 1 1 1 2 1 
1 2 1 1 2 2 2 2 2 
1 1 1 1 2 2 1 1 1 
1 1 1 2 2 1 1 1 1 
1 2 2 1 1 1 1 2 2 
1 2 1 1 2 1 2 1 2 
2 2 1 2 1 2 2 1 2 
1 2 2 2 1 2 2 2 1 
2 1 1 1 1 1 1 1 2 
2 2 1 1 1 1 2 1 1 
1 1 2 2 2 2 1 1 1 
2 2 1 1 2 1 2 1 1 
1 2 1 2 2 1 2 2 2 
2 1 2 2 2 1 2 2 2 
1 1 2 1 2 2 2 2 1 
2 1 2 2 1 1 2 2 1 
2 2 1 2 2 1 1 1 1 
1 2 2 2 2 2 1 1 1 
1 2 2 1 2 2 2 1 2 
2 2 1 2 2 1 1 1 1 
1 1 2 2 1 1 1 1 2 
2 2 1 1 2 1 2 1 1 
2 1 1 2 1 2 1 1 1 
1 2 2 1 1 1 2 2 2 
1 2 2 1 2 2 2 2 2 
1 1 1 2 2 1 1 2 1 
2 2 1 2 2 1 2 1 2 
2 1 2 2 2 2 1 2 2 
2 1 1 1 1 1 1 2 1 
1 1 2 1 1 2 2 2 1 
2 1 2 1 1 1 1 2 1 
2 1 2 1 1 2 1 1 2 
2 2 1 2 1 2 1 1 1 
1 2 2 2 2 2 2 2 1 
2 1 2 1 1 1 1 2 2 
1 1 1 1 1 2 2 2 1 
2 2 1 2 2 1 2 2 1 
2 2 2 1 1 2 2 1 2 
2 1 1 2 2 1 2 2 2 
1 2 2 1 2 2 2 1 1 
1 2 2 2 1 2 1 1 1 
1 
i 3 1000 int
0 0 0 0 0 0 0 0 0 
0 0 0 0 0 0 0 0 0 
1 0 0 1 0 0 0 0 0 
0 0 0 0 0 0 0 0 0 
1 0 1 0 0 1 0 0 0 
0 0 1 0 0 1 0 0 1 
0 0 0 0 0 0 0 0 0 
0 0 0 0 0 0 1 0 0 
0 0 0 0 0 0 0 0 0 
0 0 0 0 0 0 0 0 1 
0 0 1 0 0 0 0 0 1 
0 0 1 0 0 0 0 0 0 
0 0 0 1 0 0 1 0 0 
0 0 0 1 0 0 0 0 0 
1 0 0 0 0 1 0 0 1 
0 0 0 0 0 0 0 0 0 
0 0 0 0 0 0 0 0 0 
0 0 0 1 0 0 0 0 0 
1 0 0 1 0 0 0 0 0 
0 0 0 1 0 0 1 0 1 
1 0 0 0 0 0 1 0 1 
1 0 1 1 0 0 0 0 0 
0 1 0 0 0 0 0 1 0 
0 0 0 0 0 0 0 0 0 
0 0 0 1 0 0 1 0 0 
1 0 0 1 0 0 1 0 1 
1 0 0 0 0 0 0 0 0 
0 0 0 0 0 0 0 0 0 
0 0 0 0 0 0 0 0 0 
0 0 0 1 0 0 0 0 0 
1 0 0 1 0 0 1 0 0 
1 0 0 1 0 0 1 0 0 
0 0 0 0 0 0 0 1 0 
0 0 0 0 0 0 0 0 0 
0 0 0 0 0 0 1 0 0 
0 0 0 0 0 0 1 0 0 
1 0 0 0 0 0 1 0 0 
1 0 1 1 0 0 0 0 0 
0 0 0 0 0 0 0 0 0 
0 1 0 0 0 0 0 0 0 
0 0 -1 0 0 0 0 0 0 
0 0 0 1 0 0 1 0 0 
1 0 0 1 0 0 0 0 0 
1 0 0 1 0 0 0 0 0 
0 0 0 0 0 -1 0 0 0 
0 0 -1 0 0 -1 0 0 0 
0 0 0 0 0 -1 0 0 0 
0 0 -1 1 0 0 1 0 0 
1 0 0 1 0 0 0 0 0 
0 0 0 0 0 0 0 0 0 
0 0 -1 0 0 -1 0 0 -1 
0 1 0 0 0 -1 0 0 0 
0 0 -1 0 0 0 0 0 -1 
1 0 0 0 0 0 0 0 0 
0 0 0 1 0 0 1 0 0 
0 1 0 0 0 0 0 0 -1 
0 0 -1 0 0 0 0 0 -1 
0 0 -1 0 0 0 0 0 0 
0 0 -1 0 0 -1 1 0 0 
0 0 -1 0 0 -1 1 0 0 
0 0 0 0 0 -1 0 0 -1 
0 0 -1 0 0 -1 0 0 -1 
0 0 -1 1 0 -1 0 0 -1 
0 0 0 0 0 0 0 0 -1 
0 1 0 0 1 -1 0 0 -1 
0 0 -1 0 0 -1 0 0 -1 
0 0 -1 0 0 -1 0 0 -1 
0 1 0 0 0 -1 1 0 -1 
0 0 -1 0 0 -1 0 0 0 
0 0 0 0 0 -1 0 0 0 
0 0 0 0 0 -1 0 1 -1 
0 1 0 0 0 -1 0 0 -1 
0 0 -1 0 0 -1 0 0 -1 
0 0 -1 0 0 -1 0 0 -1 
0 0 -1 0 0 0 0 0 -1 
0 0 0 0 0 0 0 0 0 
0 1 0 0 0 -1 0 0 -1 
0 0 -1 0 0 -1 1 0 -1 
1 0 -1 1 0 -1 1 0 -1 
1 0 -1 0 0 0 0 0 0 
1 0 -1 0 0 0 0 0 -1 
0 0 1 0 0 0 0 0 1 
0 0 1 0 0 1 0 0 1 
0 0 1 0 0 1 0 -1 1 
0 0 1 0 -1 0 0 0 0 
0 -1 1 0 0 1 0 0 1 
0 -1 0 0 0 1 0 0 1 
0 0 1 0 0 1 0 0 0 
0 0 1 0 0 1 0 0 1 
0 -1 0 0 0 0 0 0 0 
0 -1 0 0 -1 0 0 -1 0 
0 -1 0 0 0 1 0 -1 1 
0 0 0 0 0 1 1 0 1 
1 0 0 0 0 0 0 -1 0 
0 0 0 0 -1 0 0 0 0 
0 -1 0 0 -1 0 0 0 0 
0 -1 0 0 -1 0 1 0 1 
0 -1 0 0 0 1 0 0 0 
1 0 1 0 0 0 0 0 0 
0 0 1 0 0 0 0 0 0 
0 0 0 0 -1 0 0 -1 0 
0 0 0 0 -1 0 0 0 0 
0 0 0 0 0 0 0 -1 0 
0 -1 0 1 0 1 1 0 1 
1 0 1 0 0 0 1 0 1 
0 0 0 0 0 0 1 0 1 
0 0 0 1 0 1 0 0 0 
0 0 0 0 0 0 0 -1 0 
0 0 0 0 0 0 0 -1 0 
0 -1 0 0 -1 0 1 0 0 
0 0 0 1 0 1 0 0 0 
0 0 0 0 0 0 0 0 0 
0 0 0 0 -1 0 0 0 0 
0 0 0 0 -1 0 0 0 0 
0 0 0 0 0 0 0 0 0 
0 -1 0 1 0 0 1 0 0 
0 0 0 1 0 0 1 0 0 
0 0 0 1 0 0 1 0 0 
0 -1 0 0 0 0 0 0 0 
0 -1 0 0 -1 0 0 -1 0 
0 0 0 0 -1 0 1 0 0 
1 0 0 0 0 0 1 0 0 
1 0 0 0 0 0 0 0 0 
0 0 0 0 -1 0 0 -1 0 
0 -1 0 1 0 0 0 0 0 
1 0 0 1 0 0 0 0 0 
1 0 0 1 0 0 1 0 0 
0 0 0 0 0 0 1 0 0 
0 -1 0 0 -1 0 0 0 0 
0 0 0 0 -1 0 0 0 0 
0 0 0 0 -1 0 0 0 0 
0 -1 0 1 0 0 1 0 0 
0 0 0 0 0 0 1 0 0 
1 0 0 1 0 0 0 0 0 
0 0 0 0 0 0 0 -1 0 
0 0 0 0 0 0 0 -1 0 
0 -1 0 0 -1 0 0 -1 -1 
0 -1 0 1 0 0 0 0 0 
0 0 0 1 0 0 1 0 0 
0 0 0 0 0 0 0 0 0 
1 0 0 0 0 0 0 -1 0 
1 0 0 0 0 0 0 0 0 
0 -1 0 0 -1 0 0 0 0 
0 0 0 0 -1 0 0 -1 0 
1 0 0 0 0 0 0 0 0 
1 0 0 1 0 0 0 0 0 
0 0 0 0 0 0 0 -1 0 
0 -1 0 0 0 0 0 0 0 
0 -1 -1 0 0 0 0 0 0 
0 0 0 0 0 0 1 0 0 
0 0 0 0 0 0 1 0 0 
0 0 0 0 0 0 1 0 0 
0 0 0 0 0 0 0 -1 0 
0 0 0 0 0 -1 0 -1 -1 
0 -1 -1 0 0 -1 0 0 0 
0 0 0 1 0 0 0 0 0 
0 0 0 0 0 0 0 0 0 
0 0 0 0 0 0 0 0 0 
0 0 0 0 -1 0 0 -1 -1 
0 -1 -1 0 -1 -1 0 0 0 
0 0 0 0 0 0 0 0 0 
0 0 0 0 0 0 0 0 0 
0 0 0 0 -1 0 0 0 0 
0 0 0 0 0 0 0 0 0 
0 0 0 0 -1 -1 0 0 0 
0 0 0 0 -1 -1 0 -1 -1 
0 -1 -1 0 1 1 0 1 1 
-1 0 0 0 1 1 0 1 0 
-1 1 0 -1 0 0 -1 0 0 
1 0 0 0 0 0 0 1 0 
-1 0 0 0 1 0 -1 0 1 
0 0 0 0 0 0 0 1 1 
0 0 0 -1 0 1 -1 1 1 
-1 1 0 -1 0 0 0 1 1 
-1 0 0 0 0 0 0 1 0 
0 0 0 0 0 1 0 0 0 
0 0 0 0 0 1 0 0 0 
0 0 1 0 0 0 0 1 1 
0 1 1 0 0 0 -1 1 0 
-1 0 0 0 1 0 -1 0 0 
0 0 0 0 0 0 0 1 0 
-1 0 0 0 0 0 0 0 1 
0 0 0 0 0 0 0 0 0 
0 0 0 0 0 0 0 0 0 
0 0 0 0 0 0 0 0 1 
0 1 0 -1 0 0 0 0 0 
0 1 0 0 0 0 0 1 0 
-1 0 0 0 0 0 0 0 0 
0 0 0 0 0 0 0 1 0 
0 0 0 0 0 0 0 0 0 
0 0 0 0 0 0 0 1 0 
0 1 0 0 1 0 0 0 0 
-1 0 0 0 0 0 0 0 0 
0 0 0 0 0 0 0 0 0 
0 0 0 0 0 0 0 0 0 
0 0 0 0 0 0 0 1 0 
0 0 0 0 0 0 0 0 0 
0 0 0 0 0 0 0 1 0 
0 0 0 0 0 0 0 0 0 
0 0 0 0 0 0 0 0 0 
0 0 0 0 0 0 0 0 0 
0 0 0 0 0 0 0 0 0 
0 0 0 0 0 0 0 0 0 
0 0 0 0 0 0 0 0 0 
0 0 0 0 0 0 0 0 0 
0 0 0 0 0 0 0 0 0 
0 0 0 0 0 0 0 0 0 
0 0 0 0 0 0 -1 1 0 
0 0 0 0 0 0 0 0 0 
0 0 0 0 0 0 -1 0 0 
0 0 0 0 0 0 0 0 0 
0 0 0 0 0 0 0 0 0 
0 0 0 0 0 0 0 0 0 
0 0 0 -1 1 0 0 0 0 
-1 0 0 -1 1 0 -1 1 0 
0 0 0 -1 0 0 0 0 0 
0 0 0 0 0 0 0 0 -1 
0 0 0 0 0 0 0 0 0 
0 0 -1 0 0 0 0 0 0 
0 1 0 -1 0 0 0 0 0 
-1 1 0 -1 1 0 -1 1 0 
0 0 0 0 0 0 0 0 0 
-1 1 0 0 0 0 -1 0 0 
0 0 0 0 0 0 0 1 0 
-1 1 0 -1 1 0 -1 1 0 
-1 1 0 -1 1 0 0 1 0 
0 1 0 -1 1 0 -1 1 0 
0 0 -1 -1 1 0 0 0 0 
-1 0 0 0 0 0 0 0 -1 
0 0 0 0 0 0 0 1 0 
-1 1 0 -1 1 0 -1 1 0 
0 1 0 -1 1 0 -1 1 0 
-1 0 0 -1 1 0 0 0 -1 
0 0 -1 0 1 0 -1 0 0 
0 0 -1 0 0 0 -1 0 0 
0 1 0 -1 1 0 -1 1 0 
-1 1 0 -1 1 0 -1 1 0 
0 0 -1 -1 1 0 -1 1 0 
-1 1 0 0 0 -1 -1 0 0 
0 0 -1 -1 1 0 0 0 -1 
0 0 -1 -1 0 0 -1 1 0 
-1 1 0 -1 1 0 0 1 -1 
-1 1 0 -1 1 0 -1 0 0 
0 0 -1 -1 1 0 0 0 -1 
-1 1 0 0 0 -1 -1 0 0 
0 0 -1 -1 0 0 0 1 0 
0 1 0 0 1 0 0 1 0 
-1 1 0 -1 1 0 0 0 -1 
-1 1 0 -1 0 -1 -1 0 -1 
0 1 0 -1 1 0 -1 0 0 
0 0 -1 0 0 -1 -1 0 0 
0 0 1 0 0 0 0 -1 1 
0 0 0 0 0 0 0 0 1 
0 0 0 0 0 0 0 0 1 
0 0 0 0 0 1 -1 0 1 
0 0 1 0 0 1 0 0 1 
0 0 1 0 0 1 -1 0 1 
0 0 1 0 0 0 0 0 0 
0 0 0 0 0 0 -1 0 1 
0 0 1 0 0 0 0 0 1 
0 0 1 0 0 1 0 0 1 
0 0 1 0 0 1 0 -1 0 
0 0 1 -1 0 0 0 0 0 
0 0 0 0 0 1 0 0 1 
0 0 1 0 0 0 0 0 0 
0 0 0 0 0 1 0 0 0 
0 -1 0 0 0 1 -1 0 0 
0 0 0 0 0 1 0 0 1 
0 0 0 0 0 1 0 0 0 
0 0 0 0 0 1 0 0 0 
0 0 0 0 0 0 0 0 0 
0 0 1 0 0 1 0 0 1 
0 0 0 0 0 0 0 0 0 
0 0 1 0 0 1 0 0 0 
0 0 0 0 0 1 0 0 0 
0 0 0 0 -1 0 0 0 0 
0 0 1 0 0 0 0 0 0 
0 0 0 0 -1 0 0 -1 0 
-1 -1 0 -1 -1 0 0 0 0 
0 0 0 0 0 1 0 0 0 
0 0 0 0 0 0 0 0 0 
0 0 1 0 0 0 0 0 0 
0 0 0 0 0 0 0 0 0 
0 0 1 0 0 0 0 -1 0 
0 -1 0 0 0 0 0 0 0 
0 -1 0 0 0 0 0 0 0 
0 0 0 0 0 0 0 0 0 
0 0 0 0 0 0 0 0 0 
0 0 0 0 -1 0 0 0 0 
0 0 0 0 0 0 0 0 0 
-1 0 0 0 0 0 0 0 0 
0 0 0 0 0 0 0 0 0 
0 0 0 0 -1 0 0 0 0 
0 0 0 0 0 0 0 0 0 
0 0 0 0 -1 0 0 0 0 
0 0 0 -1 0 0 0 -1 0 
0 0 0 0 0 0 0 0 0 
0 0 0 0 0 0 0 0 0 
0 0 0 0 0 0 0 0 0 
0 0 0 0 0 0 0 0 0 
0 -1 0 0 0 0 0 0 0 
-1 0 0 0 -1 0 0 0 0 
0 0 0 0 0 0 0 0 0 
0 0 0 0 0 0 0 -1 0 
0 0 0 0 0 0 0 0 0 
0 0 0 0 0 0 0 0 0 
0 -1 0 0 0 0 0 0 0 
-1 0 0 0 0 0 0 0 0 
0 0 0 0 0 0 0 0 0 
0 0 0 0 0 0 0 0 0 
0 0 0 0 0 0 0 0 0 
0 -1 0 0 0 0 0 0 0 
0 0 0 -1 0 0 0 0 0 
-1 0 0 0 0 0 0 0 -1 
0 0 0 0 0 0 0 0 0 
0 0 0 0 0 0 0 0 0 
-1 0 0 -1 0 0 -1 0 0 
0 0 0 0 0 -1 0 0 0 
0 0 0 0 0 -1 0 0 0 
0 0 0 0 0 0 0 0 0 
0 0 0 0 0 0 0 0 0 
-1 0 0 0 0 0 -1 0 0 
0 0 0 -1 0 0 -1 0 0 
0 0 -1 -1 1 0 0 0 0 
0 0 -1 0 0 -1 0 0 -1 
0 0 0 0 0 0 0 0 0 
0 0 0 0 0 0 0 0 0 
0 0 0 0 0 0 0 0 0 
0 0 0 0 0 0 -1 0 0 
0 0 -1 0 0 -1 -1 0 0 
0 0 0 0 0 0 0 0 -1 
0 0 0 0 0 0 0 0 0 
0 0 0 0 0 0 0 0 0 
-1 0 0 
v 3 1000 double
-0.010272497446 0.044975490273 -0.012713501381 -0.025190733258 -0.032395501019 -0.090168815593 -0.011409562364 -0.07200422216 -0.085565645153 
-0.0094758255624 0.02584008236 -0.049402056009 -0.038177443399 -0.037340977349 -0.077172798838 0.017870443972 -0.020930731592 -0.062515800119 
0.0077057104065 -0.077434518443 -0.094183844123 0.016420696937 -0.038839957877 -0.07442477941 0.002060946554 0.041387776668 0.0084695425858 
0.040388742941 0.02471115911 -0.032847159672 0.03103067611 -0.036919507401 -0.067688725953 0.048803502885 -0.020850111567 -0.012252144546 
0.0028418079555 -0.025760962425 -0.053926468508 0.021822494388 -0.074882462302 -0.022013202795 0.032839549247 -0.076556108808 -0.042582388864 
0.027889219477 0.020221121362 0.010421576188 0.037454457498 0.0017918723208 0.06142554036 0.043516224889 -0.075989466155 -0.0072659371936 
-0.004527567041 0.013361374034 -0.0079867322061 -0.027446391658 -0.023244423216 -0.076425635031 -0.010481822838 -0.072972504195 -0.028881806877 
-0.0016683859719 -0.027853203678 -0.055769302816 -0.013118235862 0.036956124443 -0.034276556544 0.020980321423 -0.076351758144 -0.063392116254 
0.055639328399 0.032953931682 0.0013430464827 0.048488484914 -0.053324116366 -0.046173176861 -0.013810752823 -0.042215694776 -0.10328858171 
0.04762924178 0.049134138044 0.027397797826 0.037483093228 -0.062639779264 -0.022546756498 0.041940962454 0.049408791148 0.027923218618 
0.041207196226 -0.0062599981778 0.055155161121 0.062982733416 -0.10047841355 -0.018316984016 0.061820162619 0.025843435531 0.020646079306 
0.042112722944 -0.07706976327 -0.012920186895 -0.00043975744375 -0.018232225689 -0.074249170601 0.023588185048 0.0086494677343 -0.075764461973 
-0.01099278558 -0.048677169262 -0.065999442153 0.068058527804 -0.040349287549 -0.09227257658 0.029589955699 -0.073478717032 -0.058626756605 
0.0083135900809 0.019535168239 -0.019228905405 0.039473343632 -0.0043211560564 -0.075440983735 0.065802307937 0.015158798734 0.0033064750224 
0.043629330198 -0.050166716664 -0.081155473183 0.055448202306 -0.03508277727 -0.0013580840737 0.040522262017 0.03135021893 0.015441011297 
0.065611125438 -0.089422118263 -0.013925437913 0.048919531383 -0.067880239603 -0.025104465142 -0.026807051871 0.021134296496 -0.017621721934 
0.012669691697 -0.024193282323 -0.067072954546 -0.022755463644 -0.067655226837 -0.033315305212 0.022974855123 0.0026156213027 -0.035331672942 
0.013825265235 -0.018035947513 -0.072798907079 0.045568683237 -0.046462080641 -0.062473583553 0.024274568423 0.034857992849 0.010389738039 
0.018060667125 -0.024581757528 -0.10345780477 0.028520099183 -0.0063594902445 -0.022626665888 0.022291409598 -0.03737554884 -0.04708157388 
0.055127514824 0.0082496635093 -0.027086886221 0.045719595821 -0.061629821557 -0.023427734363 0.046196148664 -0.0026307796459 0.008422133356 
0.057712590425 -0.015563779622 -0.0026598305756 0.044375558824 -0.0632590447 -0.014464724108 0.064698263246 0.050103939833 0.03702337573 
0.059023736774 -0.012702606671 0.0087922392176 0.065124343645 -0.020174623988 0.018859447304 0.073585182262 -0.037745038493 -0.060595980508 
-0.0055235929215 0.042078678868 0.0021187514288 -0.0075011056844 -0.004167793409 -0.039896822553 0.00092800079543 -0.019101013869 -0.068200579947 
-0.0078976366482 -0.091901485052 -0.043054632413 -0.0082541712782 -0.028896636997 -0.073370861861 0.0086825069329 -0.021103088861 -0.10284306628 
0.037193357839 0.015804289183 -0.016939104785 0.032879183667 -0.019638700519 -0.04477317089 0.036284651646 -0.075844410079 -0.032783499772 
0.042900226826 0.024147228415 -0.0092343700594 0.055557640306 -0.05091010155 0.009459438174 0.04843929039 -0.0064650375694 0.016571532813 
0.03838381249 -0.015703588948 -0.015071387066 0.03742043032 -0.022890940764 -0.02080214613 -0.0075009782169 -0.080535044526 -0.047848170524 
-0.011293427965 0.0030659033791 0.014360414458 -0.0043942106841 -0.022836756045 -0.069088907522 0.0040990343012 -0.058973146511 -0.071746302819 
0.020396063994 -0.01570832228 -0.047828742908 0.03661969671 -0.030795720638 -0.064668942319 0.016188710468 -0.00084064601553 -0.027394590627 
0.0053393421128 -0.057306289803 -0.078945704855 0.056537606364 0.029223251561 -0.0022386786111 0.017478109472 -0.019595964956 -0.027402830015 
0.033966108477 -0.053589058628 -0.031382244043 0.026485153634 -0.0094515857434 -0.0064172284959 0.034384807245 -0.0010293458981 0.014945107925 
0.035410974915 0.010221573276 0.0056612681472 0.020649793354 -0.000394301569 -0.011040902896 0.035104706167 -0.03742739534 -0.036670108019 
-0.017318470756 -0.012512229976 -0.050587604944 -0.0087875727154 -0.068222797924 -0.061830128844 -0.0082936884928 0.014302533034 -0.033885804565 
-0.019532549932 -0.04270489947 -0.084967577865 -0.011743214681 0.015990209314 -0.012784475327 -0.0098932376341 0.0096653249539 -0.015290313907 
0.036605672201 -0.026165891047 -0.046637738903 0.0063497382507 -0.065746353714 -0.037961605406 0.022593652124 -0.02182497401 -0.021623236114 
0.011663462276 -0.0646012837 -0.062933229624 0.059887182081 -0.061414091854 -0.11017513794 0.053945924816 -0.018850449227 0.025201846233 
0.013942113521 -0.045253925253 -0.071689678513 0.032418785759 -0.070039199081 -0.044537678148 0.052268181469 -0.010190438003 -0.0063237985569 
0.037541423731 0.028139398603 0.018973477139 0.073297623438 -0.029890050087 0.02745314327 0.040156260681 -0.056298253651 -0.0068643088457 
0.042578239466 -0.046701284732 -0.029488593044 -0.027594950894 -0.012903686663 -0.062989161833 -0.021896146121 -0.048285393091 -0.06117155605 
-0.017465616463 0.034716511417 0.019619203855 -0.0176710919 -0.017311661847 -0.034561236513 -0.037243664431 -0.055959612997 -0.054597335998 
0.011658554317 -0.035515539678 -0.068926341723 -0.0074192294292 0.01533453104 -0.013874588543 -0.006547657612 -0.014103896977 -0.029305887726 
-0.0017290710595 -0.044994797997 -0.072005412844 0.035358518982 0.035015139835 0.007646500765 0.05930281506 -0.033795087602 0.017551334701 
0.025948171947 -0.0035412117147 -0.014686727407 0.023207761478 -0.0098457967496 0.01507700535 0.055868387444 -0.054746075328 -0.0093667967597 
0.056481811607 0.021320248566 0.036428605413 0.051852345776 0.014171444809 0.013599440013 -0.055453138147 0.012163610224 -0.044027727909 
-0.023058759987 -0.021993536134 -0.067176756252 -0.017514266123 -0.038895264366 -0.090672039246 -0.049311872303 -0.016367173855 -0.027464061797 
-0.032608830643 0.0043638543527 -0.047256994607 -0.025401509567 -0.018993268924 -0.092775449526 -0.02911423737 -0.017917472827 -0.070927391152 
-0.0039471681418 -0.0024713236129 -0.059477935352 -0.016214835247 -0.038515513226 -0.058768830421 -0.017274510619 -0.041011736049 -0.08733549461 
-0.012618094353 -0.02250802497 -0.084942677869 -0.0060850164088 -0.013833989502 0.011984623899 0.044328510379 0.029195379666 0.02308910582 
0.039375289677 0.013347596867 0.012258753451 0.037709432743 -0.03157284138 -0.024806700527 0.0041045276748 -0.032460865993 -0.030476901207 
0.019709813234 -0.019936847082 -0.0070693127324 -0.021526243988 -0.041529638852 -0.070647135278 -0.04052673872 0.034645602395 -0.041024907719 