# vtk DataFile Version 4.2
Generated by LIGGGHTS
ASCII
DATASET POLYDATA
POINTS 1000 float
1.17546 0.365278 0.179034 3.17053 0.423856 0.662732 4.64975 0.247127 0.123517 
0.0867934 0.687062 0.0370248 2.2255 0.671371 0.453496 1.73917 1.53446 0.573386 
2.55858 1.70911 0.00473995 4.77303 1.32685 0.45084 0.851119 2.02372 0.4441 
3.58443 1.95842 0.53681 0.111976 2.69811 0.254794 1.24124 3.04808 0.176668 
2.24573 2.68873 0.208425 3.1207 3.12967 0.557619 0.43604 3.62896 0.0452849 
2.37267 3.70398 0.0754101 4.65262 3.29593 0.139603 1.46741 3.98387 0.471463 
2.70678 4.64307 0.3139 3.94361 4.69195 0.380797 0.252284 0.167304 0.872982 
2.04189 0.072042 1.25988 4.06802 0.0658829 0.917547 0.706862 1.05037 0.737181 
2.83595 1.34446 0.897668 3.7592 1.32604 1.29807 1.58544 2.40747 1.03293 
2.59898 2.30381 1.0784 4.4837 2.01083 1.13655 0.467183 2.57435 1.18568 
4.06256 2.8978 0.84562 0.111072 3.51449 1.15053 1.22027 3.32536 1.18254 
2.24716 3.24852 1.03736 4.38566 3.96592 0.896734 1.00691 4.82649 0.866751 
1.93485 4.56886 1.1346 3.33174 4.58114 1.16469 0.222184 0.449556 1.84974 
3.68973 0.000580289 1.84122 1.18317 0.649453 1.5186 2.84809 0.660142 1.62956 
4.53162 0.737965 1.5284 0.896775 1.64053 1.52346 1.91743 1.6251 1.57661 
3.52016 2.28226 1.49395 4.44701 3.00937 1.76457 3.01984 3.28865 1.7998 
1.12157 4.01158 1.92762 2.10348 3.85837 1.81761 2.6178 4.95633 1.75771 
4.23781 4.96828 1.49306 0.964403 0.20653 2.49744 4.52737 0.232836 2.45167 
2.15102 0.939121 2.3145 3.67705 0.92706 2.21714 2.91728 1.57592 2.25117 
0.237448 2.16321 2.07072 1.27563 1.89367 2.41836 2.34949 2.43702 2.03742 
3.97294 1.8842 2.2926 4.95203 2.09212 2.02073 1.4579 2.88751 2.07628 
3.23659 2.55594 2.48194 0.493947 3.14483 2.00629 3.87477 3.58261 2.36529 
2.66338 3.76185 2.64378 3.31806 4.41327 2.22191 4.63456 4.42005 2.22926 
2.92006 0.466751 2.74158 0.718075 1.13568 2.76864 1.6188 0.728301 3.15361 
4.22899 1.04417 3.0425 2.17721 1.87843 2.85423 4.64507 1.95156 3.03138 
0.434839 2.49898 2.99229 1.53373 2.64246 3.0479 2.67418 2.94166 3.21836 
3.83078 2.54647 3.28549 4.80076 2.87654 2.69005 0.431293 3.6821 2.89804 
1.42592 3.60288 2.78855 4.85147 3.80283 3.05824 1.39419 4.58343 2.99139 
2.49629 4.67446 3.01816 3.95326 4.4427 2.99238 3.38845 0.0645201 3.74041 
0.367527 0.797976 3.64241 3.3542 1.03996 3.52257 4.92612 0.710661 3.67614 
1.26157 1.78719 3.49416 2.37853 1.23688 3.59542 3.93951 1.76312 3.899 
2.99969 2.01144 3.46748 0.875408 3.05802 3.70094 4.60537 2.91586 3.80607 
0.0116434 3.55905 3.82679 3.91393 3.58246 3.50241 1.97145 3.95261 3.57766 
2.97205 3.94375 3.65294 0.460659 4.59902 3.34901 1.97451 4.9561 3.82645 
3.26742 4.88844 3.90226 4.78596 4.70698 3.47655 0.650762 0.577622 4.57796 
1.51598 0.405178 4.09429 2.51623 0.373571 4.12367 2.24784 1.23209 4.59435 
4.05728 0.80188 4.26592 0.212756 1.45743 4.39904 1.27106 1.34243 4.39226 
0.292768 2.43719 4.22428 1.4488 3.09553 4.52488 2.13446 2.60236 3.98878 
3.17329 3.16618 4.24899 1.35405 4.33582 4.32242 2.23589 3.90376 4.5436 
3.44957 4.08601 4.52184 4.46538 4.0987 4.2063 0.342929 4.36996 4.31555 
1.67193 0.294132 5.13846 3.26914 0.401709 4.82466 4.18979 0.730249 5.29997 
3.42306 1.38819 4.92738 4.39794 1.59377 4.7991 0.628662 2.38813 5.16666 
1.65816 2.16162 4.82736 2.65477 2.06063 5.05144 3.58324 2.38442 4.76697 
2.3857 3.07981 5.13434 4.39806 2.98749 4.79266 0.528459 3.38824 4.77782 
3.43528 3.23636 5.26467 4.23683 3.91825 5.16702 0.985086 4.71255 5.17094 
2.62464 4.82292 4.6727 3.96543 4.92949 4.70648 0.373819 0.280152 5.49314 
1.20404 0.568538 5.97944 3.32653 0.406371 5.82928 2.47999 0.866719 5.49789 
0.737266 1.63414 5.82619 1.56612 1.31764 5.35527 3.64303 1.3557 5.90818 
1.83744 2.20116 5.83259 4.09524 2.47759 5.70452 0.246542 3.13402 5.71215 
4.77039 3.26495 5.70641 0.528371 4.09194 5.81295 1.70891 4.00481 5.39434 
2.68436 4.14193 5.70644 1.79308 4.94465 5.71631 3.60349 4.53534 5.71091 
4.51908 4.93118 5.64465 0.470902 0.97315 6.56564 1.90496 1.21262 6.28975 
4.49565 0.677032 6.2615 2.76724 1.74172 6.20375 0.934066 2.56708 6.18474 
2.67705 2.72268 6.02549 3.52716 2.70207 6.56694 4.7643 2.5703 6.45248 
0.0166059 3.51775 6.62262 1.62682 3.29107 6.09205 3.35027 3.64774 6.29087 
1.87518 4.21601 6.40459 4.37143 4.06656 6.15404 1.01643 4.88917 6.36779 
1.16217 0.363845 6.97185 2.41805 0.450285 6.83533 3.19173 1.09505 6.84145 
4.38235 0.875888 7.24792 2.28881 1.46131 7.18096 4.06336 1.8627 6.66737 
0.701263 1.89703 6.89247 1.91468 2.51175 6.79721 2.95361 2.21379 7.22915 
0.159536 2.70292 7.21609 1.09958 3.03126 7.17046 2.33168 3.42216 6.79803 
3.16887 3.66763 7.30462 4.25718 3.34093 6.8327 0.972935 3.90925 6.70861 
1.54827 4.78782 7.21015 2.69026 4.47153 6.92893 3.69667 4.42378 6.82297 
4.61886 4.40078 7.20974 0.280269 0.252056 7.9591 1.6354 0.279677 7.84831 
3.55199 0.477082 7.63723 4.68985 0.0653757 7.77742 0.654545 1.12962 7.61145 
0.00162233 1.87297 7.84602 1.60134 1.29203 7.8911 3.54405 1.52421 7.67911 
0.960675 2.16536 7.82153 4.4023 2.04454 7.69156 2.33843 3.0375 7.83198 
3.3529 2.86506 7.88183 4.07415 3.73316 7.74093 4.92287 3.12716 7.55218 
0.676231 4.3436 7.55908 1.5564 3.83768 7.67509 2.379 4.93911 7.75568 
3.30274 4.55559 7.74266 2.34318 0.236004 8.55798 0.16456 1.11407 8.48336 
1.18699 0.663187 8.65757 2.57801 1.11097 8.07246 4.2595 0.830965 8.256 
1.90387 2.20219 8.19096 2.89543 2.05167 8.23681 0.573078 3.01886 8.17101 
4.10064 3.04054 8.59442 1.5322 3.16439 8.41329 4.85436 3.68908 8.37783 
0.914279 3.95735 8.45368 2.5058 4.00111 8.09 0.162344 4.71049 8.3378 
2.0286 4.67652 8.66475 4.04291 4.58793 8.44126 4.98405 4.65023 8.11219 
3.5238 0.296524 8.70117 2.69642 1.01548 9.07506 4.37149 1.03921 9.24905 
1.18867 1.6778 8.71767 3.54149 1.38645 8.67488 0.335244 2.20461 8.74264 
2.33224 2.05017 9.08459 4.28663 2.05536 8.69254 0.156338 3.02405 9.29973 
4.89409 2.64005 9.22977 3.13533 3.29382 8.7621 2.32849 3.81662 9.08422 
3.20225 4.30648 8.96249 0.0404428 4.43919 9.31399 0.936809 4.82431 8.96234 
1.82865 0.466495 9.41944 2.74821 0.201158 9.74341 3.73681 0.347527 9.72566 
0.690133 1.40162 9.67329 1.68202 1.45754 9.55994 3.42554 1.29885 9.70003 
1.0519 2.31548 9.49168 3.2262 2.26432 9.47869 4.16574 1.9913 9.68697 
1.83008 2.9925 9.35161 3.86021 3.0371 9.57057 1.25389 3.80649 9.42176 
3.50857 3.87494 9.98924 4.46974 4.02916 9.43153 0.826089 4.55966 9.92072 
1.86631 4.56867 9.67736 3.95724 4.88899 9.39712 0.180084 5.35515 0.43222 
2.16106 5.49339 0.315493 3.16137 5.54161 0.296957 4.88681 5.06808 0.52038 
1.31183 6.02293 0.4221 4.74459 6.0367 0.177416 3.16423 6.54186 0.24634 
4.3032 7.47686 0.41101 0.702095 7.79816 0.100798 2.07096 8.12274 0.60187 
3.28439 7.52051 0.429762 3.99783 8.57803 0.171524 4.9926 8.46867 0.111011 
0.7178 9.16402 0.400082 2.54324 9.10853 0.580004 1.659 9.50168 0.324591 
3.40996 9.40067 0.142232 4.04579 5.62111 0.760001 0.732819 5.73361 1.18431 
1.99399 5.71016 1.28833 0.707359 6.72 0.810198 2.27315 6.47103 0.695173 
4.09554 6.59051 1.0022 1.55634 7.28734 0.827254 2.5448 7.36567 1.09189 
3.84794 7.82314 1.2803 1.22049 8.36963 1.06201 2.97026 8.29965 0.997485 
4.72734 8.26 1.09228 0.253378 8.83848 1.23986 3.67774 8.97574 1.19994 
4.55996 9.20597 0.789293 1.1121 9.7265 1.13115 0.908376 4.99699 1.84682 
3.40968 5.5649 1.70547 0.909766 6.44289 1.86683 2.67437 6.48426 1.70247 
3.73128 6.80459 1.9105 0.0567232 7.12874 1.60496 1.74361 6.99383 1.81465 
4.87161 7.41819 1.63271 0.954437 7.57186 1.60813 1.85877 7.98814 1.94359 
3.05391 7.70985 1.88697 1.59876 9.21879 1.88161 2.48558 8.75881 1.79506 
0.626328 9.4384 1.95906 2.90271 9.57868 1.38674 4.53101 9.44684 1.80478 
1.79803 5.17038 2.28974 0.365461 5.67562 2.38167 1.70669 6.18778 2.48126 
2.60968 5.68139 2.58939 4.70645 6.46518 2.19733 0.964588 7.42621 2.59975 
0.11511 7.95163 2.24015 4.1788 7.62748 2.54496 0.932528 8.49002 2.03312 
3.28857 8.553 2.37091 4.2252 8.48435 2.01208 2.18212 9.94143 2.25114 
3.19591 9.52292 2.57494 3.533 5.31772 2.66898 4.69975 5.46411 2.6886 
0.810394 6.47324 2.86134 2.32486 6.50619 3.23915 3.74657 6.35403 2.80591 
2.15759 7.3121 2.6674 3.25862 7.3157 2.78215 2.59687 8.10192 3.11354 
0.699929 8.14863 3.23944 1.57319 8.38725 2.81472 3.60278 8.1482 3.24754 
4.52716 8.5272 3.185 0.410556 9.03038 2.85895 2.32561 9.04274 2.75969 
4.16491 9.34924 2.74711 1.36994 9.37136 2.87428 2.23851 9.91386 3.24792 
0.406673 6.1788 3.72728 1.36614 5.72023 3.41019 2.93324 5.76401 3.54019 
4.03842 5.66421 3.47539 3.35154 6.77919 3.61922 4.61537 6.55809 3.38178 
0.943179 7.08544 3.65197 4.14588 7.42518 3.70151 1.65428 7.78897 3.61149 
3.01645 7.66602 3.9405 1.85981 8.76447 3.7073 0.871849 8.96988 3.86047 
3.48865 9.07505 3.6287 0.831856 9.91741 3.54294 4.48303 9.66363 3.64918 
0.854561 5.22539 4.11705 2.5202 5.8062 4.5034 3.52076 5.75173 4.34953 
4.82929 5.72179 4.08735 0.41223 6.82068 4.55267 1.73683 6.58173 4.05371 
3.10021 6.66107 4.57706 4.23487 6.46787 4.38925 0.532951 7.86415 4.19119 
2.20207 7.53703 4.50582 1.42859 8.27003 4.48775 2.40079 8.52859 4.54684 
3.4465 8.34109 4.54018 2.59962 9.36066 4.01925 4.32767 8.79206 4.13091 
1.67628 9.46651 4.39939 3.43058 9.44834 4.56846 4.34006 9.90339 4.60946 
1.55316 5.51437 4.77109 3.11926 5.56159 5.26335 0.454685 5.8366 4.91702 
4.56397 5.73514 5.05187 1.23725 6.37719 5.22439 1.27414 7.28221 4.77671 
2.05702 6.95537 5.33492 3.91376 7.37218 4.69826 3.00379 7.51512 5.11077 
4.86633 8.03842 4.93466 0.701716 8.54486 5.11643 1.69632 8.90199 5.22404 
4.09806 8.85057 5.1027 0.726185 9.60097 4.78109 2.49362 9.62192 4.99263 
2.08283 5.93569 5.51868 0.369437 6.77853 5.55569 2.92895 6.51455 5.5483 
3.9379 6.80962 5.52288 1.27722 7.35903 5.81374 4.91288 6.9471 5.69148 
0.396336 7.82725 5.74276 2.34192 7.83908 5.81631 4.11591 7.86834 5.57317 
3.12699 8.47423 5.48517 0.832676 9.30411 5.75369 2.41573 9.93716 5.94152 
4.02258 9.73919 5.55624 0.0907136 5.05622 6.02559 1.78435 5.51722 6.53272 
2.73088 5.08115 6.04812 4.34622 5.15555 6.60766 0.956891 5.84885 6.03349 
2.6146 6.04809 6.37184 3.59763 6.11208 6.17292 4.6013 5.93557 6.03994 
[...]
POINT_DATA 1000
FIELD FieldData 7
id 1 1000 int
9 5 633 843 530 509 531 18 519 
506 526 600 20 11 255 603 595 109 
510 6 16 146 150 2 514 13 522 
505 10 17 12 504 1 501 537 130 
529 4 748 8 14 548 502 518 523 
554 38 21 909 547 168 627 34 35 
534 555 544 302 541 7 552 782 41 
557 508 546 543 532 550 22 23 71 
170 26 47 30 24 31 279 277 283 
626 558 67 542 28 638 545 33 40 
551 63 535 540 37 280 776 44 32 
556 418 162 54 900 570 561 560 80 
654 553 49 42 36 539 53 69 45 
572 559 408 562 187 59 51 58 68 
62 70 25 48 817 294 52 575 669 
43 683 55 220 663 588 57 566 61 
84 538 563 311 573 50 568 571 92 
469 64 578 582 583 567 589 574 96 
303 66 101 103 102 91 95 202 78 
82 72 74 337 580 97 100 585 79 
584 83 99 77 592 591 89 122 118 
576 870 579 88 590 104 86 833 125 
87 581 75 593 81 577 235 226 127 
119 120 123 107 602 93 105 73 598 
115 586 233 601 228 743 715 604 372 
116 128 111 599 608 365 846 110 117 
594 272 240 112 735 507 606 607 528 
610 121 512 605 114 597 515 106 142 
596 247 404 503 511 516 612 143 135 
728 611 625 723 617 232 132 133 520 
140 517 892 632 148 129 151 147 134 
616 138 144 629 136 149 631 3 874 
613 139 131 614 899 622 383 641 624 
651 174 646 912 141 402 27 922 642 
658 620 659 160 615 173 647 623 640 
636 158 166 156 643 653 650 657 171 
648 639 652 161 163 154 157 167 29 
924 656 655 668 645 423 177 159 682 
637 169 649 155 644 172 450 194 60 
420 198 681 193 164 185 180 199 684 
182 661 660 673 662 192 190 207 948 
674 666 189 178 153 181 940 679 670 
676 677 188 664 183 675 680 179 184 
176 671 686 678 667 707 195 800 702 
56 692 709 211 215 970 693 701 689 
196 703 206 700 665 200 685 191 197 
706 205 98 698 203 214 219 218 691 
690 209 210 201 704 710 688 699 85 
719 224 712 481 737 992 708 741 705 
222 221 212 961 969 587 217 230 208 
694 242 695 374 713 739 714 736 720 
225 734 727 238 999 227 696 726 733 
244 223 717 137 628 738 239 991 234 
237 246 725 732 722 236 521 742 527 
630 872 634 618 716 152 229 635 245 
243 231 248 724 718 396 490 264 252 
860 251 259 271 767 268 260 369 358 
525 254 380 896 773 747 891 758 765 
757 15 761 866 513 287 760 261 609 
269 250 382 524 768 253 258 19 764 
753 744 267 754 794 265 788 262 762 
257 533 756 413 904 763 778 755 282 
781 276 786 769 281 263 299 300 908 
780 785 790 777 775 536 746 774 293 
286 292 793 766 911 414 427 784 298 
290 818 289 285 813 296 274 816 783 
313 811 789 288 275 792 779 291 809 
295 306 324 318 325 812 323 796 284 
672 301 934 319 305 46 832 808 308 
549 569 802 278 316 814 807 322 310 
314 317 943 821 320 333 355 810 797 
798 307 805 815 343 345 801 312 315 
837 827 830 338 564 349 353 340 831 
819 332 94 952 835 348 864 347 213 
329 826 342 331 825 354 346 823 351 
336 824 804 478 829 344 339 822 488 
858 90 840 836 359 326 377 327 352 
350 834 371 341 857 126 330 848 373 
357 856 854 838 869 76 859 108 1000 
850 845 483 861 989 124 363 863 847 
867 868 270 852 849 851 367 865 378 
853 362 750 364 745 256 862 356 368 
366 842 841 361 113 266 360 249 375 
771 752 273 389 498 385 884 394 895 
987 400 399 731 873 772 770 898 749 
990 984 384 871 878 395 887 405 621 
886 390 879 881 381 876 386 432 759 
145 393 403 883 397 387 885 894 398 
901 893 921 889 437 791 424 882 888 
877 927 410 426 411 926 905 751 906 
928 419 907 388 431 415 175 914 925 
412 422 429 438 39 903 918 406 297 
919 439 915 923 461 920 916 409 434 
917 407 457 787 435 436 433 417 430 
902 321 939 459 425 945 942 416 440 
937 944 421 913 951 448 910 806 304 
309 799 449 453 470 165 941 447 947 
444 186 454 950 446 456 946 795 803 
462 65 929 452 933 468 428 960 442 
460 443 930 938 455 936 441 935 964 
565 931 967 445 464 697 467 204 451 
953 687 465 932 971 458 954 474 334 
949 965 472 476 977 966 711 962 958 
976 471 959 972 335 463 473 216 497 
828 328 956 379 489 974 955 998 968 
957 477 994 820 499 996 985 466 844 
973 475 493 494 721 491 485 479 496 
487 963 482 855 988 241 978 376 995 
729 730 480 486 740 975 880 982 370 
492 997 890 500 619 979 401 495 392 
986 981 897 875 391 983 484 839 993 
980 
type 1 1000 int
1 1 2 2 2 2 2 1 2 
2 2 2 1 1 1 2 2 1 
2 1 1 1 1 1 2 1 2 
2 1 1 1 2 1 2 2 1 
2 1 2 1 1 2 2 2 2 
2 1 1 2 2 1 2 1 1 
2 2 2 1 2 1 2 2 1 
2 2 2 2 2 2 1 1 1 
1 1 1 1 1 1 1 1 1 
2 2 1 2 1 2 2 1 1 
2 1 2 2 1 1 2 1 1 
2 1 1 1 2 2 2 2 1 
2 2 1 1 1 2 1 1 1 
2 2 1 2 1 1 1 1 1 
1 1 1 1 2 1 1 2 2 
1 2 1 1 2 2 1 2 1 
1 2 2 1 2 1 2 2 1 
1 1 2 2 2 2 2 2 1 
1 1 1 1 1 1 1 1 1 
1 1 1 1 2 1 1 2 1 
2 1 1 1 2 2 1 1 1 
2 2 2 1 2 1 1 2 1 
1 2 1 2 1 2 1 1 1 
1 1 1 1 2 1 1 1 2 
1 2 1 2 1 2 2 2 1 
1 1 1 2 2 1 2 1 1 
2 1 1 1 2 2 2 2 2 
2 1 2 2 1 2 2 1 1 
2 1 1 2 2 2 2 1 1 
2 2 2 2 2 1 1 1 2 
1 2 2 2 1 1 1 1 1 
2 1 1 2 1 1 2 1 2 
2 1 1 2 2 2 1 2 2 
2 1 2 2 1 1 1 2 2 
2 2 2 1 2 1 2 2 2 
2 1 1 1 2 2 2 2 1 
2 2 2 1 1 1 1 1 1 
2 2 2 2 2 1 1 1 2 
2 1 2 1 2 1 1 1 1 
1 1 2 1 1 1 1 1 2 
1 2 2 2 2 1 1 1 2 
2 2 1 1 1 1 2 2 2 
2 2 1 2 1 2 2 1 1 
1 2 2 2 2 2 1 2 2 
1 2 2 1 1 2 2 2 2 
1 2 1 2 2 1 2 1 1 
2 1 1 2 1 1 1 1 2 
2 1 1 1 2 2 2 2 1 
2 1 2 1 2 2 2 2 2 
1 1 1 2 2 2 1 1 1 
2 1 2 1 2 2 2 2 2 
1 2 2 1 2 1 2 2 2 
1 1 2 1 2 2 1 2 1 
1 1 2 2 2 1 2 2 2 
2 2 2 2 2 1 1 2 1 
1 1 1 2 2 1 1 1 1 
2 1 1 1 2 1 1 1 1 
2 1 1 2 2 2 2 2 2 
2 1 2 2 2 1 2 1 2 
1 1 1 2 2 1 1 1 2 
2 2 1 2 2 1 2 1 2 
1 2 2 1 2 2 2 2 1 
2 1 2 2 1 1 1 1 2 
2 2 2 2 2 2 2 2 1 
1 1 2 2 2 1 1 2 1 
1 2 1 1 2 1 1 2 2 
1 2 2 1 1 2 2 1 2 
1 1 1 1 1 2 1 2 1 
2 1 2 1 1 1 2 2 1 
2 2 2 1 1 2 2 1 1 
1 1 2 2 1 1 1 2 2 
2 1 2 2 1 1 2 1 1 
2 2 2 1 2 1 1 1 2 
2 1 1 2 2 1 2 1 1 
1 2 1 1 2 1 1 2 1 
1 2 2 1 2 1 1 2 1 
2 1 2 2 1 1 1 1 1 
1 2 1 1 2 1 1 2 1 
1 2 2 2 2 1 2 1 2 
2 2 1 2 2 1 1 2 2 
2 2 1 2 2 2 1 2 1 
2 1 2 1 2 1 2 1 1 
1 2 2 1 1 1 1 1 1 
2 2 1 1 1 1 2 1 2 
2 1 1 2 2 2 2 2 2 
2 2 1 2 2 1 2 1 2 
2 1 2 2 1 2 1 1 2 
1 1 1 2 1 1 2 2 1 
2 2 2 2 1 2 1 2 2 
2 2 1 1 1 2 2 2 2 
2 1 2 1 1 1 1 2 2 
1 1 1 1 1 2 2 1 1 
2 1 2 2 1 2 2 1 1 
2 1 1 2 1 1 1 1 1 
2 1 2 1 1 2 2 1 1 
2 2 1 2 2 1 2 2 1 
1 2 1 1 1 1 2 1 2 
1 1 1 2 1 1 2 2 2 
1 1 2 1 2 1 1 2 1 
1 1 2 2 1 2 1 2 2 
2 2 2 1 1 2 1 1 1 
2 2 1 2 2 1 2 1 1 
2 2 1 1 2 2 2 2 2 
2 1 2 2 1 1 1 1 1 
2 1 2 1 1 2 2 2 2 
2 1 2 2 1 2 2 1 2 
2 1 1 1 2 1 1 1 1 
1 2 1 2 2 1 2 1 2 
2 2 1 1 2 2 2 2 1 
1 2 2 1 2 2 1 1 1 
2 2 2 2 1 2 1 2 2 
2 
i 3 1000 int
0 0 0 0 0 0 0 1 0 
1 0 1 0 0 0 0 0 0 
0 0 0 0 0 0 0 0 0 
0 0 0 0 0 0 0 0 1 
0 0 0 0 0 0 1 0 0 
0 0 1 0 0 1 0 0 1 
0 0 0 0 0 0 0 0 0 
0 1 0 0 1 0 0 0 0 
0 0 0 0 0 0 0 0 0 
0 0 0 0 0 0 0 0 0 
0 0 0 0 0 0 0 0 0 
0 0 0 0 0 0 0 0 0 
0 0 0 0 0 0 1 0 0 
0 0 0 0 0 0 0 0 0 
0 0 0 0 0 0 0 0 0 
0 0 0 0 0 0 0 0 0 
1 0 0 0 0 0 0 0 0 
0 0 0 0 0 0 0 0 0 
0 0 0 0 0 0 0 0 0 
1 0 0 0 0 0 0 0 0 
0 0 0 0 0 0 0 0 0 
0 0 0 0 0 0 0 0 0 
0 0 0 0 0 0 0 0 0 
0 0 0 0 0 0 0 0 0 
0 1 0 0 0 0 0 0 0 
0 0 0 0 0 0 0 0 0 
0 0 0 0 0 0 1 0 0 
0 0 0 0 0 0 0 0 0 
0 0 0 0 0 0 0 1 0 
0 0 0 0 0 0 0 0 0 
0 0 0 0 0 0 0 0 0 
0 0 0 0 0 0 0 0 0 
1 0 0 0 0 0 0 0 0 
0 0 0 1 0 0 0 0 0 
0 0 0 0 0 0 0 0 0 
0 0 0 0 0 0 0 0 0 
0 1 0 0 0 0 0 0 0 
0 0 0 0 0 0 0 0 0 
0 0 0 0 0 0 0 0 0 
0 0 0 0 0 0 1 0 0 
0 0 0 0 1 0 0 0 0 
0 0 0 0 0 0 0 0 0 
0 0 0 0 0 0 0 0 0 
0 0 0 0 0 0 1 0 0 
0 0 0 0 0 0 0 0 0 
0 0 0 0 0 0 0 0 0 
0 1 0 0 1 0 0 0 0 
0 0 0 0 0 0 0 0 0 
0 0 0 0 0 0 0 0 0 
0 0 0 0 0 0 0 0 0 
0 0 0 0 0 0 0 0 0 
0 0 0 0 0 0 0 0 0 
0 0 0 0 0 0 0 0 0 
0 0 0 0 0 0 0 0 0 
1 0 0 0 0 0 0 0 0 
0 0 0 0 0 0 0 0 0 
0 0 0 0 1 0 0 0 0 
0 0 0 0 0 0 0 0 0 
1 0 0 0 0 0 0 0 0 
0 0 0 0 0 0 0 0 0 
0 0 0 0 0 0 0 0 0 
0 0 0 0 0 0 0 0 0 
0 0 0 0 0 0 0 0 0 
0 0 0 0 0 0 0 0 0 
0 0 0 0 0 0 0 0 0 
0 0 0 0 0 0 0 0 0 
0 0 0 0 0 0 0 0 0 
0 0 0 0 0 0 0 0 0 
0 0 0 0 1 0 0 0 0 
0 0 0 0 0 0 0 0 0 
0 0 0 0 0 0 0 0 0 
0 0 0 0 0 0 0 0 0 
0 0 0 0 0 0 0 0 0 
0 0 0 0 0 0 0 0 0 
0 1 0 0 0 0 0 0 0 
0 0 0 0 0 0 0 0 0 
0 0 0 0 0 0 1 0 0 
0 0 0 0 0 0 0 0 0 
0 0 0 1 0 -1 0 0 0 
0 0 0 0 1 0 0 0 -1 
0 0 0 0 0 0 0 0 -1 
0 0 0 0 0 0 0 0 -1 
0 0 0 0 0 0 0 0 0 
0 0 -1 0 0 0 0 0 -1 
0 0 0 0 0 0 1 0 0 
0 0 0 0 0 0 0 0 0 
0 0 0 0 0 0 0 0 0 
0 0 1 0 0 0 0 0 0 
0 0 1 0 0 0 0 0 1 
0 0 0 0 0 0 0 -1 0 
0 0 0 0 0 0 1 0 0 
0 0 0 0 0 0 0 0 0 
0 0 0 0 0 0 0 0 0 
0 0 0 0 0 0 0 0 0 
0 0 0 0 0 0 0 0 0 
0 0 0 0 -1 0 1 0 0 
0 0 0 0 0 0 0 0 0 
0 0 0 1 0 0 0 0 0 
0 0 0 0 0 0 0 0 0 
0 0 0 0 0 0 0 0 0 
1 0 0 0 0 0 0 0 0 
0 0 0 1 0 0 0 0 0 
0 0 0 0 0 0 0 0 0 
0 0 0 0 0 0 0 0 0 
0 0 0 0 0 0 0 0 0 
0 0 0 0 0 0 0 0 0 
0 0 0 0 0 0 0 0 0 
0 0 0 0 0 0 0 0 0 
0 0 0 0 0 0 0 0 0 
0 0 0 0 0 0 0 0 0 
0 0 0 0 0 0 0 -1 0 
1 0 0 0 0 0 0 0 0 
0 0 0 0 0 0 0 0 0 
0 0 0 0 0 0 0 0 0 
0 0 0 0 0 0 0 0 0 
0 0 0 0 0 0 0 0 0 
1 0 0 0 0 0 0 0 0 
0 0 0 0 0 0 0 0 0 
0 0 0 0 0 0 0 0 0 
0 0 0 0 0 0 0 0 0 
0 0 0 0 0 0 0 0 0 
0 0 0 0 0 0 0 0 0 
0 0 0 0 0 0 1 0 0 
0 0 0 0 0 0 0 0 0 
0 0 0 0 0 0 0 0 0 
0 0 0 0 0 0 0 0 0 
0 0 0 0 0 0 0 0 0 
0 0 0 0 0 0 0 0 0 
0 0 0 0 0 0 0 0 0 
0 0 0 0 0 0 0 0 0 
0 0 0 0 0 0 0 0 0 
0 0 0 1 0 0 0 0 0 
0 0 0 0 0 0 0 0 0 
0 0 0 0 0 0 0 0 0 
0 0 0 0 0 0 0 0 0 
0 0 0 0 0 0 0 0 0 
0 0 0 0 0 0 0 0 0 
0 0 0 0 0 0 0 0 0 
0 0 0 0 0 0 0 0 0 
0 0 0 0 0 0 0 0 0 
0 0 0 0 0 0 0 0 0 
0 0 0 0 0 0 0 0 0 
0 0 0 0 0 0 0 0 0 
0 0 0 0 0 0 0 -1 0 
0 0 0 0 0 0 0 0 0 
1 0 0 0 0 0 0 0 0 
0 0 0 0 0 0 0 0 0 
0 0 0 0 0 0 0 0 0 
0 0 0 0 0 0 0 -1 0 
0 0 0 0 0 0 0 0 0 
0 0 0 0 0 0 0 0 0 
1 0 0 0 0 0 0 0 0 
0 0 0 0 0 0 0 0 0 
0 0 0 0 0 0 0 0 0 
0 0 0 0 0 0 0 0 0 
0 0 0 0 0 0 0 0 0 
0 0 0 0 0 0 0 0 0 
0 0 -1 0 0 -1 0 0 0 
0 0 0 1 0 0 0 0 0 
0 0 0 0 0 0 0 0 0 
0 0 0 0 0 0 0 0 0 
0 0 -1 0 0 0 0 0 -1 
0 0 -1 1 0 -1 0 0 -1 
0 0 -1 0 0 0 0 0 -1 
0 0 0 0 0 -1 0 0 0 
0 0 0 0 0 0 0 0 0 
0 0 0 0 0 0 0 1 0 
0 1 1 0 0 0 0 0 0 
0 0 1 0 0 0 0 0 0 
0 0 0 0 0 0 0 0 0 
0 0 0 0 0 1 0 0 1 
0 0 0 0 0 0 0 0 1 
0 1 0 0 0 0 0 0 0 
0 1 0 0 0 0 0 0 0 
0 0 0 0 0 0 0 0 0 
0 0 1 0 0 0 0 0 0 
0 0 0 0 0 0 0 0 1 
0 0 0 0 0 0 0 1 0 
0 0 0 0 0 0 0 0 0 
0 0 0 0 0 0 0 0 0 
0 0 0 0 0 0 0 0 0 
0 0 0 0 0 0 0 0 0 
0 0 0 0 0 0 0 0 0 
0 0 0 0 0 0 0 0 0 
0 1 0 0 1 0 0 0 0 
0 0 0 0 0 0 0 0 0 
0 0 0 0 0 0 0 0 0 
0 0 0 0 0 0 0 0 0 
0 0 0 0 0 0 0 1 0 
0 0 0 0 0 0 0 0 0 
0 0 0 0 0 0 -1 0 0 
0 0 0 0 0 0 0 0 0 
0 0 0 0 0 0 0 0 0 
0 0 0 0 0 0 0 0 0 
0 1 0 0 0 0 0 0 0 
0 0 0 0 0 0 0 0 0 
0 0 0 0 0 0 0 0 0 
0 0 0 0 0 0 0 0 0 
0 0 0 0 0 0 0 0 0 
0 0 0 0 0 0 0 0 0 
0 0 0 0 0 0 0 0 0 
0 0 0 0 0 0 0 0 0 
0 0 0 0 0 0 0 0 0 
0 0 0 0 0 0 0 0 0 
0 0 0 0 0 0 0 1 0 
0 0 0 0 0 0 0 0 0 
0 0 0 0 0 0 0 0 0 
-1 0 0 0 0 0 0 0 0 
0 0 0 0 0 0 0 0 0 
0 0 0 0 0 0 0 0 0 
0 0 0 0 0 0 0 1 0 
0 0 0 0 0 0 0 0 0 
0 0 0 0 0 0 0 0 0 
0 0 0 0 0 0 0 0 0 
0 0 0 0 0 0 0 0 0 
0 0 0 0 0 0 0 0 0 
0 0 0 0 0 0 0 0 0 
0 0 0 -1 0 0 0 0 0 
0 0 0 0 0 0 0 0 0 
0 0 0 0 0 0 0 0 0 
0 0 0 0 0 0 0 0 0 
0 0 0 0 0 0 -1 1 0 
0 0 0 0 0 0 0 0 0 
0 0 0 0 0 0 0 0 0 
0 0 0 0 0 0 0 0 0 
0 0 0 0 0 0 0 0 0 
0 0 0 0 0 0 0 0 0 
0 0 0 0 0 0 0 1 0 
0 0 0 -1 0 0 0 0 0 
0 0 0 0 0 0 0 0 0 
0 0 0 0 0 0 0 0 0 
0 0 0 0 0 0 0 0 0 
0 0 0 0 0 0 0 0 0 
0 0 0 0 0 0 0 0 0 
0 0 0 0 0 0 0 0 0 
0 0 0 0 0 0 -1 0 0 
0 0 0 -1 0 0 0 0 0 
0 0 0 0 0 0 0 0 0 
0 0 0 0 1 0 -1 0 0 
0 0 0 0 0 0 0 0 0 
0 0 0 0 0 0 0 0 -1 
0 0 0 0 0 0 0 0 0 
0 0 0 0 0 0 0 0 0 
0 0 0 0 0 0 0 0 -1 
0 0 0 0 0 -1 0 0 -1 
0 0 0 0 0 0 0 0 0 
0 0 0 0 0 0 0 0 0 
0 0 0 0 0 0 0 0 -1 
0 0 0 0 0 -1 0 0 0 
0 0 0 0 0 0 0 0 0 
0 0 0 0 0 1 0 0 0 
0 0 0 0 0 0 0 0 0 
0 0 1 0 0 0 0 0 0 
0 0 1 0 0 0 0 0 0 
0 0 0 0 0 0 0 0 0 
0 0 1 0 0 1 0 0 0 
0 0 0 0 0 0 0 0 0 
0 0 0 0 0 0 -1 0 0 
0 0 0 0 0 0 0 0 0 
0 0 0 0 0 0 0 0 0 
0 0 0 0 0 0 0 0 0 
0 0 0 0 0 0 0 0 0 
0 0 0 0 0 0 0 0 0 
0 0 0 0 0 0 0 0 0 
0 0 0 0 0 0 0 0 0 
0 0 0 0 0 0 0 0 0 
0 0 0 0 0 0 0 0 0 
0 0 0 0 0 0 0 0 0 
0 0 0 0 0 0 0 0 0 
0 0 0 0 -1 0 0 0 0 
0 0 0 0 0 0 0 0 0 
0 0 0 0 0 0 0 0 0 
-1 0 0 0 0 0 0 0 0 
0 0 0 0 0 0 0 0 0 
0 0 0 0 -1 0 0 0 0 
0 0 0 0 0 0 0 0 0 
0 0 0 0 0 0 0 0 0 
0 0 0 0 0 0 0 0 0 
0 0 0 0 0 0 0 0 0 
0 0 0 0 0 0 0 0 0 
0 -1 0 0 0 0 0 0 0 
0 0 0 0 0 0 0 0 0 
0 0 0 0 0 0 0 0 0 
0 0 0 0 0 0 0 0 0 
0 0 0 0 0 0 0 0 0 
0 0 0 0 0 0 0 0 0 
0 0 0 0 0 0 0 0 0 
0 0 0 0 -1 0 0 0 0 
0 0 0 0 0 0 0 0 0 
0 0 0 0 0 0 0 0 0 
0 0 0 0 0 0 0 0 0 
0 0 0 -1 0 0 0 0 0 
0 0 0 0 0 0 0 0 0 
0 0 0 0 -1 0 0 -1 0 
0 0 0 -1 -1 0 0 0 0 
0 0 0 0 0 0 0 0 0 
0 0 0 0 0 0 0 0 0 
0 0 0 0 0 0 0 0 0 
0 0 0 0 0 0 0 0 0 
0 0 0 0 0 0 0 0 0 
0 -1 0 0 0 0 0 0 0 
0 0 0 0 0 0 -1 0 0 
0 0 0 -1 0 0 0 0 0 
0 0 0 -1 0 0 0 0 0 
0 0 0 0 0 0 0 0 0 
0 0 0 0 0 0 0 -1 0 
0 0 0 0 0 0 0 0 0 
0 0 0 0 0 0 0 0 0 
0 0 0 0 0 0 0 0 0 
0 0 0 0 0 0 0 0 0 
0 0 0 0 -1 0 0 0 0 
0 0 0 -1 0 0 0 0 0 
0 0 0 0 0 0 0 0 0 
0 0 0 0 0 0 0 0 0 
0 0 0 0 0 0 0 0 0 
0 0 0 0 0 0 0 0 0 
0 -1 0 0 0 0 0 0 0 
0 0 0 0 0 0 0 0 0 
0 0 0 0 0 0 0 0 0 
0 0 0 -1 0 0 0 0 0 
0 0 0 0 0 0 0 0 0 
0 0 0 0 0 0 0 0 0 
0 -1 0 0 0 0 -1 0 0 
0 0 0 0 0 0 0 0 0 
0 0 0 -1 0 0 0 0 0 
0 0 0 0 0 0 0 0 0 
0 0 -1 0 0 0 0 -1 0 
0 0 0 0 0 0 0 0 -1 
0 0 0 0 0 -1 0 0 0 
0 0 -1 0 0 0 0 0 -1 
0 0 0 0 0 0 0 0 -1 
0 0 -1 0 0 -1 0 0 0 
0 0 0 0 -1 0 0 0 0 
0 0 0 
v 3 1000 double
-0.54870624478 -0.31210331269 -0.51726027672 -0.39488165188 -0.6030985516 -0.17099570291 -0.47842370058 -0.15953942236 0.67731200394 
-0.26361445125 0.20291838254 -0.56237964108 -0.23246400219 -0.23095941478 -0.24534382463 -0.47285327585 -0.3197553903 -0.30750375183 
-0.24556431076 0.66662736609 0.012498901776 0.2196207749 -1.6924726027 -0.76268063865 -0.50913584013 -0.5858881076 -0.32143434611 
-0.57298688135 -0.37062482582 -0.23662361655 -0.51937749211 -0.14301102815 -0.11839255081 -0.27011127032 -0.34378580838 0.33008880505 
-0.38477427034 -0.00068677578173 0.027329595681 -0.35832993702 0.56830504694 0.68415637319 -0.16456534281 -0.21683038681 -0.0089732224645 
0.68302080708 1.0068797213 0.42017454746 0.49966880399 1.7801576603 -0.65972298259 -0.70466386762 -1.140928148 -0.0030525630694 
0.27826011172 0.046055179555 -1.6894771444 1.5699385587 0.6425942117 -0.89658144304 0.38548815582 -0.22592931349 -0.89224101208 
-0.33967965897 -0.26939178312 -0.31892499299 -0.49341946151 0.099222522682 0.83234782825 0.035192844048 0.33926534207 -0.766750692 
0.28039565297 -0.0055498360177 -0.31132629244 0.34946596828 -0.7299267609 -0.91757884884 -0.36549616169 -0.78768333108 0.2625248125 
-0.21314289229 0.00062656812727 -0.092760458352 0.20007660932 -0.40947310757 -1.7599993819 -0.60243627171 -0.88444829459 -0.041425091166 
0.33107032104 0.19996452662 -1.7196264714 -0.3585976893 -1.8602960459 0.96853205643 -1.0017770495 -1.0221583468 -0.12879381332 
-0.83526488949 0.059539775108 0.14994600201 0.57355795145 0.29364070092 -1.9818764101 -0.1586997275 -1.2637883328 0.33897863315 
0.3188912127 -0.84569188489 -0.89825608121 0.67733197498 0.34658156821 -1.3225545835 -1.0374459451 -1.1462175589 -0.54539884186 
-0.23323816495 -0.33267393684 0.90825233902 -1.3038464752 -0.8700346594 -0.38897464358 1.4407863124 -1.0310164282 -1.1302428288 
0.43222358463 -0.20767479303 0.047974908703 -0.41207896929 -0.21079910678 -0.062901731431 -0.45298464826 -0.80559966944 0.12666571283 
0.3358213942 -0.61642953579 -1.7815022292 0.54283527441 0.27769796883 -1.6657737879 0.39720352251 0.3516691343 -1.1977175079 
-0.50776331898 -1.36318248 -0.2296669569 -0.14604130805 0.20170074297 0.38865444652 0.7015430316 0.18819792818 -1.7831302828 
-0.071134329441 -0.81660456954 -1.2628403165 -0.68988123766 -0.46036607664 0.1495202996 0.13231276777 0.061959783533 0.47562543408 
0.87656728053 -1.0959014441 -0.5613552705 0.68297253689 0.20191513251 -0.29458665468 0.36155570515 -0.13105615365 -0.8600811515 
-0.43798895458 -0.56957106098 0.35452206816 -0.22889085152 -0.68580720457 0.094128781515 -0.65432399216 -0.55114237814 -0.13252033426 
0.71622115988 0.26267925282 -1.3799516613 -0.029225677165 0.24283525013 -1.8115010391 -0.80278869346 -0.8334705525 -0.19110056925 
-0.14912755419 -0.29750886404 -0.99953761148 -0.82357271246 -0.93036154006 -0.14918820742 0.031692460781 -0.65103071077 -0.8632128701 
-0.42252715376 -0.25760873992 -0.66916803186 -0.38495842846 -0.69814069089 -1.2981683455 0.6496084764 -0.89964690183 -1.6370280597 
0.99231892387 -0.50261754575 0.12375165542 -0.083727723024 -0.59205051092 0.50740667617 0.48103330936 -0.73991199915 -0.85676687935 
0.84882580284 -0.11799435925 -0.53044540281 0.23312355839 -0.24125994906 -0.66949991413 0.46219510719 0.1265902554 -0.80948913291 
-0.82772363569 -0.30106205231 0.3689230555 0.26815800937 -0.93864306985 -0.16075462986 -0.18597558713 -0.33653027182 -0.85101709808 
0.23328022386 -0.57701742261 -1.2152081917 0.037824134928 -0.061205515334 -1.6183537122 0.2446795979 -0.94346517927 0.57408571364 
0.12015333895 -0.93055452104 -0.17932647021 0.065307444718 0.091100738362 -1.9592407032 0.98355871594 -0.61180273409 -1.2451103489 
-0.39306672524 -0.53486448357 -0.39984479338 0.2073476469 -0.29935804882 -1.7643860188 0.38594919022 0.40950194295 -0.42546161661 
-0.11147047369 -0.95929969784 0.38981682464 0.50085641175 -0.012439920802 -0.64727756516 0.4607082221 -0.2274924648 -0.17157999531 
-0.31528270231 -1.3688351291 -1.072916326 0.20617063012 -0.70098077061 -1.1277864743 0.44185678838 0.17485765999 -0.33363137725 
0.22630227627 -0.2714528648 -0.54451888956 0.59810024546 -0.94971574639 0.37228518364 -0.35548208724 -0.44221798824 -0.49688097376 
0.62075892541 -1.0578812006 0.784721617 0.25697415562 -0.29558848067 -1.7695932732 0.032595088504 -0.94688605694 0.15218989949 
0.10798692581 0.12758259635 -0.63087343814 1.509758671 -0.66012368789 0.29738629412 0.059707854758 -0.95239769289 0.21652591414 
0.88670824905 -0.22735425117 -0.85687575059 -0.12610323559 -0.38402370673 -0.80003175251 0.37263423033 -0.741640937 0.57931016904 
-0.089571415321 -0.031320731153 -0.59388155911 0.062337008429 0.98092009067 -1.3092547549 -0.02578693008 0.58710414151 -1.1171497887 
0.079864040786 0.2247657907 0.21866258862 0.992303449 -0.38790701219 0.72263866053 -0.44210401538 -0.0053561985901 -0.24663827593 
-0.01550121564 -0.12244589799 0.82272517074 0.66624072808 0.17795861347 0.5291585994 -0.47066727592 0.20765561517 -0.7742339447 
0.92553285829 -0.17120627426 -1.0389120721 0.4737385107 -0.99255385584 1.01154613 1.0372318018 -0.11804641014 0.021934452049 
-0.042796479648 -0.33863568737 -0.20729991149 0.52173092098 -0.99320989173 -1.0719301408 0.69564109657 -0.30636332849 -0.28550146348 
-0.66815582787 1.0343621397 -0.0084622451993 -0.47269665975 0.024716638852 -0.077830892341 -0.41275935348 0.13866581973 -0.86043336582 
-0.70844703687 0.079597628491 0.019583771278 -0.55999802003 -0.16506643365 0.27098377062 -0.66153626078 -0.93552928445 1.0436387027 
0.061238250042 0.013043751484 -0.36190913677 0.28875057073 -0.068606872449 0.34880348567 0.34007292404 -0.24768075992 0.1464724786 
0.97931743654 -0.41008075988 0.031768850027 0.51672258141 -0.27617357998 -0.42803461003 1.1530378694 -0.50753282384 1.1629915621 
0.90644882944 0.4606938261 -0.36412120464 0.94042123549 0.24113847287 -0.59918648932 0.65325112282 -0.37096300533 1.0967806722 
1.206849524 -0.1980059633 -0.55470450919 -0.37432114899 0.065320911996 -1.3935831366 -0.66474080701 0.3063793499 0.47725108135 
-0.60961181451 0.51827997464 0.20736645085 -1.3978933304 0.13159192227 -0.81972823195 -0.65407852545 0.35540752771 -0.95275949684 
0.21485148658 -0.96284414788 1.2470027084 0.015418798116 0.0024705997712 -0.15348780615 -0.33630896553 -0.35322576454 -0.00841021775 
-0.24911939227 0.71752090179 0.19466009631 0.44186010629 0.17642593701 -0.31095340452 0.74032611743 -0.30908654991 1.2562073769 
0.83361271435 -0.13709289829 -0.96602598294 -0.46033333566 -0.034766547746 0.47346414036 1.4302350582 0.17988888917 -0.12225342127 
-0.022213856029 0.49647500264 -0.51468583461 1.3259086646 0.57316880712 -0.043112739345 0.34235346401 -0.42501058884 -1.6179966628 
0.4515412699 -0.43244800161 -1.6398813846 -0.64936374315 0.23009587405 0.16246561432 -0.091787172372 0.21812729289 -0.029226786026 
0.28803141597 -0.94494898126 -0.92360336088 0.18125516157 0.23102775152 0.90226111021 0.8660661645 -0.57049522217 0.74699759043 
0.17946797535 0.23805480869 0.56033342117 0.68412085191 0.39738517037 0.056388045555 0.26214899204 0.067345122785 -0.091346196029 
-0.25110239359 1.3415258177 0.63414621068 -0.063354076108 0.45605176684 -0.54637490654 0.016794000515 0.055083249458 -0.91951473856 
0.23657622794 0.29109601036 0.25831473421 0.15242804588 -0.62549299693 -1.0556056691 0.20290088146 -0.09892914981 -0.33677341606 