# vtk DataFile Version 4.2
Generated by LIGGGHTS
ASCII
DATASET POLYDATA
POINTS 1000 float
0.892551 0.452966 0.340555 2.28688 0.560991 0.545541 3.9523 0.999235 0.247998 
4.98967 0.804877 0.476584 1.83591 1.46235 0.606977 2.9979 1.29657 0.224291 
1.08032 2.20481 0.597802 2.02955 2.32039 0.0869862 0.249336 2.70913 0.327517 
3.16426 2.88029 0.261417 0.339039 3.70883 0.178613 1.4854 3.14121 0.313696 
4.2121 3.25141 0.267574 1.26142 4.09422 0.114487 2.25278 4.10232 0.316905 
1.68537 4.9472 0.504806 4.1362 4.61911 0.0852702 0.143576 0.373329 1.01828 
1.08835 0.0970321 1.2513 3.26455 0.572587 0.888567 2.5672 1.17413 1.27197 
0.592494 1.24873 0.864085 4.53359 1.64075 0.737965 0.196195 2.12546 1.11205 
2.77935 2.46864 1.08512 3.58312 1.95824 0.766809 1.82561 2.73573 1.23497 
3.67863 3.08244 1.09352 0.790657 3.13067 1.04077 2.53839 3.44291 1.00402 
4.68857 3.1804 1.12801 0.707898 4.2253 1.15286 1.60561 3.84285 1.01905 
0.0828525 4.94027 0.854595 3.34239 4.43854 0.819075 4.85471 4.85032 0.773803 
2.13743 0.0356576 1.38473 3.86213 0.0108316 1.67116 0.592263 0.801238 1.83057 
1.55501 0.962269 1.43878 4.23833 0.927339 1.42024 1.08508 1.84469 1.54451 
3.44794 1.50994 1.62294 2.36375 1.96209 1.83775 3.43885 2.45689 1.95331 
4.29725 2.31688 1.42728 0.546601 2.62097 1.89832 1.71114 3.38075 1.96441 
3.07294 3.36403 1.8171 4.2001 4.37183 1.33871 0.653925 4.84432 1.94875 
1.77985 4.88865 1.53079 3.24136 4.44139 1.8119 1.09316 0.422793 2.62743 
4.57526 0.431794 2.44073 2.25989 0.748329 2.11773 3.63935 0.75543 2.40238 
0.359371 1.63381 2.34049 1.32156 1.38599 2.43023 2.9591 1.4815 2.47936 
4.75742 1.69356 2.20001 1.55844 2.37436 2.25689 2.54169 2.67977 2.4992 
4.37991 2.8662 2.29585 0.669714 3.58907 2.10586 2.41355 4.04966 2.32684 
3.99834 3.78859 2.13605 4.90928 4.20421 2.07594 1.38501 4.42416 2.53188 
2.20622 0.0720801 2.85215 0.385843 1.10189 3.15681 2.14752 1.1731 3.01444 
4.72964 1.22711 3.06848 3.88256 1.6575 2.80263 0.077533 2.23695 3.08102 
2.29603 2.12027 3.28712 0.924095 2.91612 2.79893 3.54976 2.58285 2.9432 
2.05048 3.45099 3.11646 3.10586 3.44832 2.76923 4.02405 3.48066 3.12718 
0.242793 4.21262 2.76105 3.45562 4.37117 2.78423 2.8017 4.94617 3.30292 
4.44956 4.63343 2.90526 0.880079 0.199915 3.58061 2.07192 0.451144 3.76989 
1.28949 1.10174 3.58756 2.82231 1.13849 3.94883 3.66652 0.666495 3.44946 
4.56899 0.726445 3.89844 4.81554 1.71258 3.92652 1.01398 2.0387 3.38143 
3.16102 2.05064 3.77063 0.530565 2.85506 3.71621 2.80633 2.986 3.582 
4.50643 2.62044 3.65977 0.871439 3.74156 3.38567 3.05209 3.96046 3.60203 
4.46401 4.01035 3.90244 1.07451 4.91635 3.63722 1.92818 4.46977 3.38682 
3.71309 4.69102 3.6982 1.33205 0.41524 4.48016 2.76208 0.306904 4.48104 
3.79233 0.397987 4.44126 0.192288 0.753785 4.05228 0.839886 1.26842 4.60032 
1.9115 1.35064 4.3036 3.8716 1.41988 4.07149 2.0979 2.48422 4.18396 
4.47337 2.34168 4.61888 0.929143 2.80551 4.63676 2.76089 3.11468 4.55921 
3.63944 2.748 4.28451 1.50532 3.41506 4.11547 3.57564 3.72954 4.41242 
0.783123 4.20051 4.27062 2.28793 4.05313 4.27171 2.95855 4.98416 4.28968 
4.32084 4.67524 4.63236 0.507445 0.269437 5.1914 3.32851 0.0506534 5.25479 
3.39313 1.17285 4.913 4.24616 0.755715 5.26112 2.43244 1.26401 5.12405 
1.43044 1.98336 4.95282 2.39314 2.2404 5.07384 3.36448 2.39057 5.21655 
1.8443 3.04342 4.96425 1.11512 3.70039 5.06524 4.24937 3.2544 4.96482 
0.134017 3.8234 4.96785 2.09526 3.94498 5.26043 2.97786 4.28145 4.97644 
0.33768 4.77705 5.18176 2.19188 4.89107 4.96936 1.91252 0.160974 5.9444 
1.53753 0.924339 5.38434 2.72754 0.814984 5.94207 0.546884 1.42588 5.60771 
1.50284 1.77307 5.93343 3.85317 1.55384 5.71754 4.56233 2.25664 5.59874 
1.00008 2.58516 5.63426 1.69317 3.24776 5.91993 3.12627 3.34793 5.44327 
4.57864 3.21267 5.90068 0.60935 4.09994 5.81314 3.82054 4.04211 5.45247 
4.76998 4.25166 5.64647 1.29355 4.96612 5.38911 3.88922 0.344979 6.15544 
0.920248 0.811722 6.38048 1.91575 1.04459 6.48056 4.48195 1.14256 6.37911 
2.88016 1.79193 6.00318 0.615716 2.00045 6.42349 3.56895 2.47878 6.2124 
4.43621 2.47962 6.64969 0.182743 2.86929 6.13888 1.35077 2.64595 6.62505 
2.52244 2.7133 6.05757 0.924234 3.53775 6.54031 3.20112 3.37005 6.42924 
1.56903 4.2183 6.04271 2.37426 3.95171 6.57321 0.880369 4.82734 6.41484 
2.28566 4.88838 6.11579 3.17598 4.423 6.13848 4.17828 4.44368 6.42651 
0.026118 0.296741 6.98889 1.44664 0.176505 6.9349 2.47107 0.208787 6.98197 
3.46458 0.0179525 7.02959 4.58202 0.315926 6.92613 3.43242 1.08767 6.67104 
3.05811 1.83134 7.26267 4.08665 1.70219 7.14505 1.24199 1.95712 7.32653 
2.17322 2.06717 6.82751 2.43881 3.03688 6.98199 0.244627 3.34696 7.257 
1.61149 3.50424 7.24309 4.15217 3.47919 6.7617 0.104507 4.13399 6.67163 
1.58752 4.45714 7.00258 3.13502 4.46917 7.16036 4.45687 4.81619 7.31445 
1.80475 0.201374 7.95798 0.534179 1.00902 7.47315 1.47702 1.19287 7.91255 
2.32047 1.11503 7.3907 3.22104 0.780858 7.65992 4.25646 0.801776 7.74206 
0.377067 1.89693 7.90925 4.95386 2.1531 7.46454 0.862822 2.77911 7.79168 
2.7606 2.53614 7.912 3.96486 2.74597 7.48313 3.25118 3.4137 7.4092 
4.86711 3.47587 7.45303 0.882672 3.96535 7.7383 2.5688 3.92819 7.88891 
4.0039 4.00557 7.70809 0.367737 4.74381 7.40033 1.41323 4.86041 7.89176 
2.62939 0.523695 8.41548 4.89104 0.106057 8.06877 0.205308 0.897489 8.52723 
2.86533 1.5144 8.28943 3.84376 1.62136 8.14744 1.90202 2.03964 8.38895 
1.97339 3.12775 8.07869 4.40103 2.96059 8.34999 3.1888 3.36055 8.47161 
0.0250017 3.86733 8.22778 1.47897 4.06446 8.51575 4.86441 4.20705 8.26276 
0.633626 4.59341 8.50213 2.26251 4.70939 8.41344 3.30065 4.74175 8.19136 
1.2336 0.650982 8.70288 2.57978 1.04441 9.30099 4.28011 0.666005 8.75344 
1.04725 1.63266 8.70414 3.63394 1.31104 9.16 2.53546 2.04367 9.22696 
4.32522 2.09658 8.88427 0.568718 2.50705 8.68364 1.93284 2.81147 9.01792 
1.27969 3.50325 9.31156 2.34718 3.71714 8.85124 0.207289 4.07768 9.24314 
4.03394 3.84253 8.70579 3.19636 4.38671 9.11579 1.56253 0.315231 9.58123 
2.6599 0.122565 9.73376 3.5962 0.281446 9.45871 4.53692 0.370331 9.71556 
0.6853 1.31703 9.88321 1.63234 1.54431 9.53206 4.70217 1.34175 9.58353 
1.09366 2.46312 9.62214 3.48048 2.19601 9.59487 4.40573 2.25441 9.88093 
0.299739 3.1035 9.41726 4.99564 2.84665 9.3393 2.4073 3.28553 9.75259 
3.66599 3.16098 9.42505 3.29436 3.89603 9.98441 4.8444 4.18711 9.45845 
0.599802 4.78124 9.82878 2.0891 4.46621 9.41042 1.0023 6.08408 0.496631 
2.76065 5.89326 0.370819 4.38804 5.70527 0.462694 0.225234 6.68996 0.239331 
1.93275 6.48487 0.344483 1.12078 7.10288 0.141229 3.67448 7.38181 0.240482 
4.63686 6.99383 0.359691 2.17973 8.16469 0.513714 3.09452 8.1935 0.130148 
3.94677 8.31055 0.61816 2.59114 9.13558 0.420317 1.63223 9.8188 0.462742 
3.45869 9.70015 0.291598 0.990328 5.32949 1.14317 2.72606 5.17761 1.13529 
3.7219 5.31778 1.09478 0.155855 5.92059 1.0557 1.92957 5.79521 1.07092 
2.68499 6.61878 1.03966 3.6621 6.4786 0.726832 0.486021 7.36534 1.0269 
1.63631 7.436 0.939405 4.15094 7.39994 1.12127 2.82035 7.5916 1.0253 
4.87615 7.97537 0.746031 0.808014 8.27524 0.76782 3.04679 8.54835 1.07495 
0.706146 9.29513 0.774161 1.62524 8.9122 0.859877 3.92193 9.17978 1.11664 
4.82323 8.98723 0.737837 3.0372 9.62098 1.25843 4.47402 9.97927 0.688919 
1.36974 5.95901 1.85896 3.25073 5.95159 1.70608 0.417513 6.67684 1.74654 
2.30649 6.27447 1.88009 4.30314 6.29199 1.50898 1.58466 7.01199 1.83936 
3.44322 6.92976 1.64234 4.97393 7.29474 1.69715 1.05635 7.86308 1.6738 
2.01215 8.08838 1.61057 3.4706 7.91593 1.71713 4.43738 8.18632 1.65646 
0.195691 8.75604 1.42499 1.14013 8.84917 1.72678 0.370285 9.81664 1.87787 
4.74975 9.40795 1.65216 2.5295 5.04814 2.23114 4.23657 5.24089 2.15763 
3.82994 6.3997 2.39046 4.84701 6.53542 2.37877 1.00717 7.40471 2.55594 
2.14614 7.31459 2.58955 3.14779 7.29186 2.54922 4.10393 7.35813 2.27662 
0.284811 8.11399 2.24304 2.65121 8.15275 2.51787 4.56262 8.41861 2.6631 
0.593581 9.1123 2.54935 2.22501 8.94785 2.10812 3.21055 8.82019 2.02137 
4.05605 9.22078 2.35682 1.55032 9.67813 2.10885 2.98499 9.85616 2.25362 
0.926603 5.42684 2.70199 3.57745 5.55391 2.85561 2.78347 6.1452 2.73042 
4.5402 5.78774 2.98872 0.639062 6.53063 2.85928 1.79891 6.30161 2.746 
3.43029 6.63892 3.28179 4.55852 7.29852 3.33423 0.420502 7.98763 3.23754 
3.73624 7.8912 3.12044 1.75641 8.44787 2.84261 2.7838 9.27677 3.0387 
3.64868 8.87448 3.31509 1.39117 9.43244 3.06575 4.117 9.85945 3.08991 
0.136971 5.03516 3.33753 4.21237 5.5121 3.96875 1.18839 5.99848 3.46781 
2.10927 5.64014 3.53969 3.23732 5.86052 3.93679 2.45327 6.55239 3.7413 
4.21031 6.52769 3.87911 0.135046 7.15016 3.70192 1.35741 6.97813 3.38541 
2.90614 7.42076 3.60755 4.27728 7.98727 3.97443 1.13575 8.57452 3.61231 
2.37868 8.19233 3.95128 4.61457 8.96734 3.52299 0.097185 9.58635 3.57126 
3.41866 9.7474 3.77427 1.51335 5.44749 4.36654 0.468461 5.65672 4.04555 
4.99361 6.05864 4.28923 0.856219 6.6183 4.16696 1.77237 6.40628 4.4978 
3.2742 6.75066 4.36762 2.29192 7.26011 4.45053 0.571119 7.77775 4.34384 
1.50572 8.18194 4.44999 3.40472 8.34583 4.29487 0.0849055 8.89632 4.629 
1.56548 9.18253 4.28127 2.74123 9.20485 4.25883 0.685469 9.65992 4.3983 
4.44714 9.67698 4.2293 0.380493 5.73895 5.02263 1.33173 6.02372 5.31845 
2.51794 5.7782 4.68441 3.7907 5.65972 4.8669 4.84444 5.93742 5.31294 
0.193662 6.81645 4.86792 2.4005 6.67238 5.25974 4.20234 6.56318 4.90063 
1.33131 7.25634 4.77436 3.13903 7.58931 4.88479 4.24724 7.55256 4.87638 
0.783346 8.35064 5.13232 2.59442 8.4241 4.93243 4.34718 8.53362 4.83508 
1.63655 8.95823 5.2669 3.64187 9.23417 4.77771 2.00782 9.90826 4.99058 
3.04658 5.23596 5.37851 4.28351 5.1073 5.53329 2.22438 5.76611 5.61095 
3.24449 6.22471 5.57517 0.480766 6.70028 5.80208 1.53057 6.93421 5.76119 
3.15612 7.48473 5.87876 3.98666 6.89676 5.81995 4.93211 7.13505 5.49403 
1.93745 7.768 5.3919 2.45242 8.42553 5.96257 3.48758 8.35489 5.53053 
2.6303 9.28029 5.43993 4.69281 8.87399 5.80063 1.04071 9.61655 5.72588 
4.24941 9.71225 5.42412 4.70948 5.2656 6.44695 0.903828 5.82667 6.20599 
2.86073 5.65761 6.31774 3.67125 6.15486 6.52992 4.62391 6.22728 6.2759 
[...]
POINT_DATA 1000
FIELD FieldData 7
id 1 1000 int
9 530 528 773 509 531 519 20 526 
11 255 600 595 109 510 503 527 16 
3 5 514 2 18 757 505 506 522 
12 17 501 513 504 1 269 6 770 
146 8 748 14 502 518 13 523 554 
10 302 41 21 516 909 529 4 34 
35 548 555 23 534 544 524 541 7 
38 508 547 537 794 626 640 545 22 
533 552 536 26 30 557 24 543 546 
283 532 542 550 644 29 71 33 170 
40 47 551 540 42 31 279 37 556 
558 67 32 28 561 560 654 570 49 
63 535 539 58 68 53 25 36 44 
69 45 54 559 55 187 51 59 80 
62 70 538 48 50 817 563 568 572 
669 43 220 566 588 57 84 61 569 
567 66 52 311 573 575 345 571 663 
64 578 582 583 337 574 96 303 585 
589 99 101 103 592 91 56 92 102 
213 95 202 699 85 78 97 74 86 
580 79 350 81 83 339 77 591 89 
118 579 590 72 576 82 88 833 93 
125 87 584 75 593 586 581 98 694 
120 870 127 602 104 107 73 105 110 
108 115 598 233 601 235 119 604 123 
116 128 599 608 111 605 597 117 272 
106 594 112 735 507 633 606 607 372 
610 121 512 365 846 603 114 515 113 
142 596 612 630 143 872 634 152 723 
984 625 231 617 133 520 140 130 511 
517 892 129 135 151 148 147 616 134 
629 611 144 132 138 149 631 141 150 
632 613 139 131 620 622 614 383 641 
624 651 623 136 173 912 402 168 627 
653 423 659 650 657 615 160 171 161 
163 646 647 157 174 636 27 158 658 
166 156 642 645 159 648 652 639 154 
155 167 172 418 668 656 162 655 643 
164 920 682 637 153 649 169 660 436 
638 190 450 420 177 681 193 180 185 
199 182 448 673 661 677 192 948 666 
194 60 674 198 178 680 189 181 686 
679 684 676 670 662 562 207 683 664 
675 183 179 196 703 184 671 191 678 
188 685 667 195 469 709 211 215 970 
701 689 176 690 206 665 200 205 197 
706 707 702 577 203 219 692 693 218 
210 214 209 700 201 216 704 710 688 
698 224 691 741 708 222 705 238 221 
212 122 587 217 230 208 374 695 743 
713 719 721 714 737 720 225 992 227 
727 733 696 715 717 240 742 228 739 
242 738 730 239 736 991 734 234 237 
725 732 726 124 244 226 223 521 247 
404 628 137 618 716 635 229 243 728 
245 246 722 724 236 718 248 843 252 
251 259 767 745 866 525 268 369 744 
260 609 752 381 891 758 747 761 765 
764 754 760 254 261 262 382 904 257 
250 768 253 258 15 753 19 287 769 
263 265 772 762 908 413 756 790 746 
763 282 778 755 781 286 267 281 766 
788 791 300 780 784 785 777 775 782 
293 783 277 292 276 786 275 427 298 
818 290 306 553 289 774 285 296 274 
294 793 789 284 776 288 301 792 779 
291 809 295 325 813 816 323 549 280 
313 278 314 811 406 321 408 320 806 
319 324 808 308 305 812 318 797 796 
807 316 310 322 317 565 934 943 821 
810 46 832 355 802 307 831 798 815 
343 814 805 312 837 315 801 335 827 
564 830 333 823 349 340 332 94 819 
804 348 952 835 864 800 334 342 329 
338 353 825 354 331 346 100 327 336 
341 351 824 829 344 347 996 822 826 
858 330 848 90 836 359 326 377 352 
834 328 466 855 989 373 126 857 856 
852 854 840 869 76 838 845 850 371 
844 861 839 364 363 362 863 847 867 
357 868 270 849 851 367 360 378 859 
1000 865 853 490 860 750 862 256 356 
368 366 271 842 841 361 249 358 266 
375 380 389 759 990 385 875 391 390 
400 895 873 399 396 889 264 273 749 
384 403 871 395 878 884 887 405 387 
881 879 886 876 896 145 898 424 874 
393 877 888 883 899 885 621 894 398 
893 751 386 299 432 437 388 882 927 
922 397 410 901 426 411 422 921 905 
906 928 911 414 297 419 915 415 923 
431 175 916 914 925 412 917 926 429 
438 435 39 417 903 900 918 907 919 
924 439 416 461 434 409 407 787 910 
433 430 902 939 459 425 942 945 165 
447 457 940 944 937 421 951 446 913 
672 304 309 449 428 443 442 453 947 
941 444 186 938 440 950 456 946 454 
795 803 462 929 452 799 445 460 933 
468 470 451 930 936 455 932 441 458 
935 949 65 472 960 962 953 204 465 
964 971 954 474 931 965 828 464 967 
977 697 476 467 966 711 687 958 976 
471 959 820 972 473 478 379 712 475 
489 956 481 955 968 957 974 961 477 
479 994 499 969 963 463 985 995 497 
973 493 494 998 999 485 975 491 370 
988 241 488 483 376 979 978 495 486 
729 480 986 496 487 740 484 482 492 
997 980 890 500 771 498 619 401 981 
392 897 394 232 983 880 982 731 987 
993 
type 1 1000 int
1 2 2 2 2 2 2 1 2 
1 1 2 2 1 2 2 2 1 
1 1 2 1 1 2 2 2 2 
1 1 2 2 2 1 1 1 2 
1 1 2 1 2 2 1 2 2 
1 1 1 1 2 2 2 1 1 
1 2 2 1 2 2 2 2 1 
1 2 2 2 2 2 2 2 1 
2 2 2 1 1 2 1 2 2 
1 2 2 2 2 1 1 1 1 
1 1 2 2 1 1 1 1 2 
2 1 1 1 2 2 2 2 1 
1 2 2 1 1 1 1 1 1 
1 1 1 2 1 1 1 1 1 
1 1 2 1 1 2 2 2 2 
2 1 1 2 2 1 1 1 2 
2 1 1 1 2 2 1 2 2 
1 2 2 2 1 2 1 1 2 
2 1 1 1 2 1 1 1 1 
1 1 1 2 1 1 1 1 1 
2 1 1 1 1 1 1 2 1 
1 2 2 1 2 1 1 2 1 
1 1 2 1 2 2 2 1 2 
1 2 1 2 1 1 1 1 1 
1 1 2 1 2 1 1 2 1 
1 1 2 2 1 2 2 1 1 
1 2 1 2 2 2 2 2 1 
2 1 2 1 2 2 1 2 1 
1 2 2 2 1 2 2 1 2 
2 2 1 2 1 2 1 1 2 
2 2 1 1 1 1 1 2 1 
2 2 1 1 1 1 2 1 1 
2 2 1 1 2 2 2 1 2 
2 2 2 1 1 2 1 1 2 
2 1 2 2 2 2 1 1 1 
1 2 2 1 1 2 1 1 2 
1 1 2 2 1 2 2 2 1 
1 1 1 1 2 2 1 2 2 
1 2 2 2 1 2 1 2 1 
2 1 1 1 1 2 1 1 1 
1 1 1 2 2 2 1 2 2 
1 1 2 1 1 2 1 1 2 
2 2 2 2 2 2 1 2 2 
2 1 1 1 2 1 2 1 2 
1 2 2 1 1 2 1 1 2 
2 2 1 2 1 2 1 1 1 
2 2 2 2 1 1 2 2 1 
1 1 1 2 1 1 2 2 2 
2 1 2 2 2 1 2 1 1 
1 1 2 1 1 1 1 2 2 
2 2 2 2 2 2 1 2 1 
2 2 2 2 2 1 2 1 2 
1 2 2 1 2 2 2 1 1 
2 2 2 1 1 1 1 2 1 
1 2 1 2 2 2 1 1 2 
1 1 2 2 1 2 1 2 1 
1 1 2 2 2 2 1 1 2 
1 2 2 1 2 2 2 2 2 
2 2 2 1 1 1 1 2 1 
1 2 1 1 1 2 1 1 2 
1 1 2 2 2 1 2 2 2 
2 1 2 2 2 1 1 1 2 
2 2 1 2 2 2 2 2 2 
1 2 1 1 1 2 1 1 1 
2 1 1 2 1 2 1 1 1 
1 2 2 1 2 1 1 2 2 
1 2 1 1 2 2 1 2 1 
1 1 1 2 1 1 1 1 2 
1 1 2 1 1 2 1 2 2 
2 1 1 1 1 2 2 2 2 
2 1 2 1 2 1 2 2 2 
1 2 2 1 2 1 2 1 2 
2 2 1 2 1 1 1 1 2 
2 1 2 2 2 2 1 1 1 
1 1 2 1 1 1 1 1 1 
1 1 2 2 1 1 2 2 2 
2 1 2 1 2 1 1 1 1 
2 1 1 2 2 1 1 2 2 
2 2 2 2 1 2 2 2 1 
2 2 2 1 1 1 2 2 2 
1 2 1 2 2 1 1 1 2 
2 2 2 1 2 2 2 1 1 
1 1 1 2 2 1 1 1 1 
1 1 1 2 2 1 2 1 1 
1 2 2 1 1 2 1 1 2 
1 1 2 1 2 2 2 1 1 
2 2 2 2 2 1 2 1 2 
1 2 2 2 2 2 2 2 1 
2 2 1 1 1 1 1 2 2 
2 1 1 2 1 1 1 2 2 
2 2 2 1 1 1 2 1 2 
1 1 2 2 2 1 2 2 1 
1 1 1 1 2 2 2 2 2 
2 1 1 1 1 1 1 2 2 
1 1 2 2 1 1 2 2 1 
1 1 2 2 2 1 2 1 2 
2 1 1 1 1 1 1 1 2 
2 1 1 2 1 2 1 2 1 
2 2 1 2 1 2 1 1 2 
1 1 1 2 2 1 2 1 1 
2 2 1 1 2 2 2 1 1 
2 2 2 1 2 2 2 1 2 
2 2 1 1 2 2 2 2 2 
1 2 2 2 1 1 1 2 1 
1 2 1 2 2 2 2 2 1 
1 2 1 2 2 1 2 2 1 
2 1 1 2 2 1 2 1 1 
2 1 1 1 1 2 2 1 1 
2 1 2 1 1 2 1 1 1 
2 2 2 1 2 1 2 1 2 
1 2 1 1 2 2 2 2 2 
2 
i 3 1000 int
0 0 0 0 0 0 0 0 0 
0 0 0 0 0 0 0 0 0 
0 0 0 0 0 0 0 0 0 
0 0 0 1 0 0 0 0 1 
0 0 1 0 0 1 0 0 0 
0 0 0 0 0 0 0 0 0 
0 0 0 0 0 0 0 0 0 
0 0 0 0 0 0 1 0 0 
0 0 0 0 0 0 0 0 0 
0 0 0 0 0 0 0 0 0 
0 0 0 0 0 0 0 0 0 
1 0 0 0 0 0 0 0 0 
0 1 0 0 0 0 1 0 0 
0 0 0 0 0 0 0 0 0 
0 0 0 0 0 0 0 0 0 
0 0 0 1 0 0 0 0 0 
0 0 0 0 0 0 1 0 0 
0 0 0 0 0 0 0 0 0 
0 0 0 0 0 0 0 0 0 
0 0 0 0 0 0 0 0 0 
0 0 0 0 0 0 0 0 0 
0 0 0 0 0 0 0 0 0 
0 0 0 0 0 0 0 0 0 
0 1 0 0 0 0 0 0 0 
0 0 0 0 0 0 0 0 0 
0 0 0 0 0 0 0 0 0 
0 0 0 0 0 0 0 0 0 
1 0 0 0 0 0 0 0 0 
0 0 0 0 1 0 0 0 0 
0 0 0 0 0 0 0 1 0 
0 0 0 0 0 0 0 0 0 
0 0 0 0 0 0 0 0 0 
0 0 0 0 0 0 0 0 0 
0 0 0 0 0 0 0 0 0 
0 0 0 0 0 0 0 0 0 
0 1 0 0 0 0 0 0 0 
0 0 0 0 0 0 0 0 0 
0 0 0 0 0 0 0 0 0 
0 0 0 0 0 0 0 0 0 
0 0 0 0 0 0 0 0 0 
0 0 0 0 0 0 0 1 0 
0 0 0 0 0 0 0 0 0 
0 0 0 0 0 0 0 0 0 
0 0 0 0 0 0 0 0 0 
0 0 0 0 0 0 0 0 0 
0 0 0 0 0 0 0 1 0 
0 0 0 0 0 0 0 0 0 
0 0 0 0 0 0 0 0 0 
0 0 0 0 0 0 0 0 0 
0 0 0 0 0 0 0 0 0 
0 0 0 0 0 0 0 1 0 
0 0 0 0 0 0 0 0 0 
0 0 0 1 0 0 0 0 0 
0 0 0 1 0 0 0 0 0 
0 0 0 0 0 0 0 0 0 
0 0 0 0 0 0 0 0 0 
0 0 0 0 0 0 0 0 0 
0 1 0 0 0 0 0 1 0 
0 1 0 0 0 0 0 0 0 
0 0 0 0 0 0 0 0 0 
0 0 0 0 0 0 1 0 0 
0 0 0 0 0 0 1 0 0 
0 0 0 0 0 0 0 0 0 
0 0 0 0 0 0 0 0 0 
0 0 0 0 0 0 0 0 0 
0 0 0 0 0 0 0 0 0 
0 0 0 0 0 0 0 0 0 
0 0 0 0 0 0 0 0 0 
0 0 0 0 0 0 0 0 0 
0 0 0 0 0 0 0 0 0 
0 0 0 0 0 0 0 0 0 
0 0 0 0 0 0 0 0 0 
0 0 0 0 0 0 0 0 0 
0 0 0 0 0 0 0 0 0 
0 0 0 0 0 0 0 0 0 
0 0 0 0 0 0 0 0 0 
0 0 0 0 0 0 0 0 0 
0 0 0 0 0 0 1 0 -1 
0 0 0 0 0 0 0 0 0 
0 1 0 0 0 -1 0 1 -1 
0 0 0 0 0 0 0 0 0 
0 0 0 0 0 0 0 0 -1 
1 0 0 0 0 0 0 0 0 
0 0 0 0 0 -1 0 0 0 
0 0 -1 0 0 0 0 0 0 
0 0 0 0 0 0 1 0 0 
0 0 0 0 0 0 0 0 1 
0 0 1 0 0 0 0 0 1 
0 0 0 0 0 0 0 -1 0 
0 0 0 0 0 0 0 0 0 
0 0 0 1 0 0 0 0 0 
0 0 0 0 0 0 0 0 0 
0 0 0 0 0 0 0 0 0 
0 0 0 0 0 0 0 0 0 
0 0 0 0 0 0 0 0 0 
0 0 0 0 0 0 0 0 0 
0 0 0 0 0 0 0 0 0 
0 0 0 0 0 0 0 0 0 
0 0 0 0 0 0 0 0 0 
0 0 0 0 0 0 0 0 0 
0 0 0 0 0 0 1 0 0 
0 0 0 0 0 0 0 0 0 
0 0 0 0 0 0 0 0 0 
0 0 0 0 0 0 0 0 0 
0 0 0 0 0 0 0 0 0 
0 0 0 0 0 0 0 0 0 
0 0 0 0 0 0 0 0 0 
0 0 0 0 0 0 0 0 0 
0 0 0 0 0 0 0 0 0 
0 0 0 0 0 0 0 0 0 
0 0 0 0 0 0 0 0 0 
0 0 0 0 0 0 0 0 0 
1 0 0 0 0 0 0 0 0 
0 0 0 0 0 0 0 0 0 
0 0 0 1 0 0 0 0 0 
0 0 0 0 0 0 0 0 0 
0 0 0 0 0 0 1 0 0 
0 0 0 0 0 0 1 0 0 
0 0 0 0 0 0 0 0 0 
0 0 0 0 0 0 0 0 0 
0 0 0 0 0 0 1 0 0 
0 0 0 0 0 0 0 0 0 
0 0 0 1 0 0 0 0 0 
0 0 0 0 0 0 0 0 0 
0 0 0 0 0 0 0 0 0 
0 0 0 0 0 0 0 0 0 
0 0 0 0 0 0 0 0 0 
0 0 0 0 0 0 0 -1 0 
0 0 0 0 0 0 0 0 0 
0 0 0 0 0 0 0 0 0 
0 0 0 0 0 0 0 0 0 
0 0 0 0 0 0 0 0 0 
0 0 0 0 0 0 0 0 0 
0 0 0 0 0 0 0 0 0 
0 0 0 0 0 0 0 0 0 
0 0 0 0 0 0 0 0 0 
0 0 0 0 0 0 0 0 0 
0 0 0 0 0 0 0 0 0 
0 0 0 0 0 0 0 0 0 
0 0 0 0 0 0 0 0 0 
0 0 0 0 0 0 0 0 0 
0 0 0 0 0 0 0 0 0 
0 0 0 0 0 0 0 0 0 
0 0 0 0 0 0 0 0 0 
0 0 0 0 0 0 0 0 0 
0 0 0 0 0 0 0 0 0 
0 0 0 0 0 0 0 0 0 
0 0 0 0 -1 0 0 -1 0 
0 0 0 0 0 0 0 0 0 
1 0 0 0 0 0 0 0 0 
0 0 0 0 0 0 0 0 0 
0 0 0 0 0 0 0 0 0 
0 0 0 0 0 0 0 0 0 
0 0 0 0 0 0 0 0 0 
0 0 0 0 0 0 0 0 0 
0 0 0 0 0 0 0 0 0 
0 0 0 0 0 0 0 0 0 
0 0 0 0 0 0 1 0 0 
0 0 0 0 0 0 0 0 0 
0 0 0 0 0 0 0 0 0 
0 -1 0 0 0 0 0 0 0 
0 0 0 0 0 -1 0 0 0 
1 0 -1 0 0 -1 0 0 -1 
0 0 -1 0 0 0 0 0 -1 
0 0 0 0 0 0 0 0 0 
0 0 0 0 0 0 0 0 0 
0 0 0 0 0 0 0 0 0 
0 0 0 0 0 1 0 0 0 
0 0 0 0 0 0 0 0 0 
0 0 0 0 0 1 0 0 0 
0 0 0 0 0 1 0 0 0 
0 0 0 0 0 1 0 0 0 
0 1 0 0 1 0 0 0 0 
0 0 0 0 0 0 0 0 0 
0 0 0 0 0 0 0 0 0 
0 0 0 0 0 0 0 0 0 
0 1 0 0 1 0 0 0 0 
0 0 0 0 0 0 0 0 0 
0 0 0 0 0 0 0 0 0 
0 0 0 0 0 0 0 0 0 
0 0 0 0 0 0 0 0 0 
0 0 0 0 1 0 0 1 0 
0 0 0 0 0 0 0 0 0 
0 0 0 0 0 0 0 0 0 
0 0 0 0 0 0 0 0 0 
0 0 0 0 0 0 0 0 0 
0 0 0 0 0 0 0 0 0 
0 0 0 0 0 0 0 0 0 
0 0 0 0 0 0 0 0 0 
0 0 0 0 0 0 0 0 0 
0 0 0 0 0 0 0 0 0 
0 0 0 0 1 0 0 0 0 
0 0 0 0 0 0 0 0 0 
-1 0 0 0 0 0 0 0 0 
0 0 0 0 0 0 0 0 0 
0 0 0 0 0 0 0 0 0 
0 0 0 0 0 0 0 0 0 
0 0 0 0 0 0 0 0 0 
0 0 0 0 0 0 0 0 0 
0 0 0 0 0 0 0 0 0 
0 0 0 -1 0 0 0 0 0 
0 0 0 0 0 0 0 0 0 
0 0 0 0 0 0 0 0 0 
0 0 0 0 0 0 0 0 0 
0 0 0 0 0 0 0 0 0 
0 0 0 0 0 0 0 0 0 
0 0 0 0 0 0 0 0 0 
0 0 0 0 0 0 0 0 0 
0 0 0 0 0 0 0 0 0 
0 1 0 0 1 0 0 0 0 
0 0 0 0 0 0 0 0 0 
0 0 0 0 0 0 0 0 0 
0 0 0 0 0 0 0 0 0 
0 0 0 0 0 0 0 0 0 
0 0 0 0 0 0 0 0 0 
0 0 0 0 0 0 0 0 0 
-1 0 0 0 0 0 0 0 0 
0 0 0 0 0 0 0 0 0 
0 0 0 0 0 0 0 0 0 
0 0 0 0 0 0 0 0 0 
0 0 0 0 0 0 0 0 0 
0 0 0 0 0 0 0 0 0 
0 0 0 0 0 0 0 0 0 
0 0 0 0 0 0 0 0 0 
-1 0 0 0 0 0 0 0 0 
0 0 0 0 0 0 0 0 0 
0 0 0 0 0 0 0 0 0 
0 1 0 0 0 0 0 0 0 
0 0 0 0 0 0 0 0 0 
-1 0 0 0 0 0 0 0 0 
0 0 0 0 0 0 0 0 0 
0 0 0 0 0 0 0 0 0 
0 0 0 0 1 0 0 0 0 
0 0 0 0 0 0 0 0 0 
0 0 0 0 0 0 0 0 0 
0 0 0 -1 0 0 0 0 0 
0 0 0 0 0 0 0 0 0 
0 0 0 0 0 0 0 0 0 
0 0 0 0 0 0 0 0 0 
0 0 0 0 0 0 0 0 0 
0 0 0 0 0 0 0 0 -1 
0 0 0 0 0 0 0 0 0 
0 0 0 0 0 0 0 0 0 
0 0 0 0 0 0 0 0 0 
0 1 0 0 0 0 0 0 -1 
0 0 0 0 0 -1 0 0 0 
0 0 0 0 0 0 0 0 -1 
0 0 0 0 0 0 0 0 0 
0 0 -1 0 0 0 0 0 -1 
0 0 0 0 0 0 0 0 0 
0 0 0 0 0 1 0 0 0 
0 0 0 0 0 0 0 0 0 
0 0 0 0 0 0 0 0 0 
0 0 0 0 0 0 0 0 0 
0 -1 0 0 0 0 0 0 0 
0 0 0 0 0 0 0 0 0 
0 0 0 0 0 0 0 0 0 
0 0 0 0 0 0 0 0 0 
0 0 0 0 0 0 0 0 0 
0 0 0 0 0 0 0 0 0 
0 0 0 0 0 0 0 0 0 
0 0 0 0 0 0 0 0 0 
0 0 0 0 0 0 0 0 0 
-1 0 0 0 0 0 0 0 0 
0 0 0 0 -1 0 0 0 0 
0 0 0 0 0 0 0 0 0 
0 0 0 0 0 0 0 0 0 
0 0 0 0 0 0 0 0 0 
0 0 0 0 0 0 0 0 0 
0 0 0 0 0 0 0 0 0 
0 0 0 0 0 0 0 0 0 
0 0 0 0 0 0 0 0 0 
0 0 0 0 0 0 0 0 0 
0 0 0 -1 0 0 0 0 0 
0 0 0 0 0 0 0 0 0 
0 0 0 0 0 0 0 0 0 
0 0 0 0 0 0 0 -1 0 
0 0 0 0 0 0 0 0 0 
0 0 0 0 0 0 0 0 0 
0 0 0 0 0 0 0 0 0 
0 0 0 0 0 0 0 0 0 
0 0 0 0 -1 0 0 0 0 
0 0 0 0 0 0 0 0 0 
0 0 0 0 0 0 0 0 0 
0 0 0 0 0 0 0 0 0 
0 0 0 0 0 0 0 0 0 
0 0 0 0 0 0 0 0 0 
0 0 0 0 0 0 0 0 0 
0 0 0 0 0 0 0 0 0 
0 0 0 0 0 0 0 0 0 
0 0 0 0 0 0 0 0 0 
0 0 0 0 0 0 -1 0 0 
0 0 0 0 0 0 0 0 0 
0 0 0 0 0 0 0 0 0 
0 -1 0 0 -1 0 0 0 0 
0 0 0 0 0 0 0 0 0 
0 0 0 0 0 0 0 0 0 
0 0 0 0 0 0 0 0 0 
0 0 0 0 0 0 0 0 0 
0 0 0 0 0 0 0 0 0 
0 0 0 0 0 0 -1 -1 0 
0 0 0 0 0 0 0 0 0 
0 0 0 -1 0 0 0 0 0 
0 0 0 0 0 0 0 0 0 
0 0 0 0 0 0 0 0 0 
0 0 0 0 0 0 0 0 0 
0 0 0 -1 0 0 0 0 0 
0 0 0 0 0 0 0 0 0 
-1 0 0 0 0 0 0 0 0 
0 0 0 0 0 0 0 -1 0 
0 0 0 0 0 0 0 0 0 
0 0 0 0 0 0 0 0 0 
0 0 0 0 0 0 0 0 0 
0 0 0 0 0 0 0 0 0 
0 0 0 0 0 0 0 0 0 
0 0 0 0 0 0 0 0 0 
0 0 0 0 0 0 0 0 0 
0 0 0 0 0 0 0 0 0 
0 0 0 0 0 0 0 0 0 
0 0 0 0 0 0 0 0 0 
0 0 0 0 0 0 0 -1 0 
0 0 0 -1 0 0 0 0 0 
0 0 0 0 0 0 0 0 0 
0 0 0 0 0 0 0 0 0 
0 0 0 0 0 0 0 0 0 
0 0 0 0 0 0 0 0 0 
0 0 0 0 0 0 0 0 0 
0 0 0 0 0 0 0 0 -1 
0 0 0 0 0 -1 0 0 0 
0 0 -1 0 0 -1 0 0 0 
0 0 -1 0 0 -1 0 0 -1 
0 0 0 0 0 0 0 0 -1 
0 0 0 0 0 0 0 0 0 
0 0 0 
v 3 1000 double
2.9217470618 0.22621875601 1.3453519563 -1.3963663251 0.80744685337 -3.899868409 -2.1175005847 2.5470522839 -2.9492442354 
-2.4324183241 -1.0863248876 3.9724260945 0.72645797179 2.7981295715 3.8342856569 -2.6415619511 2.4324287566 0.1298490433 
2.39736889 0.96759392273 0.32108663323 2.7409816829 1.2513883871 -1.8334203465 -0.57750345344 -0.78371230998 -0.44287741756 
1.9105871155 3.3277904524 0.80186007365 0.94709123774 0.80028965487 -3.3455222762 -1.397917647 -0.69939869301 -0.39534708372 
-0.46836391622 -2.3662107588 1.9246608888 0.31021974964 0.4626189871 2.0477782071 2.1535249608 2.176712322 2.4955372846 
3.3662172548 2.483064026 -0.83395377277 3.2274237062 5.6266963214 -2.1801511062 -1.3971176194 -1.8696975523 -1.0438734626 
0.62168993882 -0.85132685014 -2.1512882318 -1.0316229356 -1.4419431981 -2.2697919351 0.58743170283 0.54410569232 -3.9512300022 
0.025210258879 -1.8655553242 2.0372826204 -0.56165298939 -0.61421626637 0.25005580677 -0.52876998815 -1.3316236985 -1.574085528 
-2.3738388918 -0.16690984512 -2.4720528532 1.0662289856 1.549959787 -1.1623273114 3.8882881162 -0.85697027701 -5.0936011394 
1.2106622434 -2.9467958817 2.5572768431 -1.3173766441 -0.59266340532 -1.3597769505 -1.2691038258 2.9532955278 3.6274806942 
2.5054183411 -2.314854644 2.1385880857 -2.6726944592 -4.3365642752 -2.5186855582 0.83354906775 -2.9389051953 1.5991034625 
-0.87866079447 0.21330325614 0.90489601695 -0.90279975271 4.2766136711 -1.9673035507 -0.77530133596 2.8535008912 -0.16058080781 
0.59000535134 2.5964107365 -1.4767724986 -0.3496033201 1.0093536618 -1.2129133741 0.039195403875 -2.0834945503 0.43448237168 
-2.1841509351 -0.66113213338 1.8615835941 -1.5413569069 -1.567610251 1.5983639351 -2.4285359236 -0.33785589663 1.1761051777 
-0.067710672378 1.0021759028 -0.88098173191 -3.9810407393 -0.76164767466 -2.6601331732 0.13211235003 3.7288506799 -6.2529985874 
2.6671004776 -1.0187487864 2.7175864828 4.3213269187 -6.4027019807 -0.28808038543 1.4453287057 -5.2285961212 0.91629264176 
0.30402084774 0.62878463861 0.5709510915 2.0936994803 3.9668221945 -4.1878142556 4.2504307363 -6.3534447144 -1.6934959291 
1.5865244345 3.3368082435 2.3349670042 0.097092289297 0.40634180811 -1.4416964729 3.4008868499 -2.2532263914 -1.8525728091 
-1.0216316778 -4.2682546231 -1.9451860198 4.4418975392 2.6967764117 -2.4741619396 -0.046140421016 1.4917222551 -3.7540699752 
1.8159100975 -3.5741111413 2.8400829333 3.6601353064 -1.3860136434 1.2624669683 -0.617181392 1.1969403659 -2.9317261326 
5.3079007269 -0.70233477425 -4.4630643866 -1.8974279851 1.0543249781 0.24938592242 -3.6153513675 0.49109708238 -3.2316597145 
0.8322413489 -2.734183935 -4.2432072085 0.33569961307 -6.057329112 0.04294325841 -3.259487826 1.2212945435 -2.6689304215 
-2.4476356773 -2.7025982333 -8.9779733834 -4.8157271038 -1.0715872578 -2.6748195834 1.1821220302 -9.3939314835 4.0720655449 
0.27565312809 0.98596149162 -3.9526667083 4.8110756075 -2.0313001712 2.3240960867 2.5519973188 -1.4846117666 -0.45967731513 
0.57755191012 -2.5787406575 -4.3415632339 0.35235043354 1.6934006129 -1.2814199759 -0.8476135543 -0.92848825059 2.2299174702 
-3.2598716341 0.663782902 -3.2707029607 -2.296014353 -3.92735362 3.9307588632 -5.1789445946 -0.80348666606 -2.9045398258 
-3.9877830171 1.1255667858 0.026601437635 -4.3833766086 0.9139272116 0.47520481967 -1.2685036881 2.0745089273 -4.3180706399 
2.8593476662 -3.4290285895 -0.46243851108 0.45082571874 -0.58512611829 -1.1598574819 -2.952087064 -1.9844612182 -0.5086905741 
0.91836701714 -2.163225627 0.19830421995 0.47148564708 -1.734198033 -1.7182196266 2.4664526426 -2.6435077493 -1.205720976 
-1.212208936 -0.31529443478 -2.9276556924 2.9758753564 -1.4027149279 -1.0391173206 4.9518041894 2.4045952564 -2.9167057602 
1.6404948258 2.4637736022 -0.31320227348 0.69862562017 1.4871698825 -6.0117585749 0.069810956048 2.015903699 3.5594890247 
-3.3137586462 1.8943048708 1.1620584359 -3.7601661785 0.21041468689 3.4233039585 -2.9079564799 1.4269342156 -0.20306757104 
-6.8174966247 2.1496817857 2.3160600704 2.5826407619 -0.56048911515 3.2807600888 -3.9971754267 1.9415328407 0.26055273005 
4.5626812242 -0.49598914674 -4.756989792 0.51424581875 -0.40839470087 -2.1569744163 -1.4912318808 -4.3731673753 5.9978084113 
-0.76181115958 -1.1593489684 -0.4779214419 -0.40234074869 -0.53271711269 -3.9647396882 0.19496090031 0.65559932528 2.5444850714 
2.7580944752 3.9905102193 -2.0579270016 2.8628855445 -1.0545359494 2.2646984751 4.1652207502 2.1888669852 -0.84842444182 
2.7245721869 5.0776731364 -4.9103515839 0.31351326598 2.3133958456 -0.45091861749 7.8299619795 -2.5315705061 0.25903267822 
-0.65332784487 -7.000649099 0.47638519594 -0.45595911056 4.5644595584 3.1539056529 1.9323989849 2.0786922572 0.88890864177 
0.12725152828 -2.0622621951 6.3727913581 -0.66230453668 0.067519719046 2.8949682272 2.9135994261 -1.8398208603 -3.9606514112 
-1.0312243037 2.9610935924 1.7415862914 -0.095999550939 0.83169534931 0.44543410508 0.59225406972 -1.9168213707 -3.4504346654 
2.3514381614 -3.2807360491 -2.7324342006 0.57555770322 1.3189691673 0.37848228415 5.5159164434 3.1259575456 0.47971046267 
0.29311153574 1.0867090133 0.081496406851 1.4979010381 3.2688451022 -2.5041963634 -0.68370595443 -3.3122033227 -2.5300716684 
2.9061040206 4.5019484147 0.34018471057 7.7171487941 -2.8170087009 1.5262311813 7.2626183042 -1.2515208332 8.5305089769 
2.981216299 -3.3033656331 2.3061990653 -0.66115825765 -4.0573215594 -0.73412098238 -1.073953123 -5.9580741258 -0.85328898508 
-0.1645536696 -3.2693842536 3.4539405074 1.3082020754 1.3735408649 -1.662138909 3.2772829209 -3.1361645965 -2.7973937635 
3.8377509941 -1.6734090507 -7.4639682441 1.7412747125 -3.4310978148 -4.1403458951 -5.1981745971 2.2922879133 -1.0752488949 
-4.3512170285 5.4130148629 -0.86924372343 -0.63732472939 -0.61616277471 -1.5166275247 5.4148966621 -3.5404070162 1.7739607624 
3.9891734277 2.5632980661 0.45684908974 -1.0078018852 -0.00547754755 1.7907532293 -2.3751440096 2.4698145878 1.8499113698 
-2.8325752638 -0.29391412025 1.5402517251 -1.1734060204 -1.1014011189 1.3014535904 1.0684555223 -2.6919369096 2.0125018706 
1.1453817817 3.1545615788 -0.089612884559 -0.76860804975 0.22196756742 -0.18534013509 0.64075743102 -2.3270793069 1.6694588591 
-0.25195495386 -2.6195872083 -0.2056404511 2.664748783 -0.38870723747 -0.58338196068 -3.0816175804 4.6415442508 -0.31899340035 
0.44613762783 -0.18191987409 1.7308689492 2.2125165468 1.698287663 1.3280773376 1.0843992437 -3.1544502266 -1.0439702384 
3.8444183273 -0.23467938908 -1.13346093 2.0090686445 0.98525190247 -0.70704899478 -0.28024248079 -2.8085531345 7.7017544281 
3.1222857795 1.3611370574 -0.98384486508 1.0501342094 5.3258974367 6.1591261627 1.6619634685 1.1057381964 3.9569376153 
0.33541449154 -0.27112880213 -4.030717766 -4.6458162832 -1.0500655978 3.0498084444 0.57724505408 -0.16296979769 1.4624312826 
0.43972189071 -1.0508600367 0.71568563074 3.9779628678 3.5919855693 1.3249052453 1.0771860819 0.4795835371 0.67967887017 
-0.27157694341 -0.0025920047137 1.7330347323 0.56540941142 0.93783058333 1.6643656456 0.094437978376 -4.6751243372 2.2039494433 
-3.7362289619 1.8083749708 -0.64189497484 -1.0171496674 -0.13888836965 2.1702507078 1.0820747148 3.9022508903 0.37348702918 
0.64299855517 2.4059414378 -3.3888531021 -0.31084154484 -3.6384658359 -0.78057476607 -2.9968533636 4.5909484463 1.181808996 