# vtk DataFile Version 4.2
Generated by LIGGGHTS
ASCII
DATASET POLYDATA
POINTS 1000 float
1.24774 0.423292 0.253248 3.25669 0.416374 0.649249 4.71125 0.269814 0.0300893 
0.0914908 0.707206 0.0724423 2.2318 0.674263 0.473714 1.78281 1.59475 0.609502 
2.61091 1.58457 0.0376222 4.70109 1.58047 0.575796 0.936859 2.11508 0.494921 
3.6732 2.0167 0.572257 0.195851 2.74298 0.228725 1.31621 3.0895 0.193803 
2.35105 2.5456 0.131469 3.16661 3.04412 0.425593 4.59 3.07062 0.214519 
0.404924 3.70499 0.0546997 2.28459 3.5372 0.03159 1.52444 4.07975 0.3949 
2.64509 4.55801 0.575497 3.65659 4.66159 0.492842 0.24371 0.200594 1.02751 
2.1071 0.122753 1.30241 4.16296 0.023256 0.824347 0.698006 1.06012 0.790659 
2.76142 1.34277 0.996001 0.0952785 1.89094 1.08409 2.65849 2.33524 1.05929 
0.615297 2.80134 1.14696 1.65758 2.57556 1.03336 3.95208 2.8889 1.02981 
4.94748 2.89672 1.1342 1.36354 3.51447 1.20758 2.37541 3.29276 1.01368 
0.277151 3.79566 1.06628 1.9257 4.67735 1.254 4.62736 4.69075 0.828573 
3.72329 0.0104734 1.72074 0.386805 0.621361 1.93883 1.40673 0.766954 1.61333 
2.6459 0.786704 1.8188 4.39324 0.779113 1.49115 0.993844 1.67587 1.52027 
1.99003 1.75396 1.56955 3.66017 1.47485 1.41673 3.41487 2.39923 1.71654 
4.46233 2.06924 1.41218 4.39041 2.957 1.97232 2.92339 3.33617 1.8624 
1.16971 4.2203 1.94489 2.12539 3.93091 1.93941 4.2189 3.82647 1.33926 
3.21408 4.5249 1.387 1.13661 0.319082 2.5266 2.21049 0.0468947 2.33087 
4.52098 0.256608 2.36658 1.88608 1.2086 2.39969 3.57942 0.872717 2.21072 
5.00218 1.09868 2.61846 0.823655 1.30856 2.68761 2.9424 1.64441 2.34744 
3.91881 1.79741 2.51923 0.350048 2.288 2.03893 1.33449 2.1232 2.34861 
2.43799 2.48311 2.08859 4.85602 2.12404 2.32862 1.57098 3.05734 2.07543 
0.598309 3.27904 2.02406 3.90882 3.6131 2.55366 3.39784 4.45235 2.36617 
4.57024 4.50573 2.55986 1.54708 0.849258 3.26787 2.70573 0.803997 2.8442 
4.09554 0.985654 3.07453 4.63685 1.867 3.27275 2.15563 1.96674 2.99395 
0.570581 2.55434 2.98375 1.56134 2.79631 3.06353 3.2834 2.55188 2.69648 
4.85733 2.94277 2.94563 0.413788 3.85233 2.8201 1.40903 3.74624 2.78917 
2.727 3.80757 2.74902 0.2255 4.69653 3.32096 1.22312 4.71218 3.24433 
2.58688 4.7481 3.04131 0.863711 0.0127527 3.5375 2.17586 0.0739698 3.40458 
3.36623 0.0113881 3.78883 0.365336 0.934475 3.50555 3.21838 1.01882 3.69869 
4.91994 0.685573 3.76096 2.253 1.31525 3.80032 3.87412 1.72286 3.96118 
1.27645 1.98311 3.57378 2.98457 2.06227 3.55084 2.69523 3.01886 3.35791 
3.81544 2.62699 3.54175 4.66974 3.02695 3.93621 0.824459 3.29391 3.60857 
3.85866 3.59002 3.80783 1.96072 4.09367 3.5456 2.93256 3.9474 3.71652 
4.80376 3.8779 3.36524 3.95191 4.46835 3.34743 4.85353 4.83403 3.681 
1.53098 0.44615 4.18088 2.49372 0.246058 4.34479 0.585155 0.634538 4.4425 
4.04368 0.771326 4.2303 0.0609256 1.54606 4.27625 1.25127 1.38247 4.3723 
0.347387 2.52577 4.04851 2.21948 2.53854 4.11265 0.34696 3.43766 4.56258 
1.40483 3.16298 4.41261 3.01423 3.16075 4.40686 1.21295 4.28132 4.18139 
2.12553 3.91908 4.51895 3.42674 4.10124 4.56975 4.38577 4.24513 4.34855 
0.222363 4.43846 4.33241 3.12361 4.89009 4.02623 1.78327 0.128592 5.12666 
3.37066 0.391553 4.86517 2.339 1.13749 4.77846 4.24282 0.707878 5.34909 
3.52228 1.37453 4.92856 4.47921 1.62749 4.74602 1.66513 2.16149 4.86418 
2.64644 2.06639 5.00437 3.54799 2.35611 4.69105 0.767629 2.58788 4.96004 
2.21676 3.12398 5.10831 4.28737 3.00542 4.86341 1.46033 3.82434 5.32308 
4.06837 3.87832 5.3019 0.828181 4.80432 5.03637 2.45032 4.84021 4.77062 
4.07752 4.97748 4.94968 0.473253 0.288367 5.37837 1.30852 0.469064 5.93743 
3.49708 0.432051 5.9654 2.59211 0.796878 5.68303 0.687976 1.68276 5.71223 
1.52204 1.27161 5.33883 3.71382 1.40728 5.90959 1.86105 2.06774 5.85093 
3.92111 2.43783 5.64021 4.90365 2.4095 5.42515 2.63791 2.71265 5.95009 
0.244969 3.23723 5.53627 3.28003 3.24756 5.36992 4.65632 3.28436 5.85902 
0.624426 4.17642 5.78103 2.58169 3.98608 5.74751 1.64718 4.9379 5.60792 
3.52719 4.62228 5.94612 0.650623 0.939062 6.53504 1.92802 1.12513 6.3671 
4.4765 0.817187 6.40385 2.7738 1.71454 6.06321 0.845651 2.62381 6.05075 
3.45697 2.61968 6.52523 4.7503 2.52564 6.50353 0.0489749 3.2804 6.51395 
0.943998 3.76644 6.63252 1.63047 3.23757 6.13138 3.30329 3.65715 6.37611 
1.77055 4.2162 6.28919 4.35293 4.13612 6.30746 0.0676677 4.98037 6.02937 
0.975449 4.89779 6.45382 2.57984 4.95757 6.056 1.32269 0.300244 6.93292 
2.5316 0.441015 6.8749 3.44303 0.0119594 6.89083 3.26196 1.1194 6.81856 
2.30806 1.3421 7.26428 4.08051 1.82151 6.74214 0.778085 1.90804 6.74582 
2.04134 2.28676 6.83494 2.99609 2.0682 7.22089 1.21504 2.83634 6.96019 
2.39414 3.22277 6.79433 4.11342 3.30532 6.8404 0.0704976 4.27244 6.74901 
2.60064 4.33071 6.84774 1.55418 4.57372 7.20158 3.62081 4.41369 6.94082 
4.56532 4.49528 7.26708 0.330723 0.132361 7.9468 1.70259 0.238097 7.8582 
3.45298 0.610353 7.69367 4.83355 0.133814 7.92998 0.623417 1.04754 7.53383 
4.40567 0.912242 7.39729 0.156178 1.86313 7.89762 1.53214 1.26666 7.8938 
3.69918 1.57801 7.76706 1.09152 2.13683 7.66744 4.5508 2.13181 7.69367 
2.54755 2.97905 7.90734 3.56418 2.82007 7.80102 4.84433 3.08373 7.48495 
1.64356 3.59799 7.45212 3.12125 3.62777 7.36031 0.685902 4.19154 7.52995 
2.41033 3.96061 7.98441 4.02703 3.80227 7.74819 2.38014 4.95 7.62945 
3.25066 4.5142 7.89275 2.30198 0.0906787 8.64456 3.54313 0.112317 8.55988 
0.146943 1.00865 8.4133 2.55924 0.924491 8.1459 4.26021 0.80784 8.39768 
1.88754 2.18673 8.26985 2.84441 1.89949 8.20525 4.33591 2.05411 8.67305 
0.746133 3.04065 8.04211 4.18966 3.10241 8.52652 0.056327 3.63704 8.48192 
1.68128 3.16067 8.37498 3.17869 3.41445 8.55532 1.01169 3.92252 8.44118 
4.85474 3.8156 8.32075 0.28838 4.6578 8.3319 2.09002 4.69167 8.59314 
3.95484 4.88756 8.50804 4.8922 4.80177 8.17526 1.28324 0.638281 8.67946 
2.70728 1.02415 9.14258 1.22679 1.63166 8.77602 3.53031 1.46118 8.78428 
0.491148 2.31209 8.72571 2.36503 1.98769 9.12352 0.185523 3.07743 9.29116 
1.89375 2.90277 9.31749 4.91442 2.61056 9.26693 0.113422 4.30264 9.26999 
2.33373 3.79256 8.96287 3.22728 4.34126 9.00889 4.20071 3.96569 9.2452 
1.09871 4.76849 8.97563 1.87193 0.44159 9.47455 2.80212 0.231317 9.77293 
3.8089 0.338828 9.59717 4.47165 1.0567 9.36108 0.733239 1.42374 9.80175 
1.71645 1.4176 9.62471 3.53827 1.32777 9.76812 1.10322 2.32367 9.51673 
3.21154 2.26508 9.57141 4.27341 2.00853 9.77308 3.92347 2.95855 9.47773 
1.33409 3.72433 9.41729 3.46568 3.85938 9.92522 0.812426 4.60419 9.91607 
1.91368 4.52819 9.57129 0.213854 5.41107 0.225896 1.94242 5.2697 0.44271 
2.97129 5.51293 0.517471 1.18419 6.09177 0.396401 4.58826 6.01579 0.221417 
3.05613 6.5882 0.41535 1.27149 7.01359 0.000940659 0.73729 7.82138 0.325612 
2.06071 8.06769 0.542037 3.34155 7.56188 0.38972 4.32903 7.59855 0.1566 
4.03758 8.57866 0.231376 0.736888 9.25907 0.487361 2.5852 9.1157 0.497008 
1.68924 9.53391 0.360578 3.48835 9.41592 0.193422 0.94535 5.00688 0.822396 
3.9183 5.57758 0.825358 0.560745 5.89411 1.1537 0.662087 6.85146 0.798621 
2.10888 6.41052 0.793426 3.9958 6.56978 0.923375 4.94467 6.81725 0.727307 
1.59583 7.26692 0.912873 2.56735 7.41391 1.11823 4.00751 7.68337 1.12721 
1.37637 8.54653 1.09512 3.02741 8.35446 0.979513 4.84444 8.20031 0.967401 
0.264558 8.81885 1.25358 3.78143 9.04759 1.17415 4.68102 9.16733 0.737169 
1.15777 9.82827 1.19312 2.92709 9.55126 1.32909 0.650786 5.07364 1.833 
4.25381 5.03711 1.75979 1.80029 5.66688 1.54505 3.31985 5.64454 1.86305 
0.824768 6.57131 1.87929 2.54279 6.56776 1.69148 3.56061 6.78542 1.7994 
4.60543 6.43505 1.98014 1.69594 7.064 1.92249 4.92582 7.45349 1.65722 
0.862809 7.52905 1.5474 1.83278 8.06264 1.8517 3.22888 7.75679 1.78533 
4.21847 8.4923 1.94328 1.61199 9.34815 1.94388 2.46604 8.83589 1.8627 
0.587198 9.47204 1.9379 4.52525 9.41768 1.73911 1.52607 5.22821 2.42199 
2.45291 5.07329 2.02023 0.0565099 5.85248 2.42992 1.69351 6.22635 2.62096 
0.870917 7.37986 2.55397 0.1773 8.01534 2.21821 4.19283 7.58648 2.3917 
0.992679 8.56535 2.04683 3.30634 8.58521 2.34035 4.14814 9.36599 2.67211 
3.15152 9.57511 2.48823 3.61787 5.34121 2.77237 2.53303 5.71963 2.81112 
4.66998 5.61733 2.74454 0.750243 6.4397 2.87204 3.7626 6.36563 2.68633 
4.66344 6.6694 2.99787 2.20455 7.33462 2.74298 3.23791 7.32411 2.70095 
0.605323 8.14308 3.26713 1.61119 8.44584 2.8214 2.61787 8.21005 2.99092 
3.5944 8.17261 3.20378 4.51666 8.49352 2.99058 0.465277 9.02932 2.82629 
2.34189 9.1691 2.98075 1.38386 9.43299 2.91372 2.06532 5.25434 3.74709 
0.194649 6.08362 3.62222 1.24555 5.78968 3.4683 3.04162 5.82763 3.66285 
4.0898 5.6335 3.60722 0.839325 6.85413 3.78034 2.39126 6.60602 3.40735 
3.37215 6.7673 3.526 4.15435 7.38738 3.46952 1.47025 7.57783 3.44604 
2.94525 7.69627 3.79644 2.02125 8.57516 3.73756 1.0546 8.89433 3.75656 
3.55164 9.01589 3.73819 4.51294 8.86257 3.95454 0.0906849 9.39334 3.68511 
4.48477 9.81408 3.50252 0.715843 5.28927 4.15438 2.42507 5.8552 4.55723 
3.60221 5.7204 4.48127 4.84968 5.87521 4.21188 1.71786 6.53357 4.14542 
3.09662 6.58906 4.46712 4.12822 6.57651 4.24367 0.314256 6.93417 4.64569 
0.60376 7.77897 4.1964 2.24932 7.52382 4.49582 4.01643 7.53725 4.50393 
1.47419 8.15806 4.51404 3.3775 8.30781 4.53865 4.97515 8.11644 4.69076 
2.66021 9.28866 4.09406 0.697023 9.64928 4.59947 1.68071 9.47437 4.35978 
3.52133 9.4274 4.64878 4.40526 9.86888 4.49542 1.53924 5.43247 4.73173 
3.17043 5.32706 5.29264 0.368143 5.8502 5.02271 4.73006 5.71061 5.18885 
1.24935 6.28699 5.1834 2.17537 6.84878 5.22988 3.95602 6.65767 5.33617 
1.27944 7.21178 4.80541 3.10641 7.42008 5.02268 0.715943 8.50316 5.07593 
2.40179 8.50596 4.6616 4.17892 8.73157 4.96913 1.64289 8.85161 5.21732 
2.6135 9.55886 5.0579 4.43009 5.06988 5.88908 2.20018 5.77884 5.56183 
0.374607 6.69707 5.61988 3.0108 6.3895 5.52585 1.31052 7.23471 5.80964 
3.31874 7.4962 5.9975 0.471185 7.77777 5.80807 2.24243 7.88376 5.63716 
4.2949 7.84333 5.41412 3.10338 8.3973 5.4971 4.30259 8.70614 5.9613 
2.34703 8.93342 5.92771 0.882959 9.39681 5.58091 4.08721 9.71756 5.43014 
1.75076 5.50251 6.63588 0.99115 5.90619 6.08024 2.64922 5.89656 6.4474 
[...]
POINT_DATA 1000
FIELD FieldData 7
id 1 1000 int
9 5 633 843 530 509 531 18 519 
506 526 600 20 11 595 255 603 109 
510 6 16 146 150 2 514 757 505 
17 522 12 513 1 501 504 529 516 
8 748 14 548 502 518 523 13 554 
10 38 21 909 547 537 4 34 640 
35 534 555 533 23 544 552 302 541 
7 782 41 508 546 532 550 71 22 
170 47 26 30 24 557 277 283 626 
543 418 67 542 644 29 638 545 33 
40 63 535 551 540 31 279 280 37 
44 32 556 558 28 900 561 560 570 
654 553 49 42 539 294 36 53 69 
45 572 559 408 54 562 187 80 59 
51 58 62 70 25 68 48 817 50 
575 669 43 683 55 220 663 588 57 
566 61 84 538 569 589 563 52 311 
573 568 571 92 64 578 582 583 567 
574 96 303 99 66 101 103 102 800 
91 56 95 202 699 78 72 74 337 
580 97 585 79 83 339 592 77 591 
89 122 118 576 870 579 82 88 590 
104 86 833 125 87 75 81 584 593 
586 581 577 235 226 715 127 120 123 
107 602 608 93 105 108 73 110 115 
598 233 601 228 743 119 604 116 128 
111 599 365 605 846 272 117 594 106 
240 112 735 507 372 606 607 528 610 
121 512 114 597 515 142 596 404 503 
511 612 143 135 152 611 625 723 728 
617 132 133 520 140 130 517 892 148 
129 151 984 147 134 616 138 144 629 
136 149 631 3 141 874 627 632 613 
139 131 614 620 622 383 641 624 651 
623 174 646 912 402 27 168 922 642 
659 160 615 173 647 157 636 158 658 
166 156 653 423 650 657 648 639 171 
652 161 163 154 167 162 924 656 655 
668 177 643 645 159 682 637 169 649 
155 660 436 172 450 194 60 420 681 
193 164 198 185 180 153 199 182 940 
661 677 673 662 192 190 207 948 674 
666 178 680 189 181 679 684 676 670 
188 469 664 183 675 179 196 176 671 
686 678 685 191 667 195 702 709 211 
215 970 693 701 689 703 206 665 200 
197 706 205 707 98 698 692 203 214 
218 691 690 209 210 700 201 216 704 
710 688 85 694 224 719 712 481 219 
741 708 992 705 222 221 212 961 217 
587 230 208 695 374 713 714 737 736 
720 225 727 238 227 726 733 696 244 
717 242 742 137 628 738 739 716 239 
991 734 234 237 246 722 725 732 236 
223 521 247 527 630 872 634 618 229 
243 635 245 231 718 248 724 396 264 
252 251 259 767 268 271 369 358 525 
260 380 896 773 747 891 758 761 765 
15 866 287 744 760 254 261 609 269 
250 382 904 257 524 768 253 258 753 
19 764 267 754 769 794 263 265 262 
762 756 413 763 778 755 282 781 276 
281 299 788 300 908 780 784 785 790 
746 777 775 536 293 286 292 786 793 
766 911 414 275 427 298 290 306 818 
289 774 285 816 296 274 783 313 789 
776 406 288 792 779 291 809 295 324 
325 812 813 323 811 284 301 803 320 
319 305 46 808 308 318 549 278 316 
796 814 807 322 672 310 314 565 934 
943 821 832 333 355 810 798 797 802 
307 815 343 805 312 315 345 837 334 
827 830 338 564 349 353 340 831 819 
332 94 348 952 801 835 864 347 335 
213 329 826 342 331 346 825 354 823 
327 100 336 804 351 824 829 344 822 
488 858 848 90 836 359 326 377 352 
350 834 341 371 328 373 126 857 856 
330 854 840 838 869 76 859 850 845 
466 861 362 989 124 363 863 847 357 
867 368 868 270 852 849 851 378 865 
1000 483 853 860 364 750 745 256 862 
356 366 842 841 361 367 113 266 360 
249 375 771 752 273 990 389 385 884 
394 391 232 390 895 987 400 399 731 
490 873 770 772 898 749 759 384 871 
878 395 887 405 621 879 886 881 381 
876 889 386 145 393 403 883 397 899 
387 885 894 901 398 893 432 791 437 
888 424 882 927 877 410 426 411 926 
921 905 751 906 928 907 388 419 431 
415 175 914 925 412 438 422 39 417 
903 918 297 919 439 915 923 461 920 
916 434 917 409 407 429 457 787 435 
433 430 902 321 939 459 425 945 942 
416 937 440 944 421 951 448 910 913 
806 304 309 799 317 449 428 453 470 
165 941 447 947 444 186 950 446 456 
454 795 946 462 929 452 933 468 442 
460 184 443 960 930 455 938 936 441 
935 931 949 65 445 472 464 204 451 
953 687 465 932 976 971 458 954 964 
474 478 965 967 977 697 476 467 966 
711 962 958 471 959 820 972 463 473 
828 497 379 489 956 974 955 998 968 
957 477 994 499 969 996 985 844 973 
475 493 494 721 999 485 975 496 487 
491 479 963 988 482 855 241 376 978 
995 729 486 730 480 986 740 484 880 
370 492 997 890 500 619 979 401 495 
498 392 981 897 875 983 982 993 839 
980 
type 1 1000 int
1 1 2 2 2 2 2 1 2 
2 2 2 1 1 2 1 2 1 
2 1 1 1 1 1 2 2 2 
1 2 1 2 1 2 2 2 2 
1 2 1 2 2 2 2 1 2 
1 1 1 2 2 2 1 1 2 
1 2 2 2 1 2 2 1 2 
1 2 1 2 2 2 2 1 1 
1 1 1 1 1 2 1 1 2 
2 1 1 2 2 1 2 2 1 
1 1 2 2 2 1 1 1 1 
1 1 2 2 1 2 2 2 2 
2 2 1 1 2 1 1 1 1 
1 2 2 1 1 2 1 1 1 
1 1 1 1 1 1 1 2 1 
2 2 1 2 1 1 2 2 1 
2 1 1 2 2 2 2 1 1 
2 2 2 1 1 2 2 2 2 
2 1 1 1 1 1 1 1 2 
1 1 1 1 2 1 1 1 1 
2 1 2 1 1 1 2 1 2 
1 1 1 2 2 2 1 1 2 
1 1 2 1 1 1 1 2 2 
2 2 2 1 1 2 1 1 1 
1 2 2 1 1 1 1 1 1 
2 1 2 1 2 1 2 1 1 
1 2 1 2 2 1 1 2 1 
1 1 2 2 1 2 2 2 2 
1 2 1 2 2 1 2 1 2 
2 2 1 1 1 2 2 2 2 
2 1 1 2 1 1 2 2 1 
1 1 2 1 1 2 1 1 2 
1 1 2 1 1 2 2 2 2 
1 1 2 2 2 1 2 2 2 
2 1 2 2 1 1 1 2 2 
2 1 2 1 2 1 2 1 2 
1 1 2 1 2 2 2 2 1 
2 1 1 1 1 1 2 2 2 
2 1 2 2 1 2 2 1 2 
1 2 1 1 1 1 1 1 2 
1 1 1 1 1 1 1 1 2 
2 2 2 2 1 1 1 2 2 
2 1 2 1 1 2 2 2 2 
1 1 2 1 2 1 1 1 2 
2 2 2 1 2 1 2 2 1 
1 2 2 2 2 2 1 2 1 
1 2 1 2 1 2 2 1 1 
1 2 2 1 1 2 1 1 2 
2 2 1 2 1 2 2 1 1 
2 2 2 2 1 1 1 2 1 
2 1 1 2 1 2 2 2 2 
2 1 2 1 1 2 2 2 1 
2 1 2 1 2 2 2 2 1 
2 2 1 1 1 2 2 2 1 
1 2 1 2 2 2 2 2 1 
1 2 1 1 2 1 2 1 1 
1 1 1 2 1 1 1 1 2 
1 1 2 2 2 2 2 2 2 
1 2 1 2 2 1 1 2 1 
1 1 2 1 2 2 1 1 2 
1 2 1 2 2 2 1 1 1 
2 2 1 2 2 2 1 2 1 
1 1 2 1 2 2 2 2 2 
2 2 2 2 1 1 1 2 2 
2 2 1 1 1 1 1 1 2 
1 2 1 2 1 1 2 1 2 
2 1 1 2 2 1 2 1 1 
1 2 2 1 2 1 1 2 1 
1 1 1 2 1 1 2 1 1 
2 2 2 1 2 1 1 2 2 
2 2 2 1 1 2 2 2 2 
1 2 1 2 1 1 1 2 1 
2 2 1 2 1 1 1 2 2 
1 1 1 2 2 2 2 1 1 
1 1 2 1 1 1 2 1 2 
1 1 1 2 1 2 2 1 2 
1 2 2 1 2 1 1 1 1 
1 2 1 1 1 1 1 2 2 
1 2 2 2 2 1 2 2 2 
1 2 1 2 1 1 2 2 1 
2 1 2 1 2 2 2 1 2 
2 1 2 2 1 2 2 1 2 
1 1 2 2 1 1 1 1 1 
1 1 2 2 1 2 1 1 2 
1 1 1 1 2 2 1 1 2 
1 2 2 2 2 2 2 1 2 
2 1 2 1 2 2 2 2 1 
2 2 1 1 1 1 2 1 2 
1 2 2 2 1 2 1 2 1 
2 1 2 2 2 1 1 1 2 
2 2 2 2 2 2 1 1 1 
1 1 2 2 1 1 1 1 1 
2 2 1 2 1 2 2 1 2 
2 1 2 1 1 1 1 2 1 
1 1 2 1 2 1 1 2 2 
1 2 1 2 1 2 1 2 2 
2 1 1 2 1 1 1 1 1 
1 2 1 2 1 1 2 1 1 
1 2 2 1 2 1 2 1 1 
1 1 1 2 2 1 2 2 1 
2 2 2 1 1 1 1 1 1 
2 2 1 2 2 2 1 2 2 
1 1 2 2 2 2 1 1 2 
2 2 2 1 2 2 2 1 1 
2 1 1 1 2 2 2 2 2 
2 1 2 1 2 2 2 2 2 
1 1 1 2 2 1 2 1 1 
1 1 2 2 1 2 1 1 2 
2 2 1 2 1 2 2 1 2 
1 1 2 2 1 2 2 1 1 
1 1 2 2 2 2 2 2 2 
2 
i 3 1000 int
0 0 0 0 0 0 0 1 0 
1 0 1 0 0 0 0 0 0 
0 0 0 0 0 0 0 0 0 
0 0 0 0 0 0 0 0 1 
0 0 0 0 0 0 0 0 1 
1 0 0 0 0 1 0 0 1 
0 0 0 0 0 0 0 0 0 
0 1 0 0 1 0 0 0 0 
0 0 0 1 0 0 0 0 0 
0 0 0 0 0 0 0 0 0 
0 0 0 0 0 0 0 0 0 
0 0 0 0 0 0 0 0 0 
0 0 0 1 0 0 0 0 0 
0 0 0 0 0 0 0 0 0 
0 0 0 0 0 0 0 0 0 
0 0 0 0 0 0 0 0 0 
1 0 0 0 0 0 0 0 0 
0 0 0 0 0 0 0 1 0 
0 0 0 0 0 0 0 0 0 
0 0 0 0 0 0 0 0 0 
0 0 0 1 0 0 0 0 0 
0 0 0 0 0 0 0 0 0 
0 0 0 0 0 0 0 0 0 
0 0 0 0 0 0 0 0 0 
0 1 0 0 0 0 0 0 0 
0 0 0 0 0 0 0 0 0 
0 0 0 1 0 0 0 0 0 
0 0 0 1 0 0 0 0 0 
0 0 0 0 1 0 0 0 0 
0 1 0 0 0 0 0 0 0 
0 0 0 0 0 0 0 0 0 
0 0 0 0 0 0 0 0 0 
0 0 0 0 0 0 0 0 0 
0 0 0 0 0 0 0 0 0 
0 0 0 0 0 0 0 0 0 
0 0 0 0 0 0 0 0 0 
0 1 0 0 0 0 0 0 0 
0 0 0 0 0 0 1 0 0 
0 0 0 0 0 0 0 0 0 
0 0 0 0 0 0 0 0 0 
1 0 0 0 0 0 0 0 0 
0 1 0 0 0 0 0 0 0 
0 0 0 0 0 0 0 0 0 
0 0 0 0 0 0 0 0 0 
0 0 0 0 0 0 0 0 0 
0 0 0 0 0 0 0 0 0 
0 0 0 0 0 0 0 1 0 
0 1 0 0 0 0 0 0 0 
0 0 0 0 0 0 0 0 0 
0 0 0 0 0 0 0 0 0 
0 0 0 0 0 0 0 0 0 
0 0 0 0 0 0 0 0 0 
0 0 0 0 0 0 0 0 0 
0 0 0 0 0 0 0 0 0 
0 0 0 0 0 0 1 0 0 
0 0 0 0 0 0 0 0 0 
0 0 0 0 0 0 1 0 0 
0 0 0 0 0 0 0 0 0 
0 1 0 0 1 0 0 0 0 
0 0 0 0 0 0 1 0 0 
0 0 0 0 0 0 0 0 0 
0 0 0 0 0 0 1 0 0 
0 0 0 0 0 0 0 0 0 
0 0 0 0 0 0 0 0 0 
0 0 0 0 0 0 0 0 0 
0 0 0 0 0 0 0 0 0 
0 0 0 0 0 0 0 0 0 
0 0 0 0 0 0 0 0 0 
0 0 0 0 0 0 0 0 0 
0 0 0 0 0 0 0 0 0 
0 0 0 0 1 0 0 1 0 
0 0 0 0 0 0 0 0 0 
0 0 0 0 0 0 0 0 0 
0 0 0 0 0 0 0 0 0 
0 0 0 0 0 0 0 0 0 
0 0 0 0 0 0 0 0 0 
0 0 0 0 0 0 0 0 0 
0 0 0 0 0 0 0 0 0 
0 0 0 0 0 0 1 0 0 
0 0 0 0 0 0 1 0 -1 
0 0 0 0 0 0 0 0 0 
0 0 0 0 0 0 0 1 0 
0 0 -1 0 0 0 0 0 0 
0 0 0 0 0 -1 0 0 0 
0 0 0 0 0 -1 0 0 0 
0 0 0 0 0 -1 0 0 -1 
0 0 0 1 0 0 0 0 0 
0 0 0 0 0 0 0 0 0 
0 0 0 0 0 0 0 0 0 
0 0 0 0 0 1 0 0 1 
0 0 0 0 0 0 0 0 0 
0 -1 0 0 0 0 0 0 0 
0 0 0 1 0 0 0 0 0 
0 0 0 0 0 0 0 0 1 
0 0 0 0 0 0 0 0 0 
0 0 0 0 0 0 0 0 0 
0 0 0 0 0 0 0 0 0 
0 -1 0 0 0 0 1 0 0 
0 0 0 0 0 0 0 0 0 
0 0 0 0 0 0 0 0 0 
0 0 0 0 0 0 0 0 0 
0 0 0 0 0 0 0 0 0 
0 0 0 0 0 0 0 0 0 
1 0 0 0 0 0 0 0 0 
0 0 0 1 0 0 0 0 0 
0 0 0 0 0 0 0 0 0 
0 0 0 0 0 0 0 0 0 
0 0 0 0 0 0 0 0 0 
0 0 0 0 0 0 0 0 0 
0 0 0 0 0 0 0 0 0 
0 0 0 0 0 0 0 0 0 
0 0 0 0 0 0 0 0 0 
0 0 0 0 0 0 0 0 0 
1 0 0 0 0 0 0 0 0 
0 0 0 0 0 0 0 0 0 
0 0 0 0 0 0 0 0 0 
0 0 0 0 0 0 0 0 0 
0 0 0 0 0 0 1 0 0 
0 0 0 1 0 0 0 0 0 
0 0 0 0 0 0 0 0 0 
0 0 0 0 0 0 0 0 0 
0 0 0 0 0 0 0 0 0 
0 0 0 0 0 0 0 0 0 
0 0 0 0 0 0 0 0 0 
0 0 0 0 0 0 0 0 0 
0 0 0 1 0 0 0 0 0 
0 0 0 0 0 0 0 0 0 
0 0 0 0 0 0 0 0 0 
0 0 0 0 0 0 0 0 0 
0 0 0 0 0 0 0 0 0 
0 0 0 0 0 0 0 0 0 
0 0 0 0 0 0 0 0 0 
0 0 0 0 0 0 0 0 0 
0 0 0 0 0 0 0 0 0 
0 0 0 0 0 0 0 0 0 
0 0 0 0 0 0 0 0 0 
0 0 0 0 0 0 0 0 0 
0 0 0 0 0 0 0 0 0 
0 0 0 0 0 0 0 0 0 
0 0 0 0 0 0 0 0 0 
0 0 0 0 0 0 0 0 0 
0 0 0 0 0 0 0 0 0 
0 0 0 0 0 0 0 0 0 
0 0 0 0 0 0 0 0 0 
0 0 0 0 0 0 0 -1 0 
0 0 0 0 0 0 0 0 0 
0 0 0 1 0 0 0 0 0 
0 0 0 0 0 0 0 0 0 
0 0 0 0 0 0 0 0 0 
0 0 0 0 0 0 0 0 0 
0 -1 0 0 0 0 0 0 0 
0 0 0 1 0 0 0 0 0 
0 0 0 0 0 0 0 0 0 
0 0 0 0 0 0 0 0 0 
0 0 0 0 0 0 0 0 0 
0 0 0 0 0 0 0 0 0 
0 0 0 0 0 0 0 0 0 
0 0 -1 0 0 -1 0 0 0 
0 0 0 0 0 0 0 0 0 
1 0 0 0 0 0 0 0 0 
0 0 0 0 0 0 0 0 0 
0 0 0 0 0 0 0 0 0 
0 0 0 0 0 -1 0 0 0 
0 0 -1 0 0 -1 1 0 -1 
0 0 -1 0 0 -1 0 0 0 
0 0 0 0 0 -1 0 0 0 
0 0 0 0 0 0 0 0 0 
0 0 0 0 1 0 0 0 0 
0 0 0 0 0 0 0 0 0 
0 0 0 0 0 0 0 0 0 
0 0 1 0 0 1 0 0 0 
0 0 0 0 0 1 0 1 0 
0 0 0 0 0 0 0 1 0 
0 0 0 0 0 0 0 0 0 
0 0 0 0 0 1 0 0 0 
0 0 0 0 0 0 0 0 0 
0 0 0 0 0 1 0 0 0 
0 0 0 0 1 0 0 1 0 
0 0 0 0 0 0 0 0 0 
0 0 0 0 0 0 0 0 0 
0 0 0 0 0 0 0 0 0 
0 0 0 0 0 0 0 0 0 
0 0 0 0 0 0 0 0 0 
0 0 0 0 0 0 0 1 0 
0 0 0 0 0 0 0 0 0 
0 0 0 0 0 0 0 0 0 
0 0 0 0 0 0 0 0 0 
0 0 0 0 1 0 0 0 0 
0 0 0 0 0 0 0 0 0 
0 0 0 0 0 0 0 0 0 
-1 0 0 0 0 0 0 0 0 
0 0 0 0 0 0 0 0 0 
0 0 0 0 0 0 0 0 0 
0 0 0 0 1 0 0 0 0 
0 0 0 0 0 0 0 0 0 
0 0 0 0 0 0 0 0 0 
0 0 0 0 0 0 0 0 0 
0 0 0 0 0 0 0 0 0 
0 0 0 0 0 0 0 0 0 
0 0 0 0 0 0 0 0 0 
0 0 0 0 0 0 0 0 0 
0 0 0 0 0 0 0 0 0 
0 0 0 0 0 0 0 0 0 
0 0 0 0 0 0 0 0 0 
0 0 0 0 0 0 0 0 0 
0 0 0 0 0 0 0 0 0 
-1 0 0 0 0 0 0 0 0 
0 0 0 0 0 0 0 0 0 
0 0 0 0 0 0 0 0 0 
0 0 0 0 0 0 0 1 0 
0 1 0 0 0 0 0 0 0 
0 0 0 0 0 0 0 0 0 
0 0 0 0 0 0 0 0 0 
0 0 0 0 0 0 0 0 0 
0 0 0 0 0 0 0 0 0 
0 0 0 0 0 0 0 0 0 
0 0 0 0 0 0 0 0 0 
-1 0 0 0 0 0 0 0 0 
0 0 0 0 0 0 0 0 0 
0 0 0 0 0 0 0 0 0 
0 0 0 0 0 0 0 0 0 
0 0 0 0 0 0 0 0 0 
-1 1 0 0 0 0 0 0 0 
0 0 0 0 0 0 0 0 0 
0 0 0 0 0 0 0 0 0 
0 0 0 -1 0 0 0 0 0 
0 0 0 0 0 0 0 0 0 
0 0 0 0 0 0 0 0 0 
0 1 0 0 0 0 0 0 0 
-1 0 0 0 0 0 0 0 0 
0 0 0 0 0 0 0 0 0 
0 0 0 0 0 0 0 0 0 
0 0 0 0 0 0 0 0 0 
0 0 0 0 0 0 0 0 0 
0 0 0 0 0 0 0 0 0 
0 0 0 0 0 0 -1 0 0 
0 0 0 0 0 0 0 0 0 
0 0 0 0 0 0 0 0 0 
0 1 0 -1 0 0 0 0 0 
0 0 0 0 0 0 0 0 0 
0 0 0 0 0 0 0 0 0 
0 0 -1 0 0 0 0 0 0 
0 0 0 0 0 0 0 0 0 
0 0 0 0 0 0 0 0 0 
0 0 0 0 0 0 0 0 -1 
0 0 -1 0 0 -1 0 0 0 
0 0 0 0 0 0 0 0 0 
0 0 0 0 0 0 0 0 0 
0 0 0 0 0 -1 0 0 0 
0 0 -1 0 0 0 0 0 0 
0 0 0 0 0 0 0 0 1 
0 0 0 0 0 0 0 0 0 
0 0 0 0 0 0 0 0 1 
0 0 0 0 0 0 0 0 1 
0 0 0 0 0 0 0 0 1 
0 0 1 0 0 0 0 0 0 
0 0 0 0 0 0 0 0 0 
0 0 0 0 0 0 0 0 0 
0 0 0 0 0 0 0 0 0 
0 0 0 -1 0 0 0 0 0 
0 0 0 0 0 0 0 0 0 
0 0 0 0 0 0 0 0 0 
0 0 0 0 0 0 0 0 0 
0 0 0 0 0 0 0 0 0 
0 0 0 0 0 0 0 0 0 
0 0 0 0 0 0 0 0 0 
0 0 0 0 0 0 0 0 0 
0 0 0 0 0 0 0 0 0 
0 0 0 0 0 0 0 0 0 
0 0 0 0 0 0 0 0 0 
0 0 0 0 0 0 0 -1 0 
0 0 0 0 0 0 0 0 0 
0 0 0 0 0 0 0 0 0 
0 0 0 -1 0 0 0 0 0 
0 0 0 0 0 0 0 0 0 
0 0 0 0 -1 0 0 0 0 
0 0 0 0 0 0 0 0 0 
0 0 0 0 0 0 0 0 0 
0 0 0 0 0 0 0 0 0 
0 0 0 0 0 0 0 0 0 
0 0 0 0 0 0 0 0 0 
0 0 0 0 -1 0 0 0 0 
0 0 0 0 0 0 0 0 0 
0 0 0 0 0 0 0 0 0 
0 0 0 0 0 0 0 0 0 
0 0 0 0 0 0 0 0 0 
0 0 0 0 0 0 0 0 0 
0 0 0 0 0 0 0 0 0 
0 -1 0 0 0 0 0 0 0 
0 0 0 0 0 0 0 0 0 
0 0 0 0 0 0 0 0 0 
0 0 0 0 0 0 0 0 0 
0 0 0 0 0 0 -1 0 0 
0 0 0 0 0 0 0 0 0 
0 0 0 0 -1 0 0 0 0 
0 0 0 0 0 0 0 0 0 
0 0 0 0 0 0 0 0 0 
0 0 0 0 0 0 0 0 0 
0 0 0 0 0 0 0 0 0 
0 0 0 0 0 0 0 0 0 
0 0 0 0 0 0 0 0 0 
-1 -1 0 0 0 0 0 0 0 
0 0 0 -1 0 0 0 0 0 
0 0 0 -1 0 0 0 0 0 
0 0 0 0 0 0 0 0 0 
0 0 0 0 0 0 0 0 0 
0 0 0 0 0 0 0 0 0 
0 0 0 0 0 0 -1 0 0 
0 0 0 0 0 0 0 0 0 
0 0 0 0 0 0 0 0 0 
0 0 0 0 0 0 0 -1 0 
0 0 0 0 0 0 0 0 0 
0 0 0 0 0 0 0 0 0 
0 0 0 0 0 0 0 0 0 
0 0 0 0 0 0 0 0 0 
0 0 0 0 0 0 0 0 0 
0 0 0 0 0 0 0 0 0 
0 0 0 0 0 0 0 0 0 
0 0 0 0 0 0 0 0 0 
-1 0 0 0 0 0 0 0 0 
0 0 0 0 0 0 0 0 0 
0 0 0 0 0 0 0 0 0 
0 0 0 0 0 0 0 -1 0 
-1 0 0 0 0 0 0 0 0 
0 0 0 0 0 0 0 0 0 
-1 0 0 0 0 0 0 0 0 
0 0 0 0 0 0 0 0 -1 
0 -1 0 0 0 0 0 0 0 
0 0 -1 0 0 0 0 0 -1 
0 0 0 0 0 -1 0 0 0 
0 0 0 0 0 -1 0 0 0 
0 0 -1 0 0 -1 0 0 0 
0 0 0 0 0 0 0 -1 0 
0 0 0 
v 3 1000 double
-0.31389071068 -0.31572935898 -0.55088110618 -0.59429846623 0.37680805778 0.22216959814 -0.33591242867 -0.22012860661 0.64974037942 
0.005949704585 -0.40242353465 -0.045921149788 0.34214161069 -0.56215338155 0.22503631992 -0.43708746765 -0.23838847053 -0.66469819506 
-0.37504889303 1.6080986626 -0.65789642805 1.2437124662 -0.89336344635 -1.79168695 -0.70940192725 -0.75662192607 -0.75243169274 
-0.56361662435 -0.38243897672 -0.23090455016 -0.093893925875 -0.41759101145 0.098366093298 -0.77645270094 -0.22217583448 -0.5226988214 
-0.54829828757 1.3005721285 0.88667558748 -0.039704277222 0.51678051597 1.0247179091 0.45394169513 0.26507703087 -0.17506587443 
0.53387824166 -0.95328277652 -0.29362283974 0.40088304848 0.42249119927 0.47402727249 0.14975593237 0.1708661624 1.2220550229 
1.0379309781 1.4096673088 -0.30390979 1.8135354329 -0.0054276313566 -1.542609956 -0.020840734346 -0.30088372072 -0.39223340042 
-0.52138256205 -0.35069540159 0.33084935207 -0.57484328452 0.71162990448 0.8271279841 0.08567299136 -0.20004498549 0.13551601463 
1.0251292706 0.14010061421 -1.130335247 -1.2077019405 -1.1723226433 -0.2332015898 -0.85397552405 -0.041959519378 0.70208734215 
-1.2750055314 -1.8471382667 0.33721229244 -0.80970045184 -0.85820586379 -0.12903401613 1.4617335924 -0.24624425689 -0.70516607206 
1.6480631769 -1.1490359613 -0.71345873767 -0.78745060815 -1.6546566862 -0.24206465131 -0.90793936351 -0.085256220909 0.77173392277 
-1.6066587969 -1.8441208638 0.065199729326 -0.18989658342 -1.1093365791 -1.4216079816 2.130264384 1.8782894213 -2.2231111064 
-0.29787469649 0.40239176991 0.7602526832 -1.0822843676 -0.98088355221 -0.77189227398 -1.448945846 -0.75278680654 -0.62164134537 
0.66555762968 -0.73816080908 -1.4988801171 0.77236953437 -0.50602628716 0.00044802429127 -0.81715616151 -0.13764171 0.47510399381 
-0.50310960643 -0.93613361939 -0.45840167993 0.30802385277 -0.89990066929 -0.81514257483 0.97718753793 -0.37681671154 -1.1128804426 
0.13443463805 -0.57780043618 -1.7452629061 -0.24611238523 0.54770444888 -1.8274772497 0.7745177496 -0.98782204379 0.49957159934 
-0.26661073391 -1.2831836224 0.23394071257 -0.078687573604 -1.0231559685 -1.6387661541 1.3412167056 0.91592980809 -3.0052912271 
0.035621613533 0.32617484851 -1.499533577 -1.4588890564 -0.81698793168 -0.27545956762 -0.26501629028 -0.43135716169 -1.5390015858 
-0.10068750609 -0.48797833521 0.66385688106 1.9718201492 -1.818487123 -1.0183940973 0.012788042919 0.37338649689 0.072770814687 
0.5934400222 0.084930351077 -1.52242943 1.4303329893 -2.743823505 2.2658262402 -0.29865316423 -0.58657198532 -0.4230171446 
-0.15800247969 0.40757528417 -1.178250922 -0.99431348931 -0.95256082619 0.38438996381 -0.26364727286 -1.3000658088 0.94618135359 
-0.20624356753 -0.9959154219 -1.7269706477 0.64495469899 -0.22243930492 -1.5662722718 -1.1546740975 -1.1449831926 0.3494101236 
-0.39946549871 -0.80895937942 -0.082344628805 -0.47444603859 0.28240355181 -1.683558927 -0.75641247451 0.016420716996 -2.1187864925 
0.21554349354 -0.44783476629 -2.1731749818 -0.49644042394 -0.029247730522 -1.3003536264 2.1548476901 -2.2729928564 -1.3800989641 
1.7068114209 1.2963563205 -0.58560065458 -0.4138922438 0.59352531748 -2.9647452349 0.22701681646 -1.043293918 -1.1081948199 
-1.0001119493 -0.48593854159 -0.55559532718 -0.93463891836 -1.5657831886 -1.3488734929 0.35097864424 0.16832839005 -1.2691385578 
-0.19093443582 -1.7277973061 -1.4735772546 0.2054453604 -1.2029526036 0.40569038489 0.47772390845 -0.68473164308 0.6729624988 
-0.48268950208 0.016411186512 -0.376194873 1.6746002778 -0.62480041569 -0.0053945878451 1.7181877964 -1.4886263927 -1.7332181986 
-0.76040910272 0.79040817363 -0.63030065505 -0.1361032927 -0.82425844667 0.78748600498 -0.12189081427 -0.29720630193 -0.98644233963 
0.096315966354 0.22359898875 -0.29233080625 -0.31009746802 -0.94516556524 1.2985879757 0.64444970794 0.20416517899 -1.1576394605 
-0.014965478085 0.43892883357 -0.65794188868 0.43874775071 -0.6731205089 -1.7977325566 0.3918184447 0.59704835206 -0.58912400342 
0.025485119926 -1.402308342 0.085166715193 0.026920935208 -0.075660578173 -0.59453205613 0.11451169822 -0.71891500405 -1.2828476818 
0.43573270803 0.11584594118 -2.1594622257 -0.92730109433 -1.4432531054 -1.3582735475 -1.3141408782 -1.7411524089 1.4590370934 
-0.01183153832 0.1559019675 -2.5390233044 -0.91460247906 -0.33781864236 1.4641233887 -0.54843247479 -0.21884702155 -0.33018649773 
0.97733552581 -1.0170573112 -1.7909532668 0.71552928832 -0.58094831404 -1.9132572929 -0.91441497736 -0.87850158286 -1.0916240163 
0.12985918265 -0.38451451547 -1.3093785188 0.69434199207 0.44692093058 -1.0977976962 0.60672080047 -0.62647549215 1.3764327143 
0.030995251012 0.17248067162 0.27770895023 0.91785214711 -1.3266252683 0.86736810783 1.1140031484 -0.1070176251 1.1599067988 
-0.24289854485 -0.01741599429 1.0409591745 -0.41971763478 0.57639721551 -1.024265408 2.2064912503 -0.67186266562 1.3425369862 
-0.80716515363 -1.3471975924 0.90009451204 1.3607480805 -0.48402740347 -0.81351847421 2.5089466315 -0.016384923636 -0.28586774477 
-0.8618771984 0.080133747014 0.65863533195 1.0066658777 0.49367489076 -1.1138134601 0.35566511358 -0.41338300026 -1.2883166093 
2.5671384198 -1.1442978642 1.1683472506 1.0426059263 -0.15172264724 -0.59924321836 -0.91045377834 1.1976971972 0.39987609143 
-1.9444003134 0.15196994075 -1.4368412535 -0.76192455813 0.5530287503 -1.2052657924 -0.93192993699 -0.1089229087 1.1483627527 
-0.52402414523 -0.02781173765 -0.11929581253 -0.44521062031 -0.36046461085 0.54795721934 -0.35645363781 0.26390848767 -0.78904660775 
-0.27733884029 0.11217696918 0.11627950841 -0.050703109112 -0.24190054802 0.72446126615 -0.97513261351 -1.4696241225 1.3965687037 
1.6341317634 0.019817350057 0.95153724165 0.35110576936 -0.43030032207 -0.53077608685 1.8581148371 0.90572726034 0.65057388265 
1.3384171619 0.14524950705 -0.92883567069 1.3544872275 -0.75277095936 0.24800060589 0.90456449729 -0.526895855 -0.7643330141 
-0.97283286637 -0.38905758107 -1.69440709 -0.89127755992 -1.1155730617 0.93616623566 -1.2237042389 0.5147901721 0.5271970095 
-0.72627305507 -0.17741768309 -0.90818496678 -0.83829473239 0.60617367681 -1.6018723848 0.86493162315 1.4117865851 0.95972054646 
0.26650459603 0.40678348451 0.31660905575 -0.60125571116 -0.6190489698 -0.095997812309 0.15721572743 1.1836253571 -0.47665852706 
1.4344844041 0.29315795732 0.74619782424 1.1656321734 0.77967489622 -1.1698353676 1.2005948857 0.28705321205 0.34096206051 
-0.54532162627 -1.1122479281 1.0112204356 1.0055440137 -0.094080801584 -0.69190195356 0.63475985871 -0.36866425981 -1.2127608573 
-0.31974501583 -0.61749738516 -0.54718393326 1.8261080544 0.65612414342 0.64523224495 1.2868713344 0.18555511115 1.2908106508 
2.1290264493 0.84685886826 -1.5314182412 -1.7882266666 0.17596235773 0.45408426916 -0.20975804347 0.82253638718 -0.81993362527 
-0.13651227139 -0.85686939952 -1.054551566 -0.41292796118 -0.082307042901 0.97013366681 0.83625277647 -0.60977326608 0.57379782787 
-0.84499508868 0.93534252586 -0.062421340049 0.23779034055 0.038786897082 -0.66615357803 -0.11366518906 1.6205090434 1.0870285214 
0.037976194734 1.2374635262 -0.033526193648 0.1910776659 0.30474875595 1.0267918803 1.445149626 -0.72663415461 0.017175026531 
1.3565591675 -0.32780220696 0.76944124023 0.22527311327 -0.5371135395 -0.79215078159 0.48739844462 0.089658821316 -0.033182259138 