# vtk DataFile Version 4.2
Generated by LIGGGHTS
ASCII
DATASET POLYDATA
POINTS 1000 float
0.603898 0.124689 0.0567839 2.12447 0.200015 0.480491 1.91111 0.923909 0.295842 
3.70481 0.875563 0.110661 3.80769 0.822765 0.257244 0.396397 1.57503 0.434013 
1.56568 1.58372 0.655289 3.14769 1.61971 0.126921 4.01587 1.56143 0.133139 
2.23951 2.20708 0.55228 3.14108 1.97019 0.367717 0.390024 2.64088 0.0469691 
3.3032 3.43775 0.0916274 4.91698 3.53372 0.601802 2.26778 4.35202 0.125422 
1.8945 4.75888 0.555105 3.72681 4.43734 0.623036 0.387505 0.226916 0.793517 
2.65799 0.398629 1.0473 4.31155 0.723692 1.23963 1.55386 1.26277 0.96765 
4.84767 1.36778 0.939053 2.14462 2.00124 1.22631 2.46585 2.66186 1.26847 
2.79384 3.05207 0.792219 3.28421 2.58486 1.06222 3.87691 2.68995 1.26368 
4.62762 2.92312 1.06792 3.35894 3.45634 0.894914 4.61697 3.21198 1.16511 
0.557366 3.76026 0.94713 2.82525 4.21526 1.04674 2.06672 4.51059 1.27499 
2.24077 4.67157 1.31566 3.62713 4.97612 1.20083 1.22569 0.198821 1.58231 
3.55072 0.368061 1.42318 4.29799 0.468382 1.90727 3.81126 1.12673 1.96072 
2.49781 1.81419 1.46905 2.89878 1.27152 1.66096 4.70468 2.17365 1.70943 
4.78426 2.77255 1.37554 2.33085 3.40594 1.34722 3.1781 3.62009 1.44452 
4.17243 3.82288 1.66656 3.79923 3.94172 1.75832 1.49141 4.86923 1.98405 
3.00956 4.98457 1.3425 2.21556 1.05071 2.30898 0.10211 1.40715 2.56327 
2.82921 1.31319 2.62415 4.6985 1.25387 2.05906 0.342321 2.38919 2.26141 
1.99332 2.2727 2.51787 3.49821 2.14282 2.45621 2.68785 2.9394 2.01252 
4.17196 2.51514 2.36527 4.28251 3.53706 2.5997 4.44469 3.70845 2.13533 
2.97934 3.97406 2.40007 3.83087 4.18097 2.3882 4.44757 4.17855 2.62509 
4.25671 0.610077 3.07974 4.59141 0.131668 2.70214 4.61932 0.329663 3.23805 
2.14278 1.07071 3.29913 4.97622 1.21674 3.03694 1.85954 1.64122 2.74573 
2.02838 1.84607 3.32167 2.64587 1.79883 3.2746 4.51897 1.29076 2.99643 
0.26141 2.4017 2.95287 0.971992 2.47625 2.75096 2.82699 2.37178 2.83352 
4.10168 1.87988 2.91847 0.935456 2.94203 3.22105 1.74416 3.40078 2.79194 
2.37373 3.63615 2.86297 2.16969 3.58528 2.67214 2.64954 3.71423 3.0797 
4.70077 3.56372 3.15772 1.05322 3.96121 2.97906 2.18385 4.89899 3.0408 
1.32121 0.195929 3.53556 0.567687 0.807322 3.91662 2.71896 0.893089 3.73034 
3.73914 0.815371 3.49686 0.246007 1.82809 3.7036 1.17732 2.34366 3.78721 
3.41479 2.33497 3.78036 0.207258 3.6274 3.88011 3.35732 3.39302 3.78416 
1.80961 3.87432 3.65734 0.430414 4.70091 3.84284 3.71779 4.55343 3.75143 
3.28818 4.83417 3.54258 0.0313722 0.567133 4.30591 2.44921 0.0761053 4.39647 
2.31771 0.0139783 4.60857 4.98337 0.542496 4.32042 0.912454 0.719975 4.63071 
0.305079 1.26274 4.31397 0.447651 2.19267 4.42472 1.46801 2.68983 4.62512 
2.72666 3.33417 4.04616 3.89897 3.24514 4.16771 0.284658 4.29608 4.23226 
0.0365543 4.15082 4.47276 3.37353 3.75842 4.56799 4.8389 3.99899 4.28295 
1.50974 4.63164 4.23271 2.82705 4.49056 4.43126 0.129807 0.0274384 4.74908 
0.477539 1.01307 5.09455 1.19706 0.904705 4.75553 2.07052 0.864862 5.31911 
0.312252 1.2916 4.80842 1.21381 1.71022 5.16743 4.77077 1.47544 5.13785 
0.691373 4.55558 4.87017 0.910003 4.89505 5.03116 1.59141 4.82433 5.01742 
1.79289 4.52679 4.74049 2.39952 4.66781 5.23249 2.83912 4.86878 4.94929 
4.13837 4.72515 5.098 0.0560465 0.0989348 5.67851 1.50488 0.564916 5.88905 
3.20695 0.242522 5.55595 0.744167 0.74064 5.96252 0.0295987 1.85363 5.5456 
4.11631 1.56095 5.96665 4.69266 1.71367 5.6211 0.162075 2.31447 5.79155 
1.44722 1.95596 5.40217 4.90341 2.11064 5.51916 2.11018 3.3701 5.82711 
2.63643 3.40212 5.85887 4.63373 3.24399 5.67135 0.260304 4.28329 5.35897 
1.95888 4.01143 5.43801 4.52795 4.04196 5.7319 2.1225 4.9317 5.98481 
1.15493 0.329096 6.06377 3.08863 0.358791 6.32655 1.43376 0.72986 6.26872 
1.19355 1.63509 6.2001 2.58849 1.58653 6.00997 2.94711 1.85325 6.402 
0.144486 2.86438 6.39143 3.30758 4.36569 6.28109 0.279477 4.96496 6.10226 
1.09519 4.43971 6.23922 4.83831 0.600545 7.02033 0.0752147 1.03872 7.23159 
0.719532 0.860745 6.86958 3.47056 1.1071 6.8387 0.107546 1.86406 7.17133 
1.39767 1.33902 6.97947 4.83708 1.30769 6.75764 2.39202 2.14419 7.21601 
1.91277 2.38638 7.2663 2.56426 2.45672 6.71577 3.42393 2.24601 6.91855 
2.03534 2.91058 7.27723 3.5427 2.77677 7.31177 2.17127 3.52761 6.73645 
3.04446 3.45226 6.87518 4.67768 3.58622 7.07966 2.54285 4.24747 6.84565 
3.32129 3.83655 7.31424 4.766 4.18025 7.17145 1.21036 4.81178 7.23374 
1.5169 0.170245 7.49879 3.69211 0.181987 7.74095 1.16241 1.04011 7.94591 
1.95095 0.664328 7.43509 2.90665 0.96514 7.5978 3.00926 1.75197 7.50066 
4.10062 1.77463 7.65181 1.04626 2.21047 7.87862 1.68059 2.3659 7.44102 
2.58799 2.08802 7.35831 4.52064 2.23518 7.53136 0.0398051 2.74862 7.7094 
2.06415 2.62065 7.8648 2.63558 3.44342 7.53696 3.99151 3.63282 7.44795 
0.515143 4.9118 7.70474 2.8974 4.99144 7.77428 3.95074 4.86836 7.89839 
0.505416 0.0897509 8.09351 2.388 0.195001 8.14492 1.02229 0.715162 8.32607 
3.35822 1.83837 8.20756 3.81604 1.73 8.63485 4.1875 1.61123 8.36315 
1.21715 2.06645 8.55573 1.12553 2.39825 8.23896 1.20849 2.50928 8.00812 
4.04933 3.03845 8.62528 2.77593 3.44562 8.23545 0.0820654 3.79322 8.22043 
3.57304 4.20978 8.66502 2.12693 4.62875 8.64002 2.78619 4.66583 8.4608 
3.97951 4.62084 8.17875 0.081315 0.384842 9.14615 0.96435 0.155558 9.01451 
2.68434 0.415826 9.10304 4.59558 0.590082 8.71712 0.0618792 1.11276 9.23323 
0.529524 1.46625 8.77291 2.67117 1.30646 8.79001 3.53705 2.15659 8.95084 
0.85828 3.08338 8.76098 1.20658 2.77734 9.02383 3.57767 3.66731 9.30285 
4.42436 3.21744 8.94185 3.15804 4.38939 8.71417 2.55414 0.87375 9.45631 
0.202563 1.44564 9.45134 1.02902 1.61854 9.92594 2.95676 1.82901 9.56418 
3.8807 1.39197 9.57575 0.426146 2.16328 9.75028 1.11839 2.83651 9.45669 
4.81624 2.73683 9.55228 0.00878025 3.73025 9.98471 1.99095 3.32376 9.54622 
4.56154 3.67859 9.6322 1.97733 4.07596 9.88856 4.70113 3.94426 9.79627 
2.71132 4.6625 9.50207 4.42377 4.43143 9.41543 2.18272 5.0244 0.176843 
4.09648 5.38252 0.324166 0.799029 6.00236 0.654479 3.06618 6.00669 0.179986 
3.74668 6.12328 0.194052 4.25869 6.00944 0.026221 4.84438 5.78842 0.121813 
1.44019 6.43739 0.0855169 2.38185 7.33811 0.576244 4.77823 7.56173 0.604232 
1.98362 8.69639 0.307632 4.38437 8.34177 0.664144 0.260289 9.57433 0.512232 
2.74253 9.65714 0.37705 4.10556 9.60037 0.230928 4.74953 9.62342 0.545838 
4.62657 9.64129 0.0952048 0.737194 5.32363 0.758591 2.21895 5.08588 1.32237 
4.77627 5.24805 1.31951 2.69509 5.64182 0.901415 1.35172 6.84497 0.750217 
1.62275 6.48444 1.26145 3.95248 6.40184 0.85757 3.26536 7.2329 0.895472 
4.1062 6.96877 0.867405 1.16419 7.63815 1.00305 1.11722 8.0452 1.03552 
4.69289 8.31207 1.19793 1.48861 9.08735 1.1345 3.25881 8.83405 0.700067 
4.39278 9.10374 0.972886 4.87783 9.12296 0.913508 3.26868 9.79768 0.781706 
1.76441 5.28977 1.94615 0.541408 5.94547 1.4334 0.0408874 6.03063 1.95991 
1.93405 6.07995 1.86822 2.96411 5.7206 1.53873 3.86509 6.12297 1.5723 
0.721918 6.42417 1.78109 2.16589 6.32665 1.34757 3.72658 6.48126 1.61261 
0.249179 7.29857 1.52888 0.310862 8.07494 1.69615 2.01598 8.02406 1.48618 
4.00975 7.5707 1.82186 2.57567 8.72248 1.85629 0.0379725 8.8742 1.96831 
3.68034 9.1305 1.99057 2.36031 9.81059 1.57927 2.6406 9.9831 1.70769 
2.09003 5.89286 2.08516 0.528402 6.76964 2.26629 1.94963 6.41554 2.46057 
3.3068 6.51548 2.6206 3.92226 6.5108 2.56441 4.71222 6.52335 2.43086 
0.537199 8.54178 2.57115 1.86932 8.39799 2.01068 2.04248 8.71905 2.5529 
3.03805 8.55283 2.53998 3.70044 8.27702 2.28553 4.0263 8.46312 2.5984 
1.46194 8.78852 2.27632 2.74397 9.04499 2.1884 3.5115 8.9141 2.62912 
2.67329 9.6425 2.1716 3.7924 5.576 2.83889 4.71204 6.1841 3.17284 
1.45655 6.73067 2.75175 2.59966 6.60247 3.09055 0.53495 7.08486 2.74299 
1.52235 7.17909 2.99365 2.06756 6.96588 2.87734 3.23518 7.33422 2.84128 
2.16722 8.20385 2.7855 0.82189 8.75787 2.70925 1.61095 9.21083 3.33224 
2.15219 8.84802 3.09518 2.50542 8.85394 2.72526 4.34726 9.11005 2.79859 
1.30578 9.97051 3.10178 3.58684 9.48929 3.16779 0.944849 6.14503 3.85998 
1.7443 5.65653 3.48995 3.81971 5.77291 3.76873 4.0127 6.61079 3.40091 
4.56355 6.54217 3.48959 4.43918 6.95919 3.85533 2.7461 7.7598 3.78603 
3.70573 7.66962 3.8031 2.49215 8.57052 3.8021 4.30611 8.26098 3.40856 
0.633193 8.81055 3.46063 3.20674 9.02089 3.68359 3.7466 9.74342 3.85692 
3.20773 9.78821 3.46428 2.68381 6.21689 4.47964 4.38528 5.64047 4.07468 
0.575937 6.50281 4.37437 4.06053 6.35284 4.20607 2.3204 7.41495 4.64385 
3.38172 7.39301 4.24441 0.762733 8.01087 4.081 1.38721 8.0068 4.47093 
1.48057 7.74286 4.058 3.82932 7.83552 4.46792 3.18851 8.5482 4.10402 
4.41367 8.61243 4.57811 1.3113 9.22862 4.56182 2.39194 9.15314 4.4121 
1.91723 9.13828 4.20762 4.71769 9.49623 4.07071 0.118236 5.04525 4.91421 
4.65173 5.40469 4.72072 1.1195 5.78878 4.69986 0.674048 5.95133 4.81107 
2.06873 6.29348 4.94829 0.033991 7.43412 4.82262 0.66207 6.93199 5.2256 
3.61763 7.0223 4.81357 0.47901 7.50214 5.03229 0.119385 7.85947 5.28452 
2.18174 7.60032 5.25003 2.99145 7.771 4.77409 3.93486 7.64101 4.76563 
1.3192 8.21463 4.90429 2.24685 8.57419 5.13055 3.57992 8.40149 5.19626 
1.4588 9.12408 5.00284 3.04151 8.98981 4.66849 4.34914 9.33444 4.86042 
3.07256 9.89311 5.14356 1.97017 5.50843 5.43867 4.67043 6.06414 5.4113 
1.67582 6.85843 5.63358 4.08829 6.38117 5.95927 0.387188 7.72019 5.97599 
1.65822 7.68745 5.35156 3.45116 8.01825 5.36437 4.68417 8.06534 5.65571 
0.78068 8.66959 5.65954 2.79214 8.2079 5.8659 3.31204 8.63312 5.92998 
3.91715 8.53865 5.93204 1.39233 9.72003 5.76279 4.74951 9.65057 5.91261 
0.0322888 5.27928 6.08163 1.85933 5.14118 6.05589 2.58495 5.70645 6.1625 
2.59789 5.94955 6.51046 0.418174 6.69002 6.33888 1.63797 6.38839 6.50313 
2.95178 6.42045 6.5067 0.287539 7.46753 6.19719 4.01392 6.99075 6.43846 
4.33043 7.87592 6.11375 1.40004 8.21416 6.64613 4.42575 8.64831 6.18563 
1.56811 9.11825 6.36982 0.519133 9.81596 6.47049 0.18438 9.37647 6.59167 
1.90178 9.70457 6.40624 3.11422 9.65374 6.27999 1.44839 6.2957 6.68299 
[...]
POINT_DATA 1000
FIELD FieldData 7
id 1 1000 int
9 520 509 507 528 2 519 531 506 
20 11 526 515 525 510 503 527 16 
530 502 14 18 518 522 501 505 10 
512 12 513 17 6 504 529 517 3 
5 8 13 523 514 524 15 1 21 
516 4 508 511 548 545 544 35 23 
541 554 7 38 543 537 547 532 550 
555 39 40 22 533 534 26 540 552 
536 551 31 557 42 30 24 41 556 
546 37 32 29 34 33 535 553 539 
538 549 25 36 27 28 542 570 560 
562 565 561 71 68 48 53 58 69 
563 44 558 67 54 65 55 63 51 
49 62 47 50 571 43 45 572 60 
559 564 566 59 64 57 61 46 567 
70 569 66 52 574 573 568 575 56 
95 588 578 84 80 583 99 92 91 
103 85 90 579 78 100 86 582 580 
585 589 96 81 584 592 101 83 591 
581 102 77 587 82 590 72 576 97 
74 88 93 79 87 76 73 586 75 
98 577 89 122 118 119 125 104 126 
107 111 593 110 117 108 106 115 601 
598 124 112 120 123 127 116 602 121 
597 605 114 105 594 604 606 607 599 
128 610 600 608 272 603 595 109 609 
596 113 521 143 612 628 151 618 619 
137 635 629 625 617 132 133 140 150 
633 142 129 145 630 152 634 620 134 
616 148 611 623 138 144 149 631 141 
626 130 632 131 613 627 622 135 614 
139 621 147 615 624 136 157 146 636 
168 175 642 658 653 159 160 641 646 
171 651 161 173 647 155 640 158 166 
156 643 648 659 650 657 639 163 644 
167 154 660 174 172 656 162 655 645 
164 165 637 652 169 153 649 638 654 
170 194 668 177 680 180 193 185 199 
682 686 182 676 677 661 673 192 669 
672 190 666 681 198 183 675 189 186 
178 181 184 679 684 678 670 662 195 
187 664 674 179 683 176 671 196 685 
665 191 188 197 667 663 709 702 207 
219 693 701 689 204 703 206 690 688 
205 213 706 220 707 203 215 218 210 
705 209 708 200 710 214 711 700 704 
212 201 202 208 694 211 697 695 698 
692 741 691 687 221 696 216 217 699 
240 743 224 712 720 714 222 243 225 
238 734 241 227 244 230 715 233 713 
742 235 242 721 737 736 729 229 237 
234 728 732 727 733 740 725 223 248 
726 735 247 228 739 717 738 719 730 
239 723 984 716 246 231 245 236 722 
724 226 718 731 773 257 252 750 251 
256 765 259 764 767 270 761 754 744 
260 271 752 266 749 771 758 250 756 
253 258 747 768 753 757 745 268 254 
769 760 762 255 770 273 249 262 261 
759 269 751 748 746 763 755 19 267 
772 766 265 263 777 413 790 778 296 
782 287 277 781 286 794 791 302 299 
788 297 300 283 275 784 775 780 290 
282 785 293 292 789 783 786 793 281 
776 276 288 301 787 795 298 792 779 
291 289 295 279 774 284 285 278 280 
274 294 306 818 324 319 325 808 318 
323 812 813 313 816 805 316 322 304 
811 321 803 320 806 308 307 797 305 
796 817 310 314 315 309 799 317 810 
809 303 798 802 814 804 311 815 807 
801 312 800 821 349 355 819 832 831 
340 332 343 348 345 835 335 820 334 
830 353 827 825 342 338 337 833 354 
333 346 823 94 331 350 351 336 837 
341 834 344 339 952 829 824 828 347 
822 826 329 330 836 326 327 352 328 
373 870 858 857 848 854 852 840 359 
869 845 864 377 853 371 850 376 379 
374 380 370 839 855 861 364 847 357 
856 867 868 378 849 365 851 838 375 
360 844 865 860 862 372 363 863 843 
362 366 356 866 368 842 841 846 361 
369 358 367 859 890 875 404 385 394 
401 897 392 390 872 884 391 873 880 
886 396 889 264 399 389 403 384 888 
871 892 383 877 395 878 887 405 387 
400 881 895 398 876 896 381 382 891 
386 898 874 388 393 882 397 883 885 
894 893 879 402 437 911 424 909 423 
432 419 431 927 922 923 899 410 914 
901 426 411 921 422 908 926 928 417 
904 903 912 414 902 918 412 915 415 
425 916 917 407 429 438 436 905 906 
433 427 900 430 406 919 408 418 924 
420 428 907 920 439 434 416 409 925 
421 910 435 913 459 939 942 450 945 
453 461 457 940 440 946 944 937 951 
449 442 948 443 447 930 947 941 444 
950 448 446 943 462 929 452 445 933 
460 938 451 936 458 932 455 441 949 
935 456 931 454 934 464 967 475 966 
468 970 960 953 470 465 471 962 976 
971 469 478 965 472 956 955 977 968 
958 477 964 954 473 474 466 973 467 
476 957 961 975 974 479 959 969 972 
963 463 494 995 481 497 998 489 493 
992 999 487 499 491 485 988 994 996 
997 989 985 483 495 986 979 486 480 
991 484 482 492 488 980 1000 500 498 
978 496 990 981 232 983 982 993 987 
490 
type 1 1000 int
1 2 2 2 2 1 2 2 2 
1 1 2 2 2 2 2 2 1 
2 2 1 1 2 2 2 2 1 
2 1 2 1 1 2 2 2 1 
1 1 1 2 2 2 1 1 1 
2 1 2 2 2 2 2 1 1 
2 2 1 1 2 2 2 2 2 
2 1 1 1 2 2 1 2 2 
2 2 1 2 1 1 1 1 2 
2 1 1 1 1 1 2 2 2 
2 2 1 1 1 1 2 2 2 
2 2 2 1 1 1 1 1 1 
2 1 2 1 1 1 1 1 1 
1 1 1 1 2 1 1 2 1 
2 2 2 1 1 1 1 1 2 
1 2 1 1 2 2 2 2 1 
1 2 2 1 1 2 1 1 1 
1 1 1 2 1 1 1 2 2 
2 2 1 1 2 2 1 1 2 
2 1 1 2 1 2 1 2 1 
1 1 1 1 1 1 1 2 1 
1 2 1 1 1 1 1 1 1 
1 1 2 1 1 1 1 1 2 
2 1 1 1 1 1 1 2 1 
2 2 1 1 2 2 2 2 2 
1 2 2 2 1 2 2 1 2 
2 1 2 1 2 2 1 2 2 
1 2 2 2 2 1 1 1 1 
2 1 1 1 2 1 2 2 1 
2 1 2 2 1 1 1 2 1 
2 1 2 1 2 2 2 1 2 
1 2 1 2 2 1 1 1 2 
1 1 2 2 2 1 1 2 2 
1 2 1 1 2 1 2 1 1 
1 2 2 2 2 2 2 1 2 
1 1 2 1 1 2 1 2 2 
1 1 2 2 1 1 2 2 2 
1 1 2 1 2 1 1 1 1 
2 2 1 2 2 2 2 1 2 
2 1 2 2 1 1 2 1 1 
1 1 1 2 2 2 2 2 1 
1 2 2 1 2 1 2 1 2 
2 1 1 1 2 2 2 2 1 
1 2 2 2 1 2 1 2 2 
1 1 2 1 2 1 1 1 1 
2 1 2 1 2 1 2 2 2 
1 1 1 1 2 1 2 2 2 
2 2 2 2 1 2 1 1 2 
1 2 1 2 2 2 1 1 1 
1 2 1 1 1 1 2 1 2 
2 1 1 2 2 2 2 1 1 
1 2 2 2 2 2 2 1 1 
2 2 1 1 2 2 2 2 2 
1 2 2 2 1 1 1 1 2 
2 1 2 2 2 1 1 2 1 
1 2 1 2 2 1 2 2 2 
1 1 2 1 2 2 2 1 2 
1 1 2 2 2 2 2 1 1 
2 2 2 1 2 1 1 1 1 
2 1 2 2 2 2 2 1 1 
2 2 1 1 2 1 2 2 1 
2 1 1 2 1 2 2 1 1 
2 1 1 1 1 2 2 2 1 
1 2 1 1 2 2 2 2 1 
2 1 1 1 2 2 1 2 2 
1 1 1 1 2 1 1 1 1 
1 1 1 2 1 1 1 2 1 
1 2 2 1 2 2 1 1 1 
2 1 2 1 2 1 1 2 1 
2 2 1 1 1 1 2 1 2 
2 1 2 2 2 2 1 2 2 
2 1 2 2 1 1 2 2 2 
1 1 1 1 1 2 1 2 1 
2 1 2 2 1 1 1 2 1 
1 1 2 1 1 1 1 1 2 
1 2 1 1 2 2 2 2 1 
2 2 1 1 2 1 1 1 1 
1 2 2 2 2 2 2 2 1 
2 2 2 1 2 1 2 1 1 
1 1 1 2 2 2 1 2 1 
2 2 2 1 2 1 2 2 1 
1 2 2 2 2 1 1 2 2 
1 1 1 2 1 2 2 2 1 
1 1 1 2 2 2 1 1 1 
1 2 1 1 2 2 1 2 2 
2 1 2 1 1 1 1 1 2 
2 2 1 2 1 2 2 1 1 
1 2 2 1 2 2 1 1 2 
1 2 2 1 1 2 1 2 2 
2 2 2 1 1 2 1 2 1 
1 1 1 2 2 2 2 1 2 
2 1 1 2 1 2 2 2 1 
2 2 2 1 2 2 1 2 1 
1 2 2 1 1 1 1 2 2 
1 1 2 1 1 2 1 1 2 
1 1 2 2 1 1 1 1 2 
1 2 1 2 1 2 2 1 2 
1 1 1 2 1 2 2 2 2 
1 1 2 1 1 2 2 2 1 
2 1 1 2 1 2 1 1 2 
1 2 1 2 1 2 1 1 2 
2 1 2 1 2 1 2 1 2 
1 2 2 2 1 1 1 2 2 
2 1 1 2 1 2 2 2 2 
2 1 2 2 1 1 1 2 1 
1 2 2 2 2 1 2 2 2 
2 1 1 2 1 1 2 1 1 
2 2 1 1 1 1 2 2 2 
2 2 2 1 1 2 2 1 1 
2 1 1 1 1 2 2 1 1 
2 1 2 2 1 2 2 2 2 
1 
i 3 1000 int
0 0 0 0 0 0 0 0 0 
0 0 0 0 0 0 0 0 0 
0 0 0 0 0 0 0 0 0 
0 0 0 0 0 0 0 0 0 
0 0 0 0 0 0 0 0 0 
0 0 0 0 0 0 0 0 0 
0 0 0 0 0 0 0 0 0 
0 0 0 0 0 0 0 0 0 
0 0 0 0 0 0 0 0 0 
0 0 0 0 0 0 0 0 0 
0 0 0 0 0 0 0 0 0 
0 0 0 0 0 0 0 0 0 
0 0 0 0 0 0 0 0 0 
0 0 0 0 0 0 0 0 0 
0 0 0 0 0 0 0 0 0 
0 0 0 0 0 0 0 0 0 
0 0 0 0 0 0 0 0 0 
0 0 0 0 0 0 0 0 0 
0 0 0 0 0 0 0 0 0 
0 0 0 0 0 0 0 0 0 
0 0 0 0 0 0 0 0 0 
0 0 0 0 0 0 0 0 0 
0 0 0 0 0 0 0 0 0 
0 0 0 0 0 0 0 0 0 
0 0 0 0 0 0 0 0 0 
0 0 0 0 0 0 0 0 0 
0 0 0 0 0 0 0 0 0 
0 0 0 0 0 0 0 0 0 
0 0 0 0 0 0 0 0 0 
0 0 0 0 0 0 0 0 0 
0 0 0 0 0 0 0 0 0 
0 0 0 0 0 0 0 0 0 
0 0 0 0 0 0 0 0 0 
0 0 0 0 0 0 0 0 0 
0 0 0 0 0 0 0 0 0 
0 0 0 0 0 0 0 0 0 
0 0 0 0 0 0 0 0 0 
0 0 0 0 0 0 0 0 0 
0 0 0 0 0 0 0 0 0 
0 0 0 0 0 0 0 0 0 
0 0 0 0 0 0 0 0 0 
0 0 0 0 0 0 0 0 0 
0 0 0 0 0 0 0 0 0 
0 0 0 0 0 0 0 0 0 
0 0 0 0 0 0 0 0 0 
0 0 0 0 0 0 0 0 0 
0 0 0 0 0 0 0 0 0 
0 0 0 0 0 0 0 0 0 
0 0 0 0 0 0 0 0 0 
0 0 0 0 0 0 0 0 0 
0 0 0 0 0 0 0 0 0 
0 0 0 0 0 0 0 0 0 
0 0 0 0 0 0 0 0 0 
0 0 0 0 0 0 0 0 0 
0 0 0 0 0 0 0 0 0 
0 0 0 0 0 0 0 0 0 
0 0 0 0 0 0 0 0 0 
0 0 0 0 0 0 0 0 0 
0 0 0 0 0 0 0 0 0 
0 0 0 0 0 0 0 0 0 
0 0 0 0 0 0 0 0 0 
0 0 0 0 0 0 0 0 0 
0 0 0 0 0 0 0 0 0 
0 0 0 0 0 0 0 0 0 
0 0 0 0 0 0 0 0 0 
0 0 0 0 0 0 0 0 0 
0 0 0 0 0 0 0 0 0 
0 0 0 0 0 0 0 0 0 
0 0 0 0 0 0 0 0 0 
0 0 0 0 0 0 0 0 0 
0 0 0 0 0 0 0 0 0 
0 0 0 0 0 0 0 0 0 
0 0 0 0 0 0 0 0 0 
0 0 0 0 0 0 0 0 0 
0 0 0 0 0 0 0 0 0 
0 0 0 0 0 0 0 0 0 
0 0 0 1 0 -1 0 0 0 
0 0 0 0 0 0 0 0 0 
0 0 0 0 0 0 0 0 0 
0 0 0 0 0 0 0 0 0 
0 0 0 0 0 0 0 0 0 
0 0 0 0 0 0 0 0 0 
0 0 0 0 0 0 0 0 0 
0 0 0 0 0 0 0 0 0 
0 0 0 0 0 0 0 0 0 
0 0 0 0 0 0 0 0 0 
0 0 0 0 0 0 0 0 0 
0 0 0 0 0 0 0 0 0 
0 0 0 0 0 0 0 0 0 
0 0 0 0 0 0 0 0 0 
0 0 0 0 0 0 0 0 0 
0 0 0 0 0 0 0 0 0 
0 0 0 0 0 0 0 0 0 
0 0 0 0 0 0 0 0 0 
0 0 0 0 0 0 0 0 0 
0 0 0 0 0 0 0 0 0 
0 0 0 0 0 0 0 0 0 
0 0 0 0 0 0 0 0 0 
0 0 0 0 0 0 0 0 0 
0 0 0 0 0 0 0 0 0 
0 0 0 0 0 0 0 0 0 
0 0 0 0 0 0 0 0 0 
0 0 0 0 0 0 0 0 0 
0 0 0 0 0 0 0 0 0 
0 0 0 0 0 0 0 0 0 
0 0 0 0 0 0 0 0 0 
0 0 0 0 0 0 0 0 0 
0 0 0 0 0 0 0 0 0 
0 0 0 0 0 0 0 0 0 
0 0 0 0 0 0 0 0 0 
0 0 0 0 0 0 0 0 0 
0 0 0 0 0 0 0 0 0 
0 0 0 0 0 0 0 0 0 
0 0 0 0 0 0 0 0 0 
0 0 0 0 0 0 0 0 0 
0 0 0 0 0 0 0 0 0 
0 0 0 0 0 0 0 0 0 
0 0 0 0 0 0 0 0 0 
0 0 0 0 0 0 0 0 0 
0 0 0 0 0 0 0 0 0 
0 0 0 0 0 0 0 0 0 
0 0 0 0 0 0 0 0 0 
0 0 0 0 0 0 0 0 0 
0 0 0 0 0 0 0 0 0 
0 0 0 0 0 0 0 0 0 
0 0 0 0 0 0 0 0 0 
0 0 0 0 0 0 0 0 0 
0 0 0 0 0 0 0 0 0 
0 0 0 0 0 0 0 0 0 
0 0 0 0 0 0 0 0 0 
0 0 0 0 0 0 0 0 0 
0 0 0 0 0 0 0 0 0 
0 0 0 0 0 0 0 0 0 
0 0 0 0 0 0 0 0 0 
0 0 0 0 0 0 0 0 0 
0 0 0 0 0 0 0 0 0 
0 0 0 0 0 0 0 0 0 
0 0 0 0 0 0 0 0 0 
0 0 0 0 0 0 0 0 0 
0 0 0 0 0 0 0 0 0 
0 0 0 0 0 0 0 0 0 
0 0 0 0 0 0 0 0 0 
0 0 0 0 0 0 0 0 0 
0 0 0 0 0 0 0 0 0 
0 0 0 0 0 0 0 0 0 
0 0 0 0 0 0 0 0 0 
0 0 0 0 0 0 0 0 0 
0 0 0 0 0 0 0 0 0 
0 0 0 0 0 0 0 0 0 
0 0 0 0 0 0 0 0 0 
0 0 0 0 0 0 0 0 0 
0 0 0 0 0 0 0 0 0 
0 0 0 0 0 0 0 0 0 
0 0 0 0 0 0 0 0 0 
0 0 0 0 0 0 0 0 0 
0 0 0 0 0 0 0 0 0 
0 0 0 0 0 0 0 0 0 
0 0 0 0 0 0 0 0 0 
0 0 0 0 0 0 0 0 0 
0 0 0 0 0 0 0 0 0 
0 0 0 0 0 0 0 0 0 
0 0 0 0 0 0 0 0 0 
0 0 0 0 0 0 0 0 0 
0 0 0 0 0 0 0 0 0 
0 0 0 0 0 0 0 0 0 
0 0 0 0 0 0 0 0 0 
0 0 0 0 0 0 0 0 0 
0 0 0 0 0 0 0 0 0 
0 0 0 0 0 0 0 0 0 
0 0 0 0 0 0 0 0 0 
0 0 0 0 0 0 0 0 0 
0 0 0 0 0 0 0 0 0 
0 0 0 0 0 0 0 0 0 
0 0 0 0 0 0 0 0 0 
0 0 0 0 0 0 0 0 0 
0 0 0 0 0 0 0 0 0 
0 0 0 0 0 0 0 0 0 
0 0 0 0 0 0 0 0 0 
0 0 0 0 0 0 0 0 0 
0 0 0 0 0 0 0 0 0 
0 0 0 0 0 0 0 0 0 
0 0 0 0 0 0 0 1 0 
0 0 0 0 0 0 0 0 0 
0 0 0 0 0 0 0 0 0 
0 0 0 0 0 0 0 0 0 
0 0 0 0 0 0 0 0 0 
0 0 0 0 0 0 0 0 0 
0 0 0 0 0 0 0 0 0 
0 0 0 0 0 0 0 0 0 
0 0 0 0 0 0 0 0 0 
0 0 0 0 0 0 0 0 0 
0 0 0 0 0 0 0 0 0 
0 0 0 0 0 0 0 0 0 
0 0 0 0 0 0 0 0 0 
0 0 0 0 0 0 0 0 0 
0 0 0 0 0 0 0 0 0 
0 0 0 0 0 0 0 0 0 
0 0 0 0 0 0 0 0 0 
0 0 0 0 0 0 0 0 0 
0 0 0 0 0 0 0 0 0 
0 0 0 0 0 0 0 0 0 
0 0 0 0 0 0 0 0 0 
0 0 0 0 0 0 0 0 0 
0 0 0 0 0 0 0 0 0 
0 0 0 0 0 0 0 0 0 
0 0 0 0 0 0 0 0 0 
0 0 0 0 0 0 0 0 0 
0 0 0 0 0 0 0 0 0 
0 0 0 0 0 0 0 0 0 
0 0 0 0 0 0 0 0 0 
0 0 0 0 0 0 0 0 0 
0 0 0 0 0 0 0 0 0 
0 0 0 0 0 0 0 0 0 
0 0 0 0 0 0 0 0 0 
0 0 0 0 0 0 0 0 0 
0 0 0 0 0 0 0 0 0 
0 0 0 0 0 0 0 0 0 
0 0 0 0 0 0 0 0 0 
0 0 0 0 0 0 0 0 0 
0 0 0 0 0 0 0 0 0 
0 0 0 0 0 0 0 0 0 
0 0 0 0 0 0 0 0 0 
0 0 0 0 0 0 0 0 0 
0 0 0 0 0 0 0 0 0 
0 0 0 0 0 0 0 0 0 
0 0 0 0 0 0 0 0 0 
0 0 0 0 0 0 0 0 0 
0 0 0 0 0 0 0 0 0 
0 0 0 0 0 0 0 0 0 
0 0 0 0 0 0 0 0 0 
0 0 0 0 0 0 0 0 0 
0 0 0 0 0 0 0 0 0 
0 0 0 0 0 0 0 0 0 
0 0 0 0 0 0 0 0 0 
0 0 0 0 0 0 0 0 0 
0 0 0 0 0 0 0 0 0 
0 0 0 0 0 0 0 0 0 
0 0 0 0 0 0 0 0 0 
0 0 0 0 0 0 0 0 0 
0 0 0 0 0 0 0 0 0 
0 0 0 0 0 0 0 0 0 
0 0 0 0 0 0 0 0 0 
0 0 0 0 0 0 0 0 0 
0 0 0 0 0 0 0 0 0 
0 0 0 0 0 0 0 0 0 
0 0 0 0 0 0 0 0 0 
0 0 0 0 0 0 0 0 0 
0 0 0 0 0 0 0 0 0 
0 0 0 0 0 0 0 0 0 
0 0 0 0 0 0 0 0 0 
0 0 0 0 0 0 0 0 0 
0 0 0 0 0 0 0 0 0 
0 0 0 0 0 0 0 0 0 
0 0 0 0 0 0 0 0 0 
0 0 0 0 0 0 0 0 0 
0 0 0 0 0 0 0 0 0 
0 -1 0 0 0 0 0 0 0 
0 0 0 0 0 0 0 0 0 
0 0 0 0 0 0 0 0 0 
0 0 0 0 0 0 0 0 0 
0 0 0 0 0 0 0 0 0 
0 0 0 0 0 0 0 0 0 
0 0 0 0 0 0 0 0 0 
0 0 0 0 0 0 0 0 0 
0 0 0 0 0 0 0 0 0 
0 0 0 0 0 0 0 0 0 
0 0 0 0 0 0 0 0 0 
0 0 0 0 0 0 0 0 0 
0 0 0 0 0 0 0 0 0 
0 0 0 0 0 0 0 0 0 
0 0 0 0 0 0 0 0 0 
0 0 0 0 0 0 0 0 0 
0 0 0 0 0 0 0 0 0 
0 0 0 0 0 0 0 0 0 
0 0 0 0 0 0 0 0 0 
0 0 0 0 0 0 0 0 0 
0 0 0 0 0 0 0 0 0 
0 0 0 0 0 0 0 0 0 
0 0 0 0 0 0 0 0 0 
0 0 0 0 0 0 0 0 0 
0 0 0 0 0 0 0 0 0 
0 0 0 0 0 0 0 0 0 
0 0 0 0 0 0 0 0 0 
0 0 0 0 0 0 0 0 0 
0 0 0 0 0 0 0 0 0 
0 0 0 0 0 0 0 0 0 
0 0 0 0 0 0 0 0 0 
0 0 0 0 0 0 0 0 0 
0 0 0 0 0 0 0 0 0 
0 0 0 0 0 0 0 0 0 
0 0 0 0 0 0 0 0 0 
0 0 0 0 0 0 0 0 0 
0 0 0 0 0 0 0 0 0 
0 0 0 0 0 0 0 0 0 
0 0 0 0 0 0 0 0 0 
0 0 0 0 0 0 0 0 0 
0 0 0 0 0 0 0 0 0 
0 0 0 0 0 0 0 0 0 
0 0 0 0 0 0 0 0 0 
0 0 0 0 0 0 0 0 0 
0 0 0 0 0 0 0 0 0 
0 0 0 0 0 0 0 0 0 
0 0 0 0 0 0 0 0 0 
0 0 0 0 0 0 0 0 0 
0 0 0 0 0 0 0 0 0 
0 0 0 0 0 0 0 0 0 
0 0 0 0 0 0 0 0 0 
0 0 0 0 0 0 0 0 0 
0 0 0 0 0 0 0 0 0 
0 0 0 0 0 0 0 0 0 
0 0 0 0 0 0 0 0 0 
0 0 0 0 0 0 0 0 0 
0 0 0 0 0 0 0 0 0 
0 0 0 0 0 0 0 0 0 
0 0 0 0 0 0 0 0 0 
0 0 0 0 0 0 0 0 0 
0 0 0 0 0 0 0 0 0 
0 0 0 0 0 0 0 0 0 
0 0 0 0 0 0 0 0 0 
0 0 0 0 0 0 0 0 0 
0 0 0 0 0 0 0 0 0 
0 0 0 0 0 0 0 0 0 
0 0 0 0 0 0 0 0 0 
0 0 0 0 0 0 0 0 0 
0 0 0 0 0 0 0 0 0 
0 0 0 0 0 0 0 0 0 
0 0 0 0 0 0 0 0 0 
0 0 0 0 0 0 0 0 0 
0 0 0 0 0 0 0 0 0 
0 0 0 0 0 0 0 0 0 
0 0 0 0 0 0 0 0 0 
0 0 0 0 0 0 0 0 0 
0 0 0 0 0 0 0 0 0 
0 0 0 
v 3 1000 double
7.7216214624 5.5698568215 -14.060655331 -9.7845578376 -7.310864483 -3.3249339247 2.6779995369 1.8961622507 -11.602975098 
-22.078009768 -8.5074502639 -21.633982708 17.942353717 -19.822793316 30.714145242 7.2653731657 -11.63774572 7.5260324671 
-5.7143317901 18.008028883 -11.990782388 -4.2949673137 -21.539348456 0.95622706696 14.395079877 20.132204592 15.032285017 
0.23617257266 5.0279483683 -16.232595562 3.2590042936 17.152403757 14.973249984 1.9242845247 16.903954765 10.365769303 
-1.0284970757 -0.81563242426 -6.4332298579 -3.0674068545 12.357666722 -16.88220028 19.300101568 -8.6582784988 9.411372949 
-24.291754313 0.89866611118 4.7072172853 1.5033132733 -6.7520098279 -7.2879824074 0.46576516189 12.634437079 13.839510829 
3.8637754219 14.330391064 -7.5671782614 -2.4287441875 1.2695638439 -10.259429669 -4.8503401398 -16.702286172 22.801530874 
-11.420513646 22.676295256 -6.8291055531 -22.117892888 -1.4062733883 2.288425042 -7.7719131134 -0.29348775862 5.9743423232 
-9.737597934 2.9923165654 -19.403476151 -1.9014529072 -11.096668162 2.3238262169 -0.3865719647 -3.8438580745 8.584143388 
-12.523253849 -24.206234379 -34.831925003 19.095293992 3.6358042731 -6.4753826574 -22.082784081 34.447298679 -3.3342897926 
8.7518508414 -4.0116707308 0.93992121746 5.60519643 -5.1993197929 -12.259321778 -30.138993265 -38.590291362 3.8562411682 
10.696357746 -2.2777514444 13.81649107 17.349061388 6.0853857818 3.0132788192 0 0 0 
-6.6991418929 -0.68236829742 3.1393976171 -4.8421733696 -12.897517949 7.7591226844 -7.2622066699 6.1939328186 1.8984069739 
9.8279661316 -4.5422415185 10.000975189 7.544024563 -11.982986363 0.88489652021 0.6115347945 -16.100710332 4.7065687122 
9.569126191 -28.896902612 19.095078166 -14.688253505 15.026694428 3.4770532784 -6.8271494036 -6.0636557603 17.041401395 
11.615766983 2.0006272363 -18.197241015 -21.034341988 11.010539073 -5.9313376254 -13.901944814 -20.585001312 2.3793420046 
4.4730655626 -4.6509256377 7.5751389694 -6.9911042729 -11.758794045 -9.2103649058 4.8728990846 3.9291687455 3.7054346133 
11.039620304 -0.96573659828 1.2301472876 -12.102446043 10.201018057 -0.77673222175 1.3927094694 -3.6876483019 -16.541508931 
-2.2958006704 14.668606343 -9.1539933333 -7.3871717122 -4.4588587765 -9.1774880177 3.8818234496 0.93908076439 11.258227137 
6.8077747066 12.088040592 -2.4463892136 -13.857255447 -24.007213779 7.8611587225 25.399410936 -10.365660557 -9.0632300547 
2.7876545466 5.0359882494 -11.674387014 -12.559954831 16.083166871 9.7750594827 15.702525078 24.920553157 11.940315525 
-13.925890515 7.9734492496 -8.8991626682 -0.77071004737 -8.9598434917 -15.3047058 -2.2030228087 -5.6457738827 12.350090569 
-7.468876334 -13.595564212 -3.4674222776 4.0558266498 25.539394844 21.742750038 -12.742649608 -6.8867798877 -8.7994942665 
-14.340475299 13.879012726 18.63490361 13.260339228 -2.6430272933 11.854844225 -20.170998125 7.7774341803 4.4352536258 
-13.626970015 0.25774572119 11.246500963 17.728594488 -8.5744551664 -8.3646318466 -0.80366654882 13.305105428 -0.65919806773 
-3.4982525117 5.3541140115 8.2647780098 -0.011914362898 17.305988874 7.7287671386 -25.656651398 -15.865758744 4.2711615583 
7.7151714702 1.0961378543 8.6325382874 -13.383884557 -0.62955824616 -33.096519499 24.363563266 4.830505789 31.083154248 
10.574348658 -4.0304230148 16.013311707 -4.7688986004 3.5999011338 1.2575208918 0.32639977985 -0.56253032932 -0.33352643314 
0.58579681489 11.381448393 21.021952617 12.463861859 -4.9922148032 -25.113833981 9.91903318 -3.4024614042 7.4923227488 
-12.700588661 5.064942867 9.698027827 -2.5494477184 1.1510846442 -10.365063704 2.2423225117 -5.209933729 1.4271471694 
0 0 0 9.6366112023 -17.699941675 -4.4515507139 1.7134932917 2.392159805 -17.982323743 
0.0704111281 -0.28301499837 -0.28430615172 23.1955974 12.369760854 -15.172826817 16.07490242 -10.504586977 7.8147260441 
-16.07490242 10.504586977 -7.8147260441 0.90492126687 -18.385183345 -5.7799605596 17.17026662 11.935022742 -28.70785826 
-21.148182814 -2.0804402976 26.99137342 -3.5517199334 5.6940548695 20.578005012 -1.9605318458 -26.183329998 -8.4831974101 
8.4702886034 16.564286516 -13.043071314 8.1980110075 6.8711146981 4.3763722954 0.76768689401 0.89179013017 2.2007392385 
-15.365325554 -2.0932993579 4.3825148941 16.595480694 -7.4761435971 4.9601662578 20.755204729 0.4781001831 -6.7208458475 
6.0874275007 -9.3408770283 9.2155385642 -0.046037907005 3.227783071 9.2184861761 -17.759693424 -10.587343611 -6.1765664333 
-10.04987329 1.9010841481 -23.22381724 -1.7278668238 -6.2748918087 -16.11372249 9.5430630607 -14.845887566 4.9771167898 
-2.2983671153 -10.592065681 25.61725802 28.818865763 6.8421673941 4.2501636207 7.3191320137 3.7566350059 -7.3737003236 
1.5902101498 15.778911296 4.4228369872 -14.934236119 -9.3160736096 -12.410590814 1.4417336823 -17.306902485 -23.478221965 
11.200317268 -14.737408213 -6.2200225544 6.7906351706 18.172046596 11.959361788 -0.57212347162 12.76924835 15.495170223 
9.8550226904 -16.75671762 -9.4536430746 5.8932362353 -2.8032220798 9.3535852997 17.731039207 17.411715285 2.364600443 
-2.025726333 -2.7368752834 1.5460320573 3.6373084246 -8.9964323778 2.0703745996 22.445726725 2.4321104232 -24.198099812 
7.0638755784 12.899002759 3.2814594205 -23.107234208 13.156403414 -3.902157466 5.6033934921 -13.680992711 1.3476971828 
-14.263928819 -3.9721222239 8.8205978525 -4.994957548 -8.9336612584 11.984295288 14.01153242 9.597152356 4.8942077732 
16.992412464 18.674856801 10.825559993 4.4716646843 18.83646082 0.76917375789 -19.580029132 -12.208120877 0.43222354536 
20.930750279 1.7654642629 1.284542159 -28.425376655 -18.918222894 -2.4261346857 4.6481077182 -7.1530060907 22.746609465 
-5.6140028073 -2.7166142825 2.2108890191 -6.5605643214 13.015073483 -0.94817138672 18.103033062 -23.937805624 6.0364937817 
-13.685057508 -21.63598574 5.7574352709 1.4340545635 16.680014068 5.1476909464 17.249355659 16.851818549 26.612762079 
-4.077941816 4.6180854302 -0.87400262273 -11.900244076 -9.3270467314 -13.421796214 10.686159742 -4.8144170485 0.81329885062 
10.765811015 5.9053747893 -10.183034147 1.7825078598 0.29916305345 -1.3088606203 18.711805215 -20.087637235 1.9211647249 
1.811794969 -1.1731417404 0.3031908982 -9.1578831563 -13.129101358 9.4531541933 9.3491889494 -10.134486264 29.153740179 
3.268891619 -8.0060978452 0.98937777357 1.7206152695 1.5966028021 -0.46570516017 10.501612634 16.496857883 10.702065736 
6.8451079526 7.3450622322 10.905521826 -39.326668554 9.6036656116 -9.2591064339 -8.4133520281 -12.189589174 -14.779112479 
-13.705129862 -7.6648163433 -24.815994749 3.4629544747 20.534173978 -25.229783992 11.706279691 -4.1971260215 -6.5379978429 
-0.76848869248 22.986910726 -7.9220538364 3.7416214632 8.7161922289 10.471904158 -8.1697057776 2.7033640175 -8.1674484515 
2.2197667796 -8.8473176282 -19.829557392 -4.3308351801 -16.92970688 -9.9595381431 1.1308036103 9.0962324868 2.1735733742 
0.4375318048 17.511189711 5.9282068747 -17.374332363 5.3192864923 -7.0746273399 1.954072 -4.3390467245 -9.4090038281 
-10.947118372 -11.254012011 1.5067090172 7.3697839242 18.687807685 -9.9854998021 6.4199802743 14.773886225 -16.840277829 
10.187172068 11.768427149 -2.5072585148 -2.1919280999 -11.472735228 2.771682938 17.974170888 -13.5697421 1.1324381513 
-12.130557234 -11.293299964 -10.151254603 -29.384909817 -32.441983502 -31.958930105 -28.047860294 -14.851759331 -4.0081264574 