# vtk DataFile Version 4.2
Generated by LIGGGHTS
ASCII
DATASET POLYDATA
POINTS 1000 float
3.80088 0.167841 0.343316 0.31727 0.777057 0.259185 2.76191 0.820258 0.389429 
3.68627 1.19297 0.476501 2.49938 1.76117 0.606859 0.741309 1.95158 0.464794 
3.70941 2.18325 0.339447 4.66625 2.42318 0.504458 0.0322291 2.63983 0.624802 
1.58012 2.75665 0.120972 2.69888 2.67644 0.256533 4.56977 3.41468 0.607782 
0.0979167 4.21081 0.426736 3.50569 4.13003 0.0890333 0.928741 0.572226 1.02349 
2.76192 0.0949394 1.222 3.62374 0.601572 1.28048 1.77414 0.981321 0.65791 
4.55967 0.728678 0.674518 0.0183999 1.54981 1.22191 4.19935 1.7962 1.12807 
3.22969 2.08802 1.21169 3.73392 2.97619 0.954338 0.87842 3.22231 1.0119 
1.81171 3.66079 0.875345 3.67066 3.96893 1.0621 0.735834 4.91272 0.906877 
1.80063 4.67413 0.796475 2.81482 4.59578 0.703221 4.37466 4.66831 0.708152 
4.4915 -0.0101457 1.65865 0.64609 1.06299 1.84765 2.76776 1.13735 1.34132 
4.55949 0.988216 1.64031 1.54435 1.56062 1.89755 3.65578 1.4058 1.87406 
0.316253 2.47583 1.58876 1.31672 2.41203 1.40092 4.96824 2.06159 1.72936 
2.81214 2.99058 1.34217 4.18604 2.6811 1.79607 1.93999 3.22937 1.76926 
0.197966 4.24211 1.42163 1.16289 4.03715 1.61544 2.72108 3.96211 1.57642 
4.66232 4.00347 1.41119 1.45652 4.99144 1.68251 3.36113 4.80238 1.52079 
1.40974 0.52006 2.19719 2.40244 0.469604 2.08686 3.40852 0.259176 2.25845 
4.36039 0.335691 2.58804 3.02113 1.13585 2.60566 0.0381536 1.75743 2.23257 
4.5581 1.33065 2.57989 0.761458 2.31262 2.64318 2.52011 1.91977 2.20371 
3.48083 2.28585 2.4148 1.71493 2.57084 2.48737 2.66399 2.92359 2.42559 
4.9632 2.83045 2.41478 0.91644 3.14961 2.11836 3.45751 3.4564 2.11983 
4.41571 3.66283 2.31876 1.06722 3.99865 2.6247 2.06549 3.95588 2.44495 
0.315048 4.61556 2.35117 1.34766 4.95715 2.676 2.91388 4.48531 2.42103 
3.91282 4.53238 2.44769 2.43253 0.41826 3.1803 3.46338 0.492319 3.23456 
0.61278 0.913729 2.88734 2.00473 1.19398 2.70686 3.67391 1.65917 3.17615 
2.82017 2.28944 3.18432 4.52685 2.18979 3.09138 0.448011 3.36565 3.08969 
1.41111 3.1436 3.27165 4.57035 3.43923 3.28147 2.58868 4.1765 3.31849 
3.65204 3.81649 3.09592 4.47016 4.6665 3.26839 0.81152 0.0296248 3.46257 
4.25834 -0.00105101 3.5883 1.41757 0.853655 3.53 2.89503 1.20925 3.63829 
4.23952 1.15664 3.83008 0.424334 2.47861 3.61394 1.44933 2.11805 3.34245 
2.22277 2.01945 3.96861 3.73729 2.85073 3.34724 2.40633 3.19402 3.35738 
3.14039 3.59944 3.92726 0.643639 4.2676 3.73368 1.61041 4.12365 3.52093 
3.35676 4.81578 3.3562 2.6291 0.233635 4.15916 0.718417 0.797336 4.45757 
1.73309 0.785112 4.49964 2.66519 1.13041 4.61013 3.52674 0.648815 4.31384 
0.25317 1.68897 4.28143 1.24325 1.59988 4.17253 3.37448 2.16048 4.00657 
4.92943 1.94831 3.99856 1.75747 3.12314 4.27568 4.87166 2.94188 4.10527 
0.235834 3.40357 4.07916 2.28323 4.11868 4.27009 3.88595 4.26808 4.00453 
4.83001 3.99439 4.19506 1.38019 4.92284 4.40504 4.55575 4.955 4.36464 
2.49018 0.197694 5.17112 4.35135 0.800167 5.12811 1.5324 1.33378 5.31142 
3.56438 1.53945 4.76701 4.57563 1.75108 4.91348 0.594808 2.43431 4.85496 
1.58382 2.29392 4.80697 2.81465 2.25491 4.9344 3.953 2.52052 4.73855 
0.771012 3.42081 4.92376 2.65426 3.21954 4.71431 4.08204 3.55096 4.69963 
1.52766 4.0747 4.92674 2.45282 4.02639 5.3039 0.597872 4.38862 4.72551 
3.15901 4.36841 4.68388 0.874199 0.620902 5.60131 4.96561 0.199009 5.64987 
2.46604 1.10022 5.60277 3.35113 0.687629 5.31041 0.517808 1.55364 5.37614 
3.9061 1.59711 5.70504 1.94708 2.20514 5.73443 0.925553 2.71019 5.75854 
2.57088 2.97664 5.89446 3.48824 2.52085 5.70359 4.49591 2.52748 5.57835 
0.103415 3.4302 5.66838 1.67694 3.35393 5.61266 3.34212 3.52483 5.37325 
4.48538 3.53425 5.6244 0.839991 4.12302 5.65871 1.76255 4.40806 5.91904 
2.69506 4.81859 5.86757 3.62406 4.93135 5.36729 4.76341 4.47115 5.38384 
0.197079 0.225072 6.23092 1.78724 0.440053 5.99884 4.37193 0.128022 6.64585 
3.60366 0.688738 6.2783 4.55192 0.98924 6.16725 1.57988 1.36696 6.31946 
2.81595 1.25201 6.52873 0.712491 1.89516 6.29736 4.18959 2.43367 6.52568 
-0.00386785 2.69788 6.34152 0.721963 3.49384 6.48784 3.85337 3.39482 6.547 
2.54337 4.01184 6.44007 3.54867 4.22185 6.06857 0.859169 4.69306 6.48192 
4.41314 4.60578 6.48885 1.06632 0.410441 6.69886 3.55768 0.0309969 7.22105 
0.511161 1.20816 6.99565 1.88658 0.996455 7.19764 4.06436 1.09398 7.0693 
4.81219 1.71761 6.84131 2.16199 2.09855 6.70525 3.27514 2.08436 6.84202 
0.97614 2.64766 6.96578 2.42745 3.064 6.88692 1.64696 3.73154 6.79894 
4.75286 3.52197 6.98483 0.497383 4.13547 7.2292 3.32337 4.0799 7.06847 
0.713818 0.501008 7.67368 2.10552 0.314191 7.97689 2.82349 0.691637 7.37893 
0.64472 1.45653 7.9873 2.48194 1.77632 7.5962 3.4417 1.35121 7.80849 
0.557287 2.44415 7.85674 3.25642 2.33051 7.90124 4.16172 2.07621 7.51095 
1.69532 2.95012 7.77855 4.00098 3.06304 7.48672 0.123624 3.22521 7.40743 
1.027 3.69679 7.95528 2.3976 3.94013 7.44715 4.22945 4.27994 7.45117 
1.07704 4.92091 7.46933 2.92367 4.87428 7.58674 3.19827 0.411258 8.29571 
0.434681 0.753139 8.66673 2.16024 1.23937 8.37608 4.36329 1.12501 8.14253 
1.55716 2.05177 8.19652 3.99284 1.98541 8.4925 3.77918 3.07221 8.64272 
4.7211 2.77185 8.4911 2.65298 3.14876 8.00839 1.93407 3.86951 8.43002 
3.51882 3.80546 8.01393 4.97721 3.76696 8.62965 0.219588 4.84261 8.03185 
1.29789 4.72306 8.44636 2.82494 4.40834 8.5264 3.95777 4.90146 8.29877 
1.81041 0.501526 8.95333 2.79925 0.550017 9.21694 4.10443 0.348193 8.72107 
4.72278 1.20292 9.08236 1.24903 1.32301 8.80925 3.0376 1.60612 8.68726 
2.12228 2.02872 9.03291 0.933659 2.83245 8.79131 1.9063 3.07534 9.045 
2.92384 2.60202 8.86008 0.0228552 3.2457 8.75054 2.9388 3.55382 9.30808 
0.519101 4.14368 8.69171 1.51697 4.13349 9.33211 3.91579 4.01619 8.97699 
2.07995 4.9225 9.08571 1.802 0.188918 9.90318 1.17087 0.996275 9.75143 
3.84305 0.843701 9.55006 2.17636 1.24917 9.65876 3.11575 1.59765 9.68419 
4.43796 1.59872 9.95642 0.805271 2.11228 9.47316 3.94275 2.41371 9.39476 
0.720523 3.71755 9.77114 2.1539 3.55608 9.94154 3.55365 3.12996 9.98114 
4.46809 3.26553 9.34128 4.59501 4.09899 9.87904 0.417948 4.97965 9.87289 
1.42042 4.96442 9.89945 2.95729 4.7776 9.5524 3.95721 4.87791 9.60234 
2.33213 5.32659 0.135903 0.885509 5.98055 0.271691 3.26881 5.69496 0.0866241 
0.03689 6.63108 0.651208 2.09595 6.49276 0.0675723 0.932466 7.14902 0.335665 
1.8827 7.47458 0.16804 0.682864 8.11244 0.540687 2.78017 7.90708 0.257765 
3.79866 7.94324 0.175219 4.7092 7.49152 0.175529 1.33946 8.70727 0.07674 
4.66357 8.48455 0.29724 0.0548406 8.89109 0.646658 2.12582 9.20213 0.452791 
3.78227 8.94429 0.477477 1.02561 9.6233 0.330251 2.86385 9.83827 0.22761 
0.702666 6.11734 1.24552 1.59176 5.66972 0.96011 2.54329 6.04338 0.843748 
3.89606 5.98082 0.84239 4.81649 5.8721 1.31267 1.59098 6.66921 0.919566 
0.280757 7.44961 1.17275 2.99463 7.0444 0.870418 3.98353 7.19533 0.861073 
4.37354 8.06829 1.16135 1.97826 8.2228 0.849599 3.31274 8.19541 1.05399 
1.04093 8.82499 1.17472 2.83194 9.06964 1.15012 1.74362 10.003 0.913785 
3.67494 9.60392 1.22389 4.60593 9.687 0.712469 2.45086 5.11568 1.79454 
4.25597 5.1772 1.76325 2.13286 6.05476 1.93448 3.20157 5.89567 1.58233 
1.241 6.66899 1.88272 3.93528 6.57367 1.64707 2.10961 7.2022 1.58898 
3.36498 7.40065 1.77509 4.86899 6.86334 1.43391 1.27194 7.74286 1.48568 
0.00913118 8.23263 1.96048 1.80283 8.52846 1.81324 2.80842 8.41343 1.90434 
3.80694 8.36064 1.93176 4.54133 9.00401 1.48043 0.335945 9.39031 1.63321 
2.08125 9.53634 1.743 0.670553 5.50118 2.04243 3.36741 5.42032 2.45877 
1.40819 5.95407 2.61921 4.59546 5.87621 2.42643 0.256835 6.40404 2.22715 
2.83229 6.57966 2.42439 3.80441 6.46025 2.632 0.537962 7.37779 2.13715 
1.50571 7.45288 2.44579 4.33852 7.47456 2.03207 2.4921 7.61689 2.41959 
0.845412 8.72333 2.20631 3.09907 9.30256 2.26827 4.1648 9.14008 2.4463 
0.20872 9.91881 2.48331 1.20019 9.59866 2.539 3.96009 5.60963 3.27858 
0.293388 5.70699 2.94633 2.46759 5.67568 2.81681 0.909622 6.7796 2.88533 
2.12575 6.67589 3.12787 4.56227 6.44016 3.30777 3.16199 7.33337 3.1063 
4.15765 7.31799 3.01135 0.678977 7.8676 2.99824 1.59446 8.39147 2.78195 
2.52516 8.54567 3.11403 3.48152 8.3745 2.87723 4.47275 8.24866 2.82511 
0.472208 8.9121 3.23234 3.55802 9.31335 3.22249 2.25992 9.52102 2.77281 
0.908703 5.23891 3.58086 1.96174 5.07684 3.45612 4.93058 5.52911 3.50592 
1.53752 6.0816 3.67735 2.96205 5.7309 3.70553 0.535121 6.34061 3.70256 
3.61365 6.48904 3.82018 0.182059 7.31329 3.87954 1.2305 7.12192 3.7746 
3.80093 7.48054 3.93489 2.15393 7.65259 3.38497 4.81529 7.63054 3.79896 
1.12797 8.13769 3.85376 3.92792 8.47034 3.85903 1.4281 9.14882 3.41357 
2.62761 9.33634 3.71767 4.57251 9.07169 3.38427 1.69073 9.96128 3.93433 
0.135703 5.1322 4.23594 2.15096 5.5535 4.3146 3.58049 5.19339 4.2899 
4.31408 5.93933 4.27781 1.54599 6.62413 4.58424 2.49481 6.48584 4.20268 
4.97488 6.70938 4.17924 2.81615 7.42727 4.10045 0.511101 7.8333 4.66794 
1.85616 7.65152 4.35791 1.98341 8.625 4.07021 2.95975 8.4172 4.13584 
4.87773 8.55506 4.19652 0.713492 8.80536 4.51796 0.843061 9.80214 4.48402 
3.36963 9.47696 4.37315 4.21262 9.97029 4.58765 2.00991 5.09242 5.19254 
4.48595 5.43114 5.26192 0.783422 5.74884 4.68474 2.54758 5.97232 5.13174 
3.58868 5.87086 5.0263 0.603434 6.82346 4.92707 3.28327 6.7801 4.74324 
4.49675 6.42473 5.13998 2.42558 7.35335 5.12869 1.35317 8.07432 5.15073 
3.3764 7.68891 5.15011 4.25114 7.97089 4.74813 2.30866 8.35578 5.05955 
3.25573 8.67813 5.05649 2.29776 9.33727 4.69794 4.16183 8.97481 4.75452 
1.07156 5.16515 5.53057 0.287023 6.00722 5.51435 1.32582 6.13534 5.44844 
3.06401 5.94062 5.98758 2.21577 6.64553 5.8034 3.6574 6.70794 5.73897 
0.422553 6.88157 5.98045 1.3752 7.13339 5.48861 4.50276 7.24617 5.78431 
0.382277 8.23369 5.57564 4.64057 8.24281 5.64639 0.292471 9.33739 5.77038 
1.15935 8.79768 5.85513 2.7007 9.29654 5.61639 3.72075 8.94837 5.89957 
4.65611 9.2435 5.63924 1.20738 9.6964 5.40954 3.88187 9.86679 5.52709 
0.111015 5.29874 6.19779 3.87901 5.40569 6.21065 0.993666 5.75196 6.33654 
[...]
POINT_DATA 1000
FIELD FieldData 7
id 1 1000 int
43 5 36 404 418 541 142 175 7 
501 20 147 607 152 561 588 61 37 
927 26 762 263 521 1 531 242 116 
605 117 635 591 551 70 776 30 50 
41 504 674 600 872 526 860 610 109 
646 111 597 562 663 87 235 589 518 
592 17 283 766 508 255 419 519 272 
659 251 841 768 368 365 899 74 105 
644 566 79 84 408 758 765 749 358 
752 154 673 846 197 584 515 302 42 
294 783 269 286 253 767 979 114 78 
608 546 268 570 583 571 698 744 215 
774 769 177 193 866 647 782 848 554 
12 361 68 578 110 510 755 276 669 
764 814 324 262 833 338 44 277 104 
274 594 97 577 532 558 325 296 322 
214 318 285 292 664 164 85 279 473 
867 488 543 559 512 54 202 278 28 
702 284 307 680 123 880 557 556 280 
482 27 393 128 529 580 658 797 630 
13 170 747 540 162 53 505 424 656 
11 139 72 602 742 511 323 737 535 
544 539 746 542 300 612 134 148 596 
503 729 57 567 736 940 25 32 45 
939 67 450 874 547 21 922 236 634 
120 121 229 125 62 24 288 626 130 
759 909 892 604 603 601 129 234 599 
107 628 999 586 579 238 869 225 585 
714 99 150 362 477 548 975 694 80 
52 534 48 88 86 77 696 963 81 
100 718 839 654 22 538 133 51 49 
59 568 73 144 240 625 115 140 716 
560 750 593 137 661 187 46 574 3 
188 854 138 849 633 367 174 638 845 
884 502 662 29 75 581 167 169 141 
862 717 378 160 402 172 35 108 684 
192 301 349 173 598 582 356 380 629 
375 639 842 149 360 648 565 636 40 
682 354 182 840 377 82 259 261 415 
157 384 171 275 180 426 920 676 342 
353 199 195 851 838 281 652 369 791 
190 254 155 446 637 198 830 291 347 
858 357 836 813 781 788 297 945 660 
313 917 795 186 934 178 181 10 330 
331 685 868 312 153 406 902 919 456 
948 335 470 474 329 856 822 821 949 
126 372 47 816 789 211 835 321 916 
453 675 933 943 686 363 256 827 552 
573 317 314 935 334 348 709 857 463 
91 870 988 689 223 998 15 957 219 
938 332 66 971 825 807 196 954 224 
863 958 969 875 961 745 507 555 993 
966 590 206 972 691 996 831 688 994 
479 861 953 533 63 237 103 820 337 
997 471 90 727 210 18 563 231 58 
809 33 69 486 374 233 239 490 991 
520 60 720 391 132 523 9 616 439 
879 509 723 606 101 611 328 730 146 
692 981 194 522 873 650 631 655 420 
370 399 484 995 621 640 405 136 624 
575 881 449 469 843 651 289 423 620 
102 524 385 14 71 719 929 970 2 
311 777 264 657 891 383 345 815 8 
431 89 413 16 34 228 386 23 295 
896 56 468 165 681 645 877 304 310 
290 94 928 545 952 757 712 904 801 
763 207 476 802 623 796 748 113 832 
106 834 257 775 695 743 184 478 425 
452 410 923 320 436 649 352 779 790 
670 819 818 1000 258 536 359 808 738 
351 306 489 443 461 679 678 305 806 
326 55 677 355 707 553 4 859 564 
340 6 247 985 65 499 665 699 576 
230 513 241 308 703 826 829 38 371 
462 448 666 200 667 179 208 710 506 
191 220 900 587 810 989 595 343 496 
700 222 671 895 209 706 715 641 725 
704 642 271 217 549 527 168 64 693 
98 708 218 722 690 212 201 221 528 
572 733 244 205 95 672 216 379 481 
804 741 705 734 246 724 92 227 735 
112 245 726 156 982 976 622 119 344 
713 487 721 732 31 990 530 924 252 
514 632 683 248 226 855 653 491 668 
127 465 962 131 760 968 955 805 445 
525 828 327 823 977 243 614 847 364 
617 392 619 299 494 480 475 493 956 
93 817 350 341 853 232 615 492 761 
852 740 918 613 76 516 973 466 498 
96 844 395 316 983 485 366 773 267 
396 794 569 986 401 890 83 495 912 
886 387 811 731 728 786 145 517 249 
250 166 885 756 394 889 376 905 894 
914 151 381 143 984 282 260 987 897 
437 400 265 609 784 865 771 798 903 
273 398 403 389 293 753 754 382 432 
785 921 871 812 770 333 163 39 778 
907 390 793 876 882 887 772 298 500 
319 417 878 185 780 901 159 992 428 
161 422 411 942 430 751 883 906 414 
893 898 433 438 397 427 457 189 409 
442 309 435 915 925 412 388 908 926 
416 792 888 913 951 429 701 447 451 
287 967 739 787 440 459 407 910 803 
434 937 176 346 421 467 978 946 931 
965 799 944 800 441 950 941 183 203 
270 373 118 458 947 483 964 454 537 
550 959 455 497 837 460 697 687 204 
643 711 911 122 936 158 960 336 974 
850 444 824 339 315 618 980 135 124 
19 213 932 627 266 930 472 464 303 
864 
type 1 1000 int
1 1 1 1 1 2 1 1 1 
2 1 1 2 1 2 2 1 1 
2 1 2 1 2 1 2 1 1 
2 1 2 2 2 1 2 1 1 
1 2 2 2 2 2 2 2 1 
2 1 2 2 2 1 1 2 2 
2 1 1 2 2 1 1 2 1 
2 1 2 2 1 1 2 1 1 
2 2 1 1 1 2 2 2 1 
2 1 2 2 1 2 2 1 1 
1 2 1 1 1 2 2 1 1 
2 2 1 2 2 2 2 2 1 
2 2 1 1 2 2 2 2 2 
1 1 1 2 1 2 2 1 2 
2 2 1 1 2 1 1 1 1 
1 2 1 2 2 2 1 1 1 
1 1 1 1 2 1 1 1 1 
2 1 2 2 2 1 1 1 1 
2 1 1 2 1 2 2 2 1 
1 1 1 1 2 2 2 2 2 
1 1 2 2 1 1 2 1 2 
1 1 1 2 2 2 1 2 2 
2 2 2 2 1 2 1 1 2 
2 2 1 2 2 2 1 1 1 
2 1 1 2 2 1 2 1 2 
1 1 1 1 1 1 1 2 1 
2 2 2 2 2 2 1 1 2 
1 2 2 2 2 1 2 1 2 
2 1 1 1 1 2 2 2 1 
1 2 1 1 1 1 2 2 1 
1 2 2 2 1 2 1 1 1 
1 2 1 1 1 2 1 1 2 
2 2 2 1 2 1 1 2 1 
1 2 1 2 2 1 1 2 2 
2 2 2 1 1 2 1 1 1 
2 2 1 1 1 1 1 1 2 
1 1 1 1 2 2 1 1 2 
1 2 2 1 1 2 2 2 1 
2 1 1 2 1 1 1 1 1 
1 1 1 1 1 1 2 2 1 
1 1 1 2 2 1 2 1 2 
1 1 1 1 2 1 2 1 1 
2 1 2 2 2 2 1 2 2 
1 2 2 1 2 1 1 1 1 
1 2 2 1 1 1 2 2 1 
2 1 1 1 1 2 2 2 2 
1 1 1 2 2 1 2 1 2 
1 2 2 2 2 1 1 2 2 
2 1 1 2 1 1 2 2 1 
1 2 2 2 1 2 1 2 1 
2 1 1 2 2 2 1 2 1 
2 2 2 2 2 2 2 2 2 
2 2 1 2 2 2 2 2 2 
1 2 2 2 1 1 1 2 1 
2 1 1 2 1 1 2 1 1 
2 1 1 1 1 1 1 1 2 
2 1 2 1 1 2 1 2 1 
2 2 2 2 1 2 1 2 1 
2 2 1 2 2 2 2 2 1 
1 1 1 2 2 2 1 1 2 
2 2 1 1 2 2 1 1 2 
1 2 1 1 1 2 2 2 1 
1 2 1 2 2 1 1 2 1 
1 1 1 1 1 1 1 1 1 
2 1 1 1 2 2 2 1 1 
1 1 2 2 2 2 2 2 2 
2 1 1 2 2 2 2 1 2 
1 2 1 2 2 2 1 1 1 
1 1 2 1 1 2 1 2 2 
2 2 2 2 1 2 1 2 2 
1 1 1 1 1 2 2 1 2 
1 1 2 1 2 2 1 2 2 
1 1 1 2 1 1 2 2 2 
1 2 1 1 2 2 2 1 1 
1 1 2 1 2 1 1 2 2 
1 1 2 2 2 2 2 1 1 
2 1 2 2 1 2 2 2 2 
2 2 1 1 2 2 1 1 2 
1 2 1 2 2 1 1 1 2 
2 2 1 1 1 2 1 1 1 
2 2 2 2 1 2 1 1 2 
1 1 2 1 2 2 2 1 1 
2 1 2 2 1 2 2 2 1 
2 2 2 1 1 2 2 1 2 
1 1 2 1 2 2 2 2 1 
2 2 1 2 2 1 2 2 1 
2 1 2 1 1 1 1 1 2 
1 2 1 1 2 1 2 1 2 
2 2 2 2 1 2 2 1 1 
1 2 1 1 2 1 1 2 1 
1 2 2 2 1 2 1 1 2 
2 1 2 2 2 2 1 2 1 
1 1 2 2 1 2 1 2 2 
2 1 1 1 2 1 1 2 2 
1 1 1 2 2 2 2 2 2 
1 1 1 1 1 2 2 1 1 
2 2 2 2 2 1 1 1 2 
2 1 2 2 2 2 2 1 1 
1 1 2 1 2 2 1 2 1 
1 1 1 2 1 2 2 2 1 
2 2 1 1 1 1 1 1 1 
1 1 1 2 2 1 1 2 2 
1 2 2 2 2 1 2 1 1 
1 2 2 2 1 1 1 2 2 
1 2 1 1 1 1 2 2 2 
2 2 2 2 1 2 2 1 1 
1 1 1 1 2 1 2 1 2 
2 2 1 1 2 1 2 2 1 
2 2 2 1 2 1 2 1 2 
2 1 2 1 1 2 2 1 1 
1 1 2 2 1 2 1 1 1 
2 
i 3 1000 int
0 0 0 0 0 0 0 0 0 
1 0 0 1 0 0 0 0 0 
0 0 0 0 0 0 0 0 0 
0 0 0 0 0 0 0 0 0 
0 0 1 0 0 0 0 0 0 
0 0 0 0 0 0 0 0 0 
1 0 0 0 0 0 1 0 0 
1 0 0 0 0 0 0 0 0 
0 0 0 0 0 1 0 0 1 
0 0 1 0 0 1 0 0 0 
0 0 0 0 0 0 0 0 0 
1 0 0 0 0 0 0 0 0 
0 0 0 0 0 0 0 0 0 
0 0 1 1 0 0 0 0 0 
1 0 1 0 0 1 0 0 1 
0 0 0 0 0 1 0 0 1 
0 0 0 0 1 0 0 0 0 
0 0 0 0 0 0 0 0 0 
0 0 0 0 0 0 1 0 0 
1 0 0 0 0 0 1 0 0 
1 0 0 0 0 0 1 0 0 
0 0 0 1 0 0 1 0 1 
1 0 0 1 0 1 1 0 1 
1 0 0 0 0 0 0 0 0 
0 1 0 0 0 0 0 0 0 
0 0 0 1 0 0 1 0 0 
1 0 0 1 0 0 1 0 1 
1 0 0 0 0 0 0 1 0 
0 0 0 0 1 0 0 0 0 
0 0 -1 1 0 0 0 0 0 
1 0 0 1 0 0 1 0 0 
1 0 0 1 0 0 1 0 0 
1 0 1 0 0 0 0 0 0 
0 0 0 0 0 -1 0 0 -1 
0 0 0 0 0 0 0 0 0 
0 0 0 1 0 0 0 0 0 
1 0 0 1 0 0 0 0 0 
0 0 0 1 0 1 0 0 0 
0 0 -1 0 0 0 0 0 -1 
0 0 -1 0 0 0 0 0 0 
0 0 0 0 0 0 0 0 -1 
1 0 0 1 0 0 0 0 0 
1 0 0 1 0 0 1 0 0 
1 0 0 0 0 0 0 0 0 
0 0 -1 0 0 -1 0 0 0 
0 0 -1 0 0 0 0 0 0 
0 0 0 0 0 -1 0 0 -1 
1 0 0 1 0 0 1 0 0 
0 0 0 1 0 0 1 0 0 
1 0 0 0 0 0 0 0 0 
0 0 0 0 0 -1 0 1 0 
0 0 0 0 1 0 0 0 -1 
0 0 -1 0 0 -1 0 0 -1 
0 1 0 1 0 0 0 0 -1 
0 0 0 1 0 0 1 0 0 
0 0 0 0 0 0 0 1 -1 
0 0 -1 0 0 -1 0 0 -1 
0 1 0 0 0 -1 1 0 -1 
0 0 0 0 0 -1 0 0 0 
0 0 -1 1 0 0 0 0 -1 
0 0 -1 0 1 -1 0 0 -1 
0 0 -1 0 0 -1 0 0 -1 
0 0 -1 1 0 -1 0 0 -1 
0 0 -1 0 0 -1 0 0 0 
0 0 0 0 0 0 0 0 -1 
1 0 0 0 0 0 0 0 -1 
0 0 -1 0 0 -1 0 0 -1 
0 0 -1 1 0 -1 0 0 -1 
0 0 -1 0 0 -1 0 0 0 
0 0 -1 0 0 0 0 0 0 
0 0 0 0 0 0 0 0 0 
0 0 -1 0 0 -1 0 0 -1 
1 0 -1 0 0 -1 1 0 -1 
1 0 -1 0 0 -1 0 0 -1 
1 0 -1 0 1 0 0 0 -1 
0 0 0 0 0 0 0 0 0 
0 0 0 0 0 -1 0 0 -1 
1 0 -1 0 0 -1 0 0 -1 
1 0 -1 1 0 -1 1 0 -1 
0 0 0 0 0 0 0 0 0 
0 0 -1 0 0 0 0 0 0 
0 0 0 0 0 -1 0 0 0 
0 0 1 0 0 1 0 0 1 
1 0 1 0 0 1 0 0 1 
0 0 1 0 0 1 0 0 0 
0 -1 1 0 0 1 0 -1 0 
0 0 1 0 0 1 0 -1 0 
0 -1 0 0 -1 0 0 -1 0 
0 0 1 0 0 1 0 0 1 
0 0 1 0 0 1 0 0 1 
0 0 1 0 0 1 0 -1 1 
0 0 0 0 -1 0 0 -1 0 
0 0 0 0 -1 0 0 -1 0 
0 -1 0 0 -1 0 0 0 1 
0 0 0 0 0 1 0 0 0 
0 0 1 0 0 0 0 0 1 
0 -1 0 0 -1 0 0 0 1 
0 0 0 0 0 0 0 0 0 
0 -1 0 0 -1 0 0 -1 0 
0 0 0 1 0 1 0 0 0 
1 0 1 0 0 0 1 0 1 
0 0 0 0 0 0 1 0 1 
1 0 0 0 -1 0 0 0 0 
0 -1 0 0 -1 0 0 -1 0 
0 0 0 0 0 0 0 0 0 
1 0 1 0 0 1 1 0 1 
0 0 0 0 0 0 0 0 0 
0 -1 0 0 0 1 0 0 0 
0 0 0 0 -1 0 0 -1 0 
0 0 0 0 -1 0 0 -1 0 
1 0 1 1 0 1 0 0 0 
1 0 1 0 0 0 1 0 1 
0 0 0 1 0 1 0 0 0 
0 -1 0 0 0 0 0 -1 0 
0 0 0 0 -1 0 0 0 0 
0 -1 0 0 -1 0 0 -1 0 
1 0 0 1 0 0 1 0 0 
0 0 0 1 0 0 0 0 0 
0 -1 0 0 0 0 1 0 0 
1 0 0 0 0 0 0 -1 0 
0 -1 0 0 0 0 0 0 0 
0 -1 0 0 -1 0 1 0 0 
0 0 0 1 0 1 1 0 0 
0 0 0 1 0 0 0 0 0 
0 0 0 0 0 0 0 0 0 
0 -1 0 0 -1 0 0 -1 0 
0 -1 0 0 -1 0 0 -1 0 
1 0 0 1 0 0 1 0 0 
1 0 0 1 0 0 0 0 0 
1 0 0 1 0 0 0 -1 0 
0 0 0 0 0 0 0 0 0 
0 0 0 0 -1 -1 0 -1 0 
0 -1 0 0 0 0 0 -1 0 
1 0 0 0 0 0 1 0 0 
1 0 0 1 0 0 0 0 0 
1 0 0 0 -1 0 1 0 0 
0 0 0 0 -1 0 0 -1 0 
0 -1 0 0 -1 0 0 0 0 
0 -1 0 0 -1 0 0 -1 -1 
1 0 0 1 0 0 0 0 0 
1 0 0 1 0 0 0 0 0 
1 0 0 0 0 0 1 0 0 
0 0 0 0 0 0 0 -1 0 
0 -1 -1 0 -1 0 0 -1 -1 
0 0 0 1 0 0 1 0 0 
0 0 0 0 -1 0 1 0 0 
0 0 0 0 -1 0 0 0 0 
0 0 0 0 -1 0 0 0 0 
0 0 0 0 0 0 0 0 0 
0 -1 -1 0 0 0 0 0 0 
0 0 0 1 0 0 0 0 0 
0 0 0 1 0 0 1 0 0 
0 0 0 0 0 0 0 0 0 
0 -1 0 0 0 0 0 0 0 
0 0 -1 0 0 0 0 -1 -1 
0 -1 -1 0 -1 -1 0 0 0 
0 0 0 0 0 0 0 0 0 
0 0 0 0 0 0 0 0 0 
1 0 0 0 0 0 0 0 0 
0 0 0 0 -1 0 0 0 0 
0 -1 -1 0 -1 -1 0 0 0 
0 0 0 0 -1 0 1 0 0 
0 0 0 0 0 0 0 0 0 
0 0 0 0 0 0 0 -1 -1 
0 0 0 0 0 0 0 -1 -1 
0 -1 -1 0 -1 -1 0 -1 -1 
0 0 0 0 1 1 -1 1 1 
-1 1 1 0 1 1 0 1 1 
-1 0 0 0 0 0 -1 1 1 
0 1 0 -1 1 0 -1 0 0 
-1 0 0 0 0 0 0 0 0 
0 1 0 -1 0 0 0 0 1 
-1 0 1 0 0 0 -1 1 0 
0 1 1 -1 1 1 -1 1 0 
0 0 0 0 1 1 0 0 0 
-1 0 0 0 1 0 0 0 0 
0 0 0 0 0 0 0 0 0 
0 -1 1 0 1 0 0 1 1 
0 1 1 -1 1 0 -1 1 0 
0 1 0 -1 1 0 0 0 0 
0 0 0 0 1 0 0 0 0 
0 0 0 0 0 1 0 0 0 
0 0 0 0 0 0 0 0 0 
0 0 0 0 0 0 0 1 0 
-1 0 0 -1 0 0 0 0 0 
0 0 0 0 0 0 -1 0 0 
0 0 0 0 0 0 0 0 0 
0 0 0 0 1 0 0 0 0 
0 0 0 0 0 0 0 -1 0 
0 0 0 0 0 0 0 1 0 
-1 0 0 -1 0 0 0 0 0 
0 1 0 -1 0 0 0 0 0 
0 1 0 0 0 0 0 0 0 
0 0 0 0 0 0 0 0 0 
0 0 0 0 0 0 0 0 0 
0 0 0 0 0 0 0 1 0 
-1 0 0 0 0 0 0 0 0 
0 0 0 0 1 0 0 0 0 
0 0 0 0 0 0 0 0 0 
0 0 0 0 0 0 0 0 0 
0 0 0 0 0 0 0 0 0 
0 0 0 0 0 0 0 0 0 
0 0 0 0 0 0 0 0 0 
0 0 0 0 0 0 0 0 0 
0 0 0 0 0 0 0 0 0 
0 0 0 0 1 0 -1 1 0 
0 0 0 0 0 0 0 0 0 
-1 1 0 0 0 0 0 0 0 
0 0 0 0 0 0 -1 0 0 
0 0 0 0 0 0 0 0 0 
0 0 0 0 0 0 0 0 0 
0 0 0 0 0 0 -1 1 0 
-1 1 0 0 0 0 0 0 0 
0 0 0 -1 0 0 -1 1 0 
0 0 0 -1 1 0 -1 0 0 
0 0 -1 0 0 0 -1 0 0 
0 0 0 0 0 -1 0 0 0 
0 0 0 -1 0 0 0 1 0 
-1 1 0 -1 1 0 -1 0 0 
-1 1 0 0 0 -1 -1 1 0 
0 0 0 0 0 0 0 0 0 
0 0 0 0 0 -1 0 0 0 
0 1 0 0 1 0 -1 1 0 
-1 1 0 -1 1 0 -1 1 0 
-1 1 0 -1 1 0 -1 0 -1 
-1 1 0 -1 1 0 0 0 -1 
-1 0 0 0 0 0 0 1 0 
0 0 0 0 0 0 0 1 0 
-1 1 0 -1 1 0 -1 1 0 
0 1 -1 -1 1 0 -1 1 0 
-1 1 0 0 0 -1 -1 1 0 
-1 1 0 0 0 -1 0 0 -1 
-1 1 0 -1 0 0 0 0 -1 
0 0 -1 -1 0 0 -1 1 0 
-1 1 0 -1 1 0 -1 1 0 
-1 1 0 -1 1 0 -1 1 0 
-1 1 0 -1 1 0 -1 0 -1 
0 0 -1 -1 1 0 -1 1 0 
-1 1 0 -1 0 0 0 0 -1 
-1 1 0 0 1 0 0 1 0 
0 1 0 -1 1 0 -1 1 0 
-1 1 0 -1 1 0 -1 1 0 
0 0 -1 -1 1 0 -1 1 0 
-1 0 0 -1 1 0 -1 1 0 
0 0 -1 0 1 0 0 0 0 
0 0 -1 -1 0 0 0 1 0 
-1 1 0 0 1 0 -1 1 0 
-1 1 0 -1 0 -1 1 0 0 
-1 0 -1 1 0 -1 0 0 -1 
-1 0 -1 0 0 -1 0 0 -1 
-1 1 0 -1 1 0 0 -1 1 
0 0 0 0 0 1 0 0 0 
-1 0 1 0 0 1 0 0 1 
0 0 0 0 0 0 0 0 1 
0 0 1 0 0 1 0 0 1 
0 0 0 0 0 1 0 0 1 
0 0 1 0 0 1 -1 0 1 
0 0 0 0 0 1 0 0 1 
0 0 0 0 0 0 0 0 0 
0 0 0 0 0 1 0 0 1 
0 0 1 0 0 1 0 0 1 
-1 0 1 0 -1 0 0 0 1 
0 0 1 0 0 1 0 0 1 
0 0 0 0 0 1 0 0 0 
0 0 1 0 0 1 0 0 0 
0 0 0 -1 0 1 0 0 0 
0 0 1 0 0 1 0 0 1 
0 -1 0 0 0 1 0 0 0 
0 0 0 0 0 1 0 0 1 
0 0 1 0 -1 0 0 0 0 
0 0 0 0 0 0 0 -1 0 
0 0 1 0 0 0 0 0 0 
0 -1 0 0 0 1 0 0 0 
0 0 0 0 0 0 0 0 0 
0 0 1 0 0 1 0 0 0 
0 0 0 0 0 0 0 0 0 
0 -1 0 0 0 0 0 0 0 
0 -1 0 0 0 0 0 0 0 
0 0 1 0 0 0 0 0 0 
0 0 0 0 0 0 0 0 0 
0 0 0 0 0 1 0 0 0 
0 0 0 0 0 1 0 0 0 
0 0 0 0 0 0 0 0 0 
0 0 1 0 -1 0 0 0 1 
0 0 0 0 -1 0 0 0 0 
0 0 0 0 0 0 0 0 0 
0 0 0 0 0 0 0 0 0 
0 0 0 0 0 0 0 0 0 
0 -1 0 0 0 0 0 0 0 
0 -1 0 0 0 0 0 -1 0 
-1 0 0 0 -1 0 0 0 0 
0 0 0 0 0 0 0 0 0 
0 0 0 0 0 0 0 0 0 
0 0 0 0 -1 0 0 0 1 
0 -1 0 0 0 0 0 0 0 
-1 0 0 0 -1 0 0 0 0 
0 0 0 0 0 0 0 0 0 
0 0 0 0 0 0 0 0 0 
0 0 0 0 0 0 0 -1 0 
0 0 0 0 0 0 0 0 0 
0 0 0 0 0 0 0 0 0 
0 0 0 0 0 0 0 0 0 
0 0 0 -1 0 0 0 0 0 
0 0 0 0 0 0 0 0 0 
0 0 0 0 0 0 0 0 0 
0 0 0 0 0 0 0 0 0 
0 0 0 0 -1 0 0 0 0 
0 0 0 0 0 0 0 0 0 
-1 0 0 0 0 0 0 0 0 
0 0 -1 0 0 0 0 0 0 
0 -1 0 0 0 0 0 0 0 
0 0 0 0 0 0 0 -1 0 
0 0 0 0 0 0 -1 0 0 
0 0 0 0 0 0 0 0 0 
0 0 0 0 0 0 0 0 0 
0 0 0 0 0 0 0 0 0 
0 0 0 0 0 0 0 0 0 
0 0 0 -1 0 0 -1 0 0 
0 0 -1 0 0 0 -1 0 0 
0 0 0 0 0 0 0 0 0 
0 0 0 0 0 0 0 0 -1 
0 0 -1 0 0 0 0 0 0 
0 0 0 0 0 0 0 0 0 
-1 0 0 -1 0 0 -1 0 0 
0 0 -1 0 0 0 0 0 -1 
-1 0 0 0 0 0 0 0 -1 
0 0 0 0 0 0 0 0 0 
0 0 0 0 0 0 0 0 0 
0 0 0 0 0 0 0 0 -1 
0 1 0 0 0 -1 -1 0 0 
0 0 -1 -1 1 0 0 0 0 
0 0 -1 0 0 -1 0 0 0 
0 0 0 0 0 0 0 0 0 
0 0 0 
v 3 1000 double
0.0002205227005 -0.053243811241 -0.07841161174 -0.021128034162 0.056912331519 0.0070639633353 -0.019694641525 -0.015692654193 -0.057550112393 
-0.012679401026 -0.030399478226 -0.064643795271 -0.01656673012 -0.011696743252 -0.058810692324 0.002189924616 0.020809106444 -0.02644415502 
-0.010556629555 -0.031651344046 -0.05023450466 -0.015635596479 -0.016724807018 -0.028275452276 0.012331695908 0.028563744195 0.0042017017397 
0.02569122466 0.0039506572618 -0.02629513609 0.0084838843841 -0.011481751449 -0.036680938199 0.0069904509439 -0.019118626004 -0.018553861177 
0.020817439593 0.035400873151 0.023536983249 0.02287753139 -0.047361303402 0.01201966962 -0.0086154629022 0.013667646362 -0.013305043027 
0.0026273513654 -0.026689190774 -0.03997778482 0.0042043954647 -0.020213790359 -0.056437242445 -0.023476951619 0.014224554329 -0.050818828487 
-0.028540012035 -0.046852213066 -0.024540447113 0.012353840181 0.042627450616 -0.012322235396 0.0058990530408 -0.043410751279 -0.047450200356 
-0.0080864558464 -0.03112149487 -0.047214917925 0.020167763926 -0.039472226035 -0.024349489219 0.033683517839 0.025778674148 -0.0047264761082 
0.046529092961 0.0037193744457 0.010229516136 0.022350934864 -0.042213695697 0.012759934336 0.041594391943 0.053979415314 0.010652171647 
0.036610209955 0.010723622946 0.027455459807 0.034769418803 -0.028343863802 -0.0018350928945 0.039856396182 -0.066456259234 0.0025360225718 
0.0059234138244 -0.037195134333 -0.032807586706 0.0048990602643 0.015258592103 -0.013282687342 0.0021424899344 -0.017548448263 -0.068620042588 
0.0058738386365 -0.044560111614 -0.025798680038 0.017270827618 0.0051503231429 -0.044943323024 -0.017991554559 -0.036049214141 -0.060150928324 
0.024134435008 0.024670267238 0.0074441716494 0.030428319206 0.01286183862 -0.018898727636 0.0073185914321 -0.053480907301 -0.045312257055 
0.025672865932 -0.019329082587 -0.010941159307 0.012845281586 -0.048492819596 -0.023619630917 0.02929132762 -0.0064066776209 -0.01091237958 
0.049236893055 0.05080864327 0.021535287253 0.045934200073 0.0094696883964 -0.0017460573985 0.012088236642 -0.022091072305 0.0076968713652 
0.037151109172 -0.025764217606 -0.018579320013 0.037412446958 0.011234014522 0.030082771029 0.024101098824 -0.040627712826 0.011952451788 
0.010398251005 0.00038990162219 -0.044719096157 0.011723450534 -0.00081307625618 -0.047870498733 0.0099479703117 -0.025082537293 -0.079320424771 
-0.014236392229 -0.045339875905 -0.022068526283 -0.012099073813 -0.036324555235 -0.050552014495 0.020517662866 0.020418171861 0.00044177060825 
0.0080693675837 -0.039155093847 -0.027495663594 0.026262791885 0.016774544969 -0.0042651045573 0.018109302824 -0.014806759435 -0.064017111483 
-0.017315244188 -0.034247144421 -0.054652287163 0.031998133561 -0.0034250173539 -0.0072679638684 0.030997753608 0.0036696939033 -0.026339553816 
0.024493341324 -0.046193991416 -0.03496738128 0.051955755385 0.015471941754 0.00064746311112 0.043947860696 -0.03661883717 -0.0285326521 
0.041340408798 -0.032390238521 -0.019351398093 0.040133884305 0.017235720756 0.001413588801 0.041586311884 -0.021264956382 0.0023847385817 
0.039594386572 0.036918457817 0.036341544794 0.032917913586 0.017859614825 0.029438748205 0.052020999047 -0.036643682812 0.0085144405153 
0.050794901653 -0.023021402846 0.023039120796 -0.018436562606 -0.02582889982 -0.055603453259 -0.0078658204659 -0.046517033216 -0.071272453295 
0.02216633931 0.037450501187 -0.0064116437977 0.0095510501776 -0.0034442560119 -0.043745291975 0.0017603626809 -0.03926705593 -0.062665819342 
-0.02039141985 -0.046238513886 -0.052594125145 0.016118668894 -0.035368607975 -0.034474103691 0.041025142146 0.019808063676 0.007075035048 
0.039683240212 -0.0078393819429 -0.007411201894 0.031523549181 -0.046566754982 -0.020568000956 0.026571219942 -0.016082834444 0.0088089051718 
0.018470242401 -0.039118785451 -0.0064620781802 0.05447599769 -0.030720383041 0.0086630074518 -0.024599318476 0.010933604844 -0.0096812304794 
-0.024027740027 -0.053654457456 -0.043583592619 0.00012001499503 0.0018670390182 -0.044242309125 -0.01010725683 -0.043933052549 -0.078437178334 
-6.8518606078e-05 -0.03352998863 -0.058986302447 0.036478600033 0.020508252167 0.0073920028545 0.032237855417 -0.00034517885967 -0.01460058994 
0.023371696252 -0.023351613058 -0.0070130406145 0.020711481097 -0.05443992565 -0.053033536559 0.040022667407 -0.01908348268 -0.0011475445084 
0.025783104369 -0.033995993505 -0.00080019059584 0.030521826492 0.013262005436 0.019560728158 0.02781344225 -0.0052267241794 0.018526898377 
0.030960079841 -0.021220282879 0.0077639974047 -0.012407357969 -0.010392832401 -0.042145869092 -0.0076954059503 0.0087974718184 -0.012971221506 
-0.028319396441 0.014950665944 -0.020392661031 -0.0054969857343 -0.025090430621 -0.074960341345 -0.0025617255155 -0.027803070715 -0.064014307636 
0.0040702923707 -0.0039337787351 0.0012717529102 0.00040658279584 -0.010405723454 -0.029338764947 -0.002893909843 -0.031437405228 -0.061944076897 
0.010714152763 -0.045718026251 -0.035636381817 0.029276745135 0.016569167036 -0.014346594166 0.014702629125 -0.04279965755 -0.018789642011 
0.035177996461 0.0052044439445 0.01070408838 0.022818589999 -0.0090115062481 0.0092164119405 0.022291984273 -0.032094931057 0.0057751080423 
0.024727540044 -0.042320863818 -0.01508752493 0.030372433571 0.0036014808413 0.0137312501 0.037122005012 -0.036287783355 0.020930868252 
-0.031839078167 -0.011594744647 -0.043798018876 -0.032953399247 -0.039991274711 -0.036452644568 -0.039454134526 -0.0070095638273 -0.054820517839 
-0.012067143972 -0.029630132945 -0.057858151562 -0.011207346703 -0.046076857004 -0.043419092148 0.0013271138122 0.020483768105 -0.027546289762 
-0.00094602742699 0.004151482396 -0.043345200313 0.019375667268 -0.02066590932 -0.030088510911 -0.0020870525479 -0.038120905736 -0.058048667822 
0.025011658818 0.0089975916819 0.017163948889 0.020258695245 -0.0097826041026 0.0076865748689 0.013553040581 -0.041085997809 -0.021849244377 
0.032464816813 0.00053146884485 0.021319028718 0.031087903568 -0.018381109814 0.023437535293 0.034300591918 0.0013437984776 0.013829150319 
0.028212651773 -0.032369171834 0.012203290586 -0.040664730747 0.011737791127 -0.011438435655 -0.02743114571 -0.019499989144 -0.045803911012 
-0.026231763682 0.0019787801876 -0.069157809392 -0.023347875433 -0.017916148806 -0.068889835276 -0.020033143549 0.013866646829 -0.012039415117 
-0.046487109424 -0.026672413325 -0.045150078069 -0.020647185863 -0.011791691515 -0.036894699172 -0.035075062255 0.013678180619 -0.0092469183905 
-0.030363048711 -0.0032045775772 -0.026057551046 -0.037588373312 -0.020497837554 -0.081069090294 -0.019212174855 -0.03370066439 -0.046609848369 
0.017878293357 0.019234683146 0.010943858499 -0.031778549981 0.0061711244275 -0.027048671978 0.034071835691 -0.026454742853 0.002936398207 
0.0037438888481 -0.029134047989 -0.019098797703 0.039788424488 0.0065435067355 0.014190030996 0.037540373224 0.017783235777 0.0088123013513 
0.035046629511 -0.018466876187 0.019889821162 0.019827874412 -0.016896456923 0.0056347391108 0.040266230766 -0.033129205824 -0.0086426768295 