# vtk DataFile Version 4.2
Generated by LIGGGHTS
ASCII
DATASET POLYDATA
POINTS 1000 float
1.50313 0.598653 0.563732 2.53601 0.547185 0.106974 4.53783 0.155428 0.31105 
4.65839 1.1479 0.281787 0.0071182 1.82963 0.458611 1.43614 1.56352 0.245323 
2.45188 1.86898 0.0514101 3.45215 1.83696 0.0341125 4.06677 2.71275 0.181206 
0.807132 3.24735 0.501977 2.044 3.19186 0.551873 3.42186 3.5136 0.0961044 
0.00404131 3.88777 0.512181 1.09317 4.30018 0.301891 1.94008 4.77149 0.0498833 
2.97236 4.43095 0.185683 4.24267 4.48524 0.208581 0.147326 0.487574 0.992538 
2.36866 0.413758 1.08414 4.63588 -0.00161395 1.3258 0.890047 1.2289 1.17433 
3.13753 1.11386 0.670084 4.00066 0.695943 0.961626 1.91682 1.44581 1.14045 
3.59369 1.80032 1.24493 0.867513 2.25073 0.74906 2.69665 2.16364 0.981082 
4.46931 1.9977 0.776436 4.06165 2.78886 1.23442 3.1376 3.15736 1.13249 
4.75822 3.24235 0.677703 2.09825 4.23584 0.884183 3.14886 4.24165 1.28193 
0.572759 4.40771 1.14959 3.79211 4.94869 0.988104 1.06418 0.197046 1.36952 
3.25921 0.346312 1.53514 2.79248 1.23384 1.60353 3.85802 1.07768 1.90122 
4.84113 0.977096 1.72752 1.0642 2.09081 1.7387 4.41856 2.02342 1.79657 
0.285421 3.4722 1.37822 1.65776 3.5947 1.51247 4.34941 3.49017 1.88827 
1.57483 4.97929 2.00248 4.01275 4.43077 1.81936 0.0028917 0.183098 2.06423 
0.899193 0.598222 2.27071 4.51083 0.204664 2.30192 1.84448 0.994467 2.03393 
2.71267 0.625694 2.40256 0.113662 1.96852 2.43126 2.01274 2.04178 2.16141 
3.13863 2.0456 2.17737 1.86195 3.05465 2.51492 3.58364 2.99261 2.4234 
0.103411 3.44584 2.65335 0.953112 3.16849 2.08291 0.111856 4.22079 2.01816 
1.07772 4.14993 2.26732 2.32291 4.21012 2.13748 3.26488 3.93817 2.33497 
0.388467 0.121039 2.99503 1.43847 0.55732 3.12658 3.55902 0.0992644 2.71711 
3.49733 1.22027 2.83021 1.14517 1.44507 2.77177 2.54192 1.51745 2.83209 
4.59208 1.32202 2.64603 1.06817 2.44212 2.76066 1.96179 2.35462 3.22788 
4.08225 2.18025 2.72735 2.92888 2.53701 3.03892 4.72124 2.97778 2.71475 
0.790073 3.98273 3.21042 1.7764 4.28071 3.09659 2.77723 4.31914 3.26159 
4.23183 3.83514 2.87603 0.110668 4.84735 2.79787 3.63503 4.79516 2.69374 
0.517237 0.566845 3.88402 2.40362 0.653986 3.37378 3.23126 1.03754 3.78787 
4.18611 0.63344 3.3556 1.58208 1.37094 3.69886 2.50043 1.74863 3.83278 
0.0206835 1.95648 3.74811 1.02589 2.20054 3.75971 3.55698 1.95418 3.55544 
0.341883 2.84353 3.41516 1.76194 3.35329 3.47241 3.35994 3.37082 3.38423 
3.75662 4.32948 3.99459 4.38196 4.81389 3.35842 1.48684 0.556223 4.28925 
4.69076 0.522808 4.21412 2.46557 0.775954 4.40446 3.74658 0.704768 4.57928 
0.496348 1.38048 4.47454 3.42826 1.65406 4.55598 4.27201 1.46074 4.05527 
1.7261 2.40758 4.44298 4.37547 2.45622 4.31748 0.207841 2.90723 4.55053 
2.50274 2.87151 3.98626 3.39421 2.6418 4.40035 0.925447 3.38614 4.0194 
3.31768 3.62584 4.58276 4.13754 3.40182 4.01227 1.52108 4.18809 4.07055 
2.47096 3.8717 4.10806 4.83495 4.27542 4.06941 0.551632 4.47018 4.06544 
2.14096 4.9841 4.12867 0.115887 0.539626 4.86077 1.04456 0.578634 5.22966 
2.10014 0.0887138 5.0328 4.55177 1.14374 4.98748 1.469 1.47272 4.68957 
0.631188 2.15876 5.09366 2.58697 2.07581 4.89414 4.28907 2.07557 5.2404 
4.41661 3.08607 5.19384 1.69831 3.37975 4.67651 0.685226 3.87514 4.85796 
1.89798 4.30521 4.99901 4.22121 3.99407 4.81452 0.119652 4.74386 4.94025 
1.12156 4.89343 4.77242 3.39218 4.55706 4.97109 1.73517 0.517956 5.95035 
2.68051 0.206912 5.85052 3.84996 0.404666 5.52849 2.17826 1.16976 5.32653 
3.17329 1.13324 5.42154 4.79075 0.640173 5.81777 0.0966642 1.34588 5.45424 
1.2354 1.42755 5.74277 1.55986 2.32606 5.43467 2.55659 2.64037 5.75682 
1.81706 3.36899 5.68198 3.36464 3.15208 5.46216 1.08051 4.13623 5.73864 
2.56716 4.06897 5.7042 3.39464 4.62919 5.98079 0.00771011 0.642998 6.17626 
2.14873 1.44374 6.31386 3.13817 1.67164 6.4639 3.99494 1.28948 5.97214 
0.450761 2.04856 6.07168 4.14939 2.2341 6.26196 1.4355 2.74549 6.37115 
0.651192 3.25889 6.02143 1.47041 3.72986 6.56529 2.92279 3.51306 6.46352 
3.99224 3.22562 6.24424 4.3743 4.24028 6.1039 0.425967 4.90196 6.1611 
1.66287 4.8776 6.07227 1.60759 0.221938 7.05198 0.7373 0.946204 6.7897 
2.43437 0.785536 7.0964 3.42217 0.761289 6.76824 4.63014 0.642849 6.805 
1.21876 1.81611 6.67267 4.1016 1.47964 6.94845 0.349881 2.90181 7.02672 
1.91019 2.56108 7.23408 2.79843 2.56665 6.76887 3.90561 3.01028 7.22222 
4.90076 3.11225 7.09204 0.517218 4.07581 6.73734 2.27601 4.31002 6.68672 
3.42195 4.31583 6.93036 4.34164 3.94428 7.05852 1.07082 4.90106 6.92602 
4.82953 4.8434 7.05346 0.561846 0.169501 7.39509 4.06488 0.441983 7.60992 
1.51481 1.16708 7.37924 4.67844 1.20103 7.82993 0.0743292 1.63056 7.65849 
2.34489 1.70708 7.51986 0.945528 2.2068 7.56028 3.35701 1.96973 7.40197 
4.62108 2.19874 7.41327 2.80844 2.66435 7.868 1.17819 3.30414 7.42323 
3.0829 3.53261 7.45202 0.900676 4.24876 7.66527 2.51307 4.32656 7.66802 
4.99507 3.96658 7.81522 4.21538 4.61607 7.83172 0.829501 0.0390998 8.35096 
1.78372 0.379277 8.02821 2.77469 0.288236 8.15094 0.750956 0.982472 8.01188 
1.91759 1.31328 8.3602 2.98485 1.26601 8.14906 3.88972 1.68823 8.20503 
0.0160463 2.47467 8.5615 1.3139 2.30791 8.48912 2.31177 2.20023 8.60332 
1.86179 3.05472 8.11153 4.0496 2.67399 8.15292 0.342422 3.60368 8.37819 
3.26285 3.29465 8.53069 2.2111 3.97021 8.5556 3.37811 4.26087 8.24907 
4.30849 3.85679 8.53543 0.511674 4.7131 8.46216 1.62804 4.76966 8.12317 
1.45042 0.528839 8.96304 3.13698 0.528916 9.08555 0.380843 1.24438 8.93164 
4.22443 0.886389 8.76431 2.86974 1.49541 9.118 4.00401 1.7573 9.20394 
4.95316 1.56975 8.7189 3.30776 2.30911 8.73211 0.663117 3.10835 9.20962 
2.25226 3.09645 9.04306 4.14325 2.93352 9.11415 1.19585 4.01654 8.69662 
3.52132 4.00432 9.2205 2.78318 4.65419 9.00934 3.83122 4.96612 9.31001 
4.74757 4.78032 8.95255 4.68173 0.0110259 9.33102 0.879805 0.764886 9.76295 
1.99544 1.15317 9.52288 3.75324 0.719378 9.87724 0.261411 2.09199 9.45491 
1.44478 2.20855 9.47557 4.90614 2.34336 9.39469 2.82101 2.76756 9.79952 
1.63199 3.6402 9.74311 0.484892 4.09483 9.52672 4.53634 3.82237 9.50879 
0.219779 5.26911 0.552771 3.9247 5.49021 0.157936 1.31958 6.19155 0.369678 
3.29807 6.1509 0.571484 4.80502 6.1489 0.332876 2.31174 6.28755 0.461616 
0.838396 7.06204 0.516468 3.54001 7.07204 0.258549 4.50329 7.26385 0.0282263 
2.79797 7.72922 0.407943 3.97535 7.91925 0.569636 0.508479 8.87611 0.342512 
2.2929 8.87332 0.443034 4.30566 8.92303 0.303365 0.810921 9.82551 0.23838 
3.62377 9.72283 0.53356 1.21189 5.15899 0.984862 2.06453 5.55514 1.32666 
2.82462 5.25237 0.746956 0.65423 5.99253 1.08992 4.58121 6.11406 1.30693 
1.84148 7.08709 0.902724 2.79865 6.91593 1.14418 4.67219 7.05959 0.993046 
0.253538 7.79031 0.913735 2.25266 8.01079 1.22423 1.4441 8.42895 0.760462 
3.45946 8.7472 0.815251 4.50213 8.93828 1.28856 0.326653 9.50405 1.13046 
1.56757 9.45019 0.856636 2.75552 9.47923 1.11218 0.531262 5.12015 1.89014 
3.64879 5.45979 1.83571 4.68203 5.1344 1.49731 0.210311 6.85111 1.35101 
1.42804 6.44423 1.54841 2.49234 6.28571 1.85909 3.67267 6.51542 1.42402 
1.13002 7.44292 1.52597 2.35618 7.32916 1.97505 4.19913 7.15526 1.98507 
3.44956 7.64074 1.37344 4.50411 7.94717 1.42583 0.493578 8.57875 1.48129 
1.43608 8.36691 1.75851 3.10808 8.51197 1.72786 1.92291 9.99246 1.9554 
3.64938 9.38612 1.56907 2.79589 5.08754 2.22309 4.48689 5.27461 2.47258 
0.580901 6.10067 2.08148 1.70891 5.92798 2.40744 4.14699 6.20017 2.28707 
3.27728 6.69263 2.3269 0.451508 7.16546 2.2692 1.40813 6.89895 2.44084 
0.712629 8.12135 2.40374 3.30383 7.70743 2.36279 4.03041 8.44872 2.14977 
0.560078 9.35387 2.11025 2.24178 8.86099 2.08522 2.85829 9.64721 2.12723 
0.97853 5.34285 2.76018 2.11337 5.21502 2.98024 3.23525 5.68977 2.89505 
0.85215 6.2993 3.02343 2.37769 6.44752 2.93946 4.47279 6.44733 3.19964 
0.793031 7.28042 3.20759 3.16778 7.09179 3.2382 4.07191 7.40444 2.94615 
1.86966 7.51173 3.08407 1.1696 8.20354 3.28941 2.62118 8.20693 2.89661 
4.41727 8.33215 3.09395 0.0409239 8.78823 2.75144 1.87267 8.85958 3.01488 
3.31041 8.8994 2.68344 4.22865 9.29486 2.6629 1.27665 9.64688 2.74546 
2.25411 9.77841 2.91348 1.24926 5.07769 3.68563 0.141806 5.71287 3.41317 
2.57928 5.77531 3.66515 3.49452 6.17055 3.74349 4.59716 5.6739 3.82133 
0.252352 6.64354 3.77606 1.41601 6.61294 3.78743 2.37259 6.9011 3.83146 
4.00941 7.0175 3.87924 2.32638 7.97543 3.86551 3.47802 8.06296 3.41123 
4.56426 7.84632 3.95569 0.387788 9.13512 3.62943 2.73101 8.96044 3.60529 
3.82826 8.99584 3.55571 1.13649 9.79632 3.73124 3.35593 9.91628 3.68415 
4.71594 9.72163 3.4266 0.100345 5.58899 4.40468 3.13428 5.10125 4.16879 
4.08773 5.13377 4.49129 1.06711 5.83744 4.31393 2.03909 6.04135 4.46358 
0.832086 6.85401 4.56321 2.96018 6.52028 4.54543 4.81831 6.43934 4.4851 
3.12515 7.46296 4.18618 0.414105 7.65103 4.1266 1.412 7.57942 4.11995 
0.932966 8.52644 4.20578 2.44015 8.63894 4.60666 3.76628 8.18177 4.4564 
1.76282 9.04293 3.99181 3.31488 9.10361 4.41152 4.87402 8.86985 4.02431 
2.40927 9.8218 4.02655 4.06595 9.76838 4.43171 2.514 5.09135 5.05064 
3.38231 5.53941 5.26474 4.85608 5.56942 4.97913 1.63038 5.66122 5.30611 
3.89036 6.27849 4.82178 1.72047 6.95384 5.01133 3.32645 7.26702 5.14838 
4.2716 7.2286 4.82388 0.326534 8.04872 5.29175 1.35794 8.0772 4.99162 
2.3751 7.70962 4.97659 4.69305 8.02587 5.25635 0.706722 8.97018 5.20921 
4.33848 8.88285 4.88222 1.27739 9.62076 4.7058 3.08427 9.92829 4.93699 
0.644433 5.51273 5.39952 2.42606 5.51279 5.95326 4.20115 5.01038 5.4888 
4.81421 5.72546 5.99135 0.818814 6.4952 5.49663 2.40739 6.31241 5.353 
3.83768 6.26602 5.86868 4.70316 6.57305 5.47242 1.01493 7.45507 5.70888 
2.86794 6.94451 5.97671 4.44904 7.38755 5.99553 2.83476 7.94656 5.87803 
1.98774 8.48644 5.65407 3.72135 8.14679 5.46055 2.89896 8.85691 5.46903 
0.3035 9.88573 5.59394 1.55786 9.41909 5.66013 3.652 9.45043 5.75367 
4.55555 9.7052 5.40885 4.09837 5.25564 6.50935 0.129442 6.19775 6.15717 
0.92256 5.85376 6.66004 3.2348 5.76134 6.48667 0.787352 6.87432 6.49387 
1.60785 6.32477 6.08733 2.41967 6.31049 6.67109 1.96572 7.47212 6.01946 
[...]
POINT_DATA 1000
FIELD FieldData 7
id 1 1000 int
24 25 809 45 7 909 874 450 300 
531 20 892 116 605 117 601 129 26 
62 52 541 32 69 626 288 501 130 
939 759 142 990 109 521 111 147 561 
48 36 43 568 504 927 610 600 175 
365 624 71 551 574 37 588 17 418 
404 255 762 251 526 368 841 272 872 
644 562 59 61 30 70 591 508 283 
776 263 674 767 358 752 419 356 659 
545 663 87 581 566 589 302 42 50 
765 269 766 749 681 197 377 74 598 
570 105 235 294 592 755 84 79 744 
783 408 769 286 207 866 262 670 78 
82 846 583 68 584 515 698 276 764 
814 215 813 281 669 833 357 851 608 
114 838 707 104 578 110 296 571 285 
322 284 699 554 546 268 202 12 97 
278 580 577 510 214 307 816 123 576 
279 782 868 512 277 72 128 594 532 
558 797 702 630 28 323 703 208 47 
557 867 715 543 506 44 274 27 602 
529 567 742 658 511 722 13 552 528 
540 556 559 236 505 542 11 393 120 
148 596 503 139 590 125 544 170 735 
747 539 53 280 162 604 21 424 121 
612 634 229 729 993 31 67 535 514 
547 656 922 603 599 134 88 234 81 
635 855 77 593 696 491 718 839 243 
548 362 5 58 73 597 242 115 370 
716 625 963 137 22 133 150 654 640 
534 80 849 646 631 845 240 138 144 
884 174 633 140 750 3 29 560 49 
538 899 651 378 717 8 141 108 160 
173 638 502 167 661 51 380 979 154 
375 639 629 648 149 402 636 682 662 
35 905 684 187 46 169 188 261 369 
415 647 623 254 384 171 157 180 172 
275 163 192 301 673 75 349 781 177 
193 788 791 917 190 39 155 426 920 
199 676 565 182 342 40 582 354 292 
664 410 902 652 945 660 446 186 198 
637 795 178 291 195 840 406 789 164 
159 919 297 153 161 470 675 456 474 
181 830 347 678 685 858 836 680 453 
314 211 933 321 317 948 935 335 701 
329 666 856 85 10 330 573 737 940 
807 916 91 709 800 857 334 689 686 
200 126 822 463 372 332 736 66 219 
938 831 196 837 971 458 954 203 870 
363 256 988 628 337 103 206 976 691 
972 563 224 996 315 688 961 969 863 
708 223 15 107 585 999 820 471 303 
210 713 994 861 875 246 507 555 745 
579 86 586 152 100 237 225 238 99 
714 694 727 997 231 18 477 479 63 
33 533 486 328 132 523 391 9 92 
879 252 509 924 399 616 683 668 995 
146 981 136 522 490 873 860 1 439 
655 420 847 364 653 854 484 14 2 
101 405 41 60 575 881 843 519 194 
469 289 650 620 316 96 889 385 518 
102 524 896 692 311 891 449 815 768 
423 615 862 83 413 386 23 264 929 
777 345 758 970 431 290 657 811 812 
748 928 257 89 952 295 904 757 719 
763 801 774 468 310 165 304 253 877 
796 798 780 790 832 258 228 834 775 
536 712 802 56 476 425 452 324 461 
778 333 427 806 679 779 677 94 818 
819 808 695 743 306 478 351 318 184 
443 320 65 665 113 352 55 106 553 
340 325 738 489 985 829 428 312 462 
338 305 848 326 355 308 220 361 359 
564 4 1000 247 343 6 442 967 667 
209 488 706 191 230 549 859 826 810 
38 595 371 346 473 957 700 690 218 
499 710 704 241 587 217 513 900 64 
57 527 287 373 880 741 212 496 221 
222 201 733 482 725 54 244 205 989 
216 95 270 118 168 724 227 245 895 
726 271 641 119 226 642 672 122 213 
720 379 487 732 746 721 530 112 572 
982 248 607 980 606 156 632 643 124 
127 869 299 516 619 466 93 956 350 
493 968 341 233 975 977 520 723 761 
852 392 918 617 613 794 76 740 480 
494 498 475 844 853 611 730 614 366 
367 267 492 166 249 517 890 396 401 
973 495 912 817 986 621 383 786 232 
395 728 842 983 145 260 609 485 265 
865 773 885 569 376 387 282 293 886 
143 437 360 731 754 987 771 770 250 
400 394 273 756 16 34 645 151 259 
894 984 753 882 381 897 432 500 382 
871 921 878 901 784 903 914 403 907 
398 793 390 389 772 876 887 898 397 
185 298 785 353 417 436 649 923 942 
430 422 411 883 414 313 751 906 888 
893 438 433 457 189 319 992 409 309 
435 925 388 787 407 412 908 416 926 
429 937 934 792 448 331 951 440 459 
915 434 943 910 803 950 941 821 913 
739 835 447 467 978 421 965 799 348 
946 944 460 931 455 183 441 827 949 
176 179 671 451 483 550 947 454 497 
964 444 697 204 959 693 825 711 537 
336 936 974 960 930 824 958 864 804 
98 998 687 481 705 622 911 618 627 
158 266 90 850 805 932 472 823 953 
339 464 374 966 734 19 135 131 760 
465 955 525 962 445 327 828 239 344 
991 
type 1 1000 int
1 1 2 1 1 2 2 1 1 
2 1 2 1 2 1 2 1 1 
1 1 2 1 1 2 1 2 1 
2 2 1 2 1 2 1 1 2 
1 1 1 2 2 2 2 2 1 
1 2 1 2 2 1 2 1 1 
1 1 2 1 2 1 2 1 2 
2 2 1 1 1 1 2 2 1 
2 1 2 2 1 2 1 1 2 
2 2 1 2 2 2 1 1 1 
2 1 2 2 2 1 1 1 2 
2 1 1 1 2 2 1 1 2 
2 1 2 1 1 2 1 2 1 
1 2 2 1 2 2 2 1 2 
2 1 2 1 2 2 1 2 2 
1 2 2 1 2 1 1 2 1 
1 1 2 2 2 1 1 1 1 
1 2 2 2 1 1 2 1 2 
1 2 2 2 1 1 1 2 2 
2 2 2 2 1 1 2 1 1 
2 2 2 2 2 1 1 1 2 
2 2 2 2 2 2 1 2 2 
2 2 2 1 2 2 1 1 1 
1 2 2 1 2 1 2 1 2 
2 2 1 1 1 2 1 1 1 
2 2 1 2 2 1 1 2 2 
2 2 2 2 2 1 1 1 1 
2 2 1 2 2 1 2 2 1 
2 1 1 1 1 2 1 1 1 
2 2 2 1 1 1 1 2 2 
2 1 2 2 2 2 1 1 1 
2 1 2 1 2 1 1 2 1 
2 2 2 1 2 1 1 1 1 
1 2 2 1 2 1 1 2 1 
1 2 2 2 1 1 2 2 2 
1 2 2 1 1 1 1 1 1 
1 2 2 1 1 1 1 1 1 
1 1 1 1 2 1 1 2 1 
1 2 2 2 1 1 1 1 2 
1 2 2 1 1 1 2 1 1 
2 1 2 2 2 2 1 1 1 
2 2 1 1 1 2 1 2 1 
1 2 1 1 1 1 2 1 1 
1 2 1 2 2 2 2 2 1 
1 1 2 1 1 2 2 1 2 
1 2 2 1 1 1 2 2 2 
2 2 1 2 2 2 1 2 2 
1 1 2 1 1 1 2 1 1 
2 2 1 2 2 1 2 1 2 
1 1 2 2 1 1 1 2 2 
2 2 1 2 1 2 2 2 2 
2 1 1 1 2 2 2 1 1 
1 2 2 2 2 1 2 2 2 
2 1 2 1 1 1 1 1 1 
2 2 2 2 1 1 1 1 1 
1 2 1 1 1 2 1 1 1 
2 1 2 2 1 2 2 2 2 
1 2 1 2 1 2 2 1 1 
2 1 2 1 2 2 1 1 1 
1 1 1 1 2 2 2 2 1 
1 1 2 2 1 1 2 1 2 
1 2 2 2 1 2 1 2 2 
1 2 2 1 1 1 1 1 2 
2 1 2 2 1 1 2 2 2 
2 2 1 1 2 1 2 2 2 
2 2 2 1 1 1 1 1 2 
2 2 2 2 2 1 1 2 2 
2 2 2 1 1 1 1 1 1 
2 1 1 2 2 2 2 1 2 
2 2 2 2 1 1 1 1 1 
1 1 1 2 1 1 1 1 2 
1 1 2 1 2 2 1 1 1 
1 1 2 1 1 1 1 1 1 
2 1 2 1 1 1 1 2 2 
1 1 2 1 1 2 2 2 2 
1 2 1 1 1 2 2 2 1 
1 2 2 1 2 1 2 2 1 
1 2 1 1 2 2 1 1 1 
1 1 2 1 2 1 1 1 2 
1 1 1 1 1 2 1 1 2 
2 1 2 1 1 2 2 1 1 
2 1 1 2 2 2 2 1 2 
2 1 2 2 2 1 2 2 1 
1 2 1 2 2 1 1 2 1 
1 2 1 1 2 2 2 2 2 
2 1 2 2 2 2 1 2 1 
1 1 1 2 2 2 2 2 1 
1 1 1 1 1 2 2 1 1 
2 1 2 2 2 2 1 2 1 
1 2 2 2 1 1 2 1 1 
2 2 2 2 1 1 1 1 2 
1 1 1 2 2 2 2 2 1 
1 1 1 2 1 1 2 1 1 
2 2 2 2 1 2 1 1 1 
2 2 2 2 2 2 2 1 2 
1 2 1 1 2 2 2 2 1 
1 1 2 1 1 1 2 2 2 
1 1 1 2 1 1 2 2 2 
2 1 1 1 1 1 2 1 1 
1 2 1 2 1 1 2 1 2 
1 2 2 2 1 1 2 1 1 
2 1 2 2 2 2 2 2 2 
2 2 1 1 2 1 2 2 1 
2 2 1 2 1 1 1 2 2 
1 1 2 1 1 2 2 1 1 
2 1 2 1 2 2 2 2 2 
1 2 2 2 2 2 2 2 2 
1 2 2 1 2 2 2 2 2 
1 1 1 2 2 2 1 2 2 
1 1 1 2 2 1 1 1 2 
1 2 2 2 1 1 2 1 1 
2 
i 3 1000 int
0 0 0 0 0 0 0 0 0 
0 0 0 0 0 0 1 0 0 
1 0 0 1 0 0 1 0 0 
0 0 0 0 0 0 1 0 0 
0 0 1 0 0 1 0 0 1 
0 0 1 0 0 0 0 0 0 
0 0 0 0 0 0 0 0 0 
0 0 0 0 0 0 0 0 0 
1 0 0 0 0 0 0 0 0 
1 0 0 1 0 0 0 0 0 
1 0 1 0 0 1 0 0 0 
0 0 1 0 0 0 0 0 0 
0 0 0 0 0 0 0 0 0 
0 0 0 0 0 0 1 0 0 
0 0 1 0 0 1 0 0 0 
1 0 1 0 0 0 0 0 0 
0 0 0 0 0 0 0 0 0 
0 0 0 0 0 0 1 0 0 
1 0 0 1 0 0 1 0 0 
1 0 0 0 0 0 1 0 1 
1 0 1 1 0 0 1 0 0 
0 1 0 0 0 0 0 0 0 
0 0 0 0 0 0 0 0 0 
0 0 0 0 0 0 1 0 0 
1 0 0 1 0 0 0 0 0 
1 0 0 1 0 1 1 0 0 
1 0 0 1 0 1 0 0 0 
0 0 0 0 1 0 0 0 0 
0 0 0 0 0 0 0 0 0 
1 0 0 0 0 0 0 0 0 
1 0 0 1 0 0 1 0 0 
1 0 0 0 0 0 0 1 0 
0 0 0 0 0 0 0 0 0 
0 0 0 0 0 0 0 0 0 
1 0 0 0 0 0 1 0 0 
0 0 0 0 0 0 1 0 0 
1 0 0 1 0 0 1 0 0 
1 0 0 0 0 0 1 0 1 
1 0 0 0 1 0 0 0 0 
0 0 0 0 0 0 0 0 0 
0 0 0 0 0 0 0 0 -1 
0 0 0 1 0 0 1 0 0 
1 0 0 0 0 0 1 0 0 
1 0 0 0 0 0 0 0 0 
0 0 0 0 0 0 0 0 0 
0 0 0 0 0 0 0 1 0 
0 0 0 0 0 0 0 0 0 
1 0 0 0 0 0 1 0 0 
1 0 0 1 0 0 0 1 0 
0 0 -1 0 0 -1 0 0 -1 
0 1 0 0 0 -1 0 0 0 
1 0 0 0 0 0 0 0 0 
0 0 -1 0 0 0 1 0 0 
1 0 0 0 0 0 0 0 0 
0 0 -1 0 0 -1 0 0 0 
0 0 -1 0 0 -1 0 0 0 
0 0 0 0 0 0 0 0 -1 
0 0 -1 1 0 0 0 0 0 
0 0 -1 0 0 -1 1 0 0 
0 0 0 0 1 0 0 0 -1 
0 0 -1 0 0 0 0 1 0 
0 0 -1 0 0 -1 0 0 -1 
0 0 -1 0 0 -1 0 0 0 
0 0 -1 0 0 0 0 0 0 
0 0 -1 0 0 -1 0 1 0 
0 0 -1 0 0 -1 0 0 -1 
0 0 -1 0 0 -1 0 0 -1 
0 1 0 0 0 -1 0 0 -1 
0 0 -1 1 0 -1 0 0 0 
0 0 -1 0 0 0 0 0 -1 
0 0 -1 0 0 0 0 0 0 
0 0 -1 0 1 -1 0 1 0 
0 0 -1 0 0 -1 0 0 -1 
0 0 -1 0 0 -1 0 0 0 
0 0 -1 1 0 -1 0 0 0 
0 0 -1 0 0 -1 0 0 0 
0 0 0 0 1 0 0 0 -1 
0 0 -1 0 0 -1 0 0 -1 
0 0 -1 0 0 -1 1 0 -1 
0 0 0 0 0 0 0 0 -1 
0 0 1 0 0 1 0 0 1 
0 0 0 0 -1 1 0 0 1 
0 0 1 0 0 1 0 0 1 
0 0 1 0 -1 1 0 0 1 
0 -1 0 0 -1 1 0 -1 0 
0 -1 0 0 0 1 0 0 1 
0 0 1 0 0 1 0 -1 1 
0 0 1 0 0 0 0 0 1 
0 0 0 0 -1 0 0 0 0 
0 0 0 0 0 0 0 0 0 
0 -1 0 0 -1 0 1 0 1 
0 0 0 0 0 0 1 0 1 
0 0 1 0 0 0 0 0 0 
1 0 0 0 0 0 0 0 0 
0 0 0 0 -1 0 0 -1 0 
0 -1 0 0 -1 0 0 -1 0 
0 -1 0 1 0 0 0 0 0 
1 0 1 0 0 1 0 -1 0 
0 0 0 0 0 1 0 0 0 
0 0 0 0 0 0 0 -1 0 
0 0 0 0 0 0 0 -1 0 
1 0 1 1 0 1 0 0 0 
1 0 1 0 0 0 0 0 0 
0 0 0 0 0 0 0 0 0 
0 0 0 0 0 0 0 0 0 
0 -1 0 1 0 0 0 0 0 
0 0 0 0 -1 0 0 0 0 
0 0 0 1 0 0 1 0 1 
1 0 0 0 0 0 0 0 0 
1 0 0 1 0 0 0 0 0 
0 0 0 0 0 0 0 0 0 
0 -1 0 0 0 0 0 0 0 
0 -1 0 0 0 0 0 -1 0 
0 -1 0 1 0 0 0 0 0 
0 0 0 1 0 0 1 0 0 
1 0 0 0 0 0 0 -1 0 
0 0 0 1 0 0 1 0 0 
0 0 0 0 0 0 0 -1 0 
0 0 0 0 -1 0 0 -1 0 
0 -1 0 0 -1 0 1 0 0 
0 0 0 0 0 0 1 0 0 
0 0 0 1 0 0 0 0 0 
0 0 0 0 0 0 0 0 0 
0 0 0 0 -1 0 0 0 0 
0 -1 0 0 0 0 0 -1 0 
1 0 0 1 0 0 0 0 0 
0 0 0 1 0 0 1 0 0 
0 0 0 0 0 0 1 0 0 
0 0 0 0 0 0 0 0 0 
0 0 0 0 -1 0 0 -1 0 
0 0 0 0 0 0 0 -1 0 
0 -1 0 0 0 0 1 0 0 
1 0 0 0 0 0 1 0 0 
1 0 0 1 0 0 1 0 0 
0 0 0 0 -1 0 0 0 0 
0 -1 0 0 0 0 0 -1 0 
0 -1 0 0 -1 -1 0 -1 0 
0 0 0 0 0 0 0 0 0 
1 0 0 0 0 0 0 0 0 
0 0 0 1 0 0 0 -1 0 
0 -1 0 0 0 0 0 0 0 
0 0 0 0 -1 0 0 -1 0 
0 0 0 0 -1 0 1 0 0 
0 0 0 0 0 0 0 0 0 
0 0 0 1 0 0 0 0 0 
1 0 0 0 0 0 0 0 0 
0 0 0 0 0 0 0 -1 0 
0 -1 0 0 -1 -1 0 0 0 
0 0 -1 1 0 0 0 0 0 
0 0 0 0 0 0 0 0 0 
0 0 0 0 0 0 0 0 0 
0 0 0 1 0 0 0 0 0 
0 0 0 0 0 0 0 -1 0 
0 0 0 0 0 0 0 -1 -1 
0 0 0 0 0 0 0 0 0 
0 -1 0 0 0 0 1 0 0 
0 0 0 0 0 0 0 0 0 
0 -1 0 0 0 -1 0 0 0 
0 -1 -1 0 -1 -1 0 -1 -1 
0 0 0 0 0 0 0 0 0 
0 0 -1 0 0 0 0 0 0 
0 0 0 0 0 0 0 0 0 
0 0 0 0 0 0 0 0 0 
0 0 0 0 0 0 0 -1 -1 
0 0 0 0 0 0 0 -1 -1 
0 -1 -1 0 -1 -1 0 1 1 
0 1 1 -1 1 0 -1 0 0 
0 1 0 -1 0 0 0 0 0 
0 1 0 0 0 0 -1 0 0 
1 0 0 0 1 0 0 0 0 
0 0 0 0 0 0 0 1 1 
-1 1 0 0 1 1 -1 1 0 
-1 0 0 0 1 1 0 1 0 
0 0 1 -1 0 0 0 0 0 
0 0 0 0 0 0 0 0 1 
0 0 1 0 0 0 0 0 1 
0 1 1 -1 0 0 -1 0 0 
0 0 0 0 1 0 -1 0 0 
0 0 0 0 0 0 0 1 0 
0 0 1 -1 0 0 0 0 0 
0 0 0 0 0 0 0 0 0 
0 0 0 0 0 0 0 0 0 
0 1 0 0 1 0 -1 0 0 
0 0 0 0 0 0 0 1 0 
0 0 0 0 0 0 0 1 0 
0 0 0 0 0 0 0 0 0 
0 0 0 0 0 0 0 0 1 
0 0 0 0 1 0 0 1 0 
-1 0 0 0 0 0 0 0 0 
0 0 0 0 0 0 0 0 0 
0 0 0 0 0 0 0 0 0 
0 0 0 0 0 0 0 0 0 
0 0 0 0 1 0 0 0 0 
0 0 0 0 0 0 0 0 0 
0 1 0 0 0 0 0 0 0 
0 0 0 0 0 0 0 0 0 
0 0 0 0 0 0 0 0 0 
0 0 0 0 0 0 0 0 0 
0 0 0 0 0 0 0 0 0 
0 0 0 0 0 0 0 0 0 
0 0 0 0 0 0 0 0 0 
-1 0 0 0 0 0 0 0 0 
0 0 0 0 0 0 0 0 0 
0 0 0 0 0 0 0 0 0 
0 0 0 0 0 0 0 1 0 
0 0 0 -1 1 0 0 0 0 
-1 1 0 0 0 0 0 0 0 
0 0 0 0 0 0 0 0 0 
0 0 0 0 0 0 0 0 0 
0 0 0 0 0 0 0 0 0 
0 0 0 0 0 0 -1 0 0 
-1 1 0 0 0 0 0 0 0 
-1 0 0 0 0 0 -1 0 0 
0 0 0 0 0 0 0 0 0 
0 0 0 0 0 0 0 0 0 
0 0 0 0 0 0 0 1 0 
0 0 0 0 0 0 0 0 0 
0 0 0 0 0 0 0 0 0 
-1 1 0 0 0 0 0 0 0 
-1 0 0 0 0 -1 0 0 0 
0 0 0 0 0 0 0 0 -1 
0 0 0 0 0 0 -1 1 0 
-1 1 0 0 1 0 -1 1 0 
-1 1 0 -1 1 0 -1 0 0 
0 0 0 0 0 0 0 0 0 
0 0 -1 0 0 0 0 0 0 
0 0 0 0 1 0 0 1 0 
-1 1 0 -1 1 0 -1 1 0 
0 1 0 -1 1 0 -1 1 0 
-1 1 0 -1 0 0 -1 1 0 
0 0 -1 0 0 -1 -1 0 0 
-1 0 0 0 0 -1 0 0 -1 
0 0 0 0 1 -1 -1 1 0 
-1 1 0 0 1 0 -1 1 0 
-1 1 0 -1 1 0 -1 1 0 
0 1 0 -1 1 0 0 0 -1 
-1 1 0 -1 1 0 0 1 0 
-1 1 0 -1 0 0 0 0 -1 
-1 0 0 0 0 -1 -1 1 0 
-1 1 0 -1 1 0 0 1 -1 
-1 1 0 0 0 -1 0 0 -1 
-1 0 0 -1 1 0 0 0 -1 
0 0 -1 -1 0 0 -1 1 0 
-1 1 0 0 1 0 0 1 0 
-1 1 0 0 0 -1 -1 1 0 
-1 0 -1 -1 0 0 0 0 -1 
0 1 0 -1 1 0 -1 0 0 
0 1 0 -1 0 0 0 0 -1 
0 0 -1 0 0 -1 -1 0 0 
-1 0 0 0 0 1 0 0 0 
0 0 0 0 0 0 0 0 1 
-1 0 1 0 0 1 0 0 1 
0 0 1 0 0 1 0 0 1 
-1 0 1 0 0 1 0 0 1 
-1 -1 0 0 0 1 0 0 0 
0 0 1 0 0 0 0 0 0 
0 0 0 0 0 0 0 0 0 
-1 0 1 0 0 1 0 0 1 
0 0 1 0 0 1 0 0 1 
0 0 1 0 0 1 -1 0 0 
-1 0 1 0 0 0 0 0 1 
0 0 1 0 0 0 0 0 1 
0 0 0 0 0 0 0 0 0 
0 0 0 0 0 0 0 0 0 
0 0 1 0 0 1 0 0 0 
0 -1 0 0 0 1 -1 0 0 
0 0 0 0 0 0 0 0 1 
0 0 0 0 0 1 0 0 1 
0 0 1 0 0 0 0 0 0 
0 0 1 0 0 1 0 0 0 
0 0 1 0 -1 0 0 0 0 
0 -1 0 0 0 1 0 0 0 
0 0 0 0 0 0 0 0 0 
0 0 0 0 0 0 0 0 1 
0 0 1 0 0 0 0 0 1 
0 0 0 0 0 0 0 -1 0 
0 0 0 0 0 0 0 0 0 
0 -1 0 -1 -1 0 -1 -1 0 
0 0 0 0 0 0 0 0 0 
0 0 0 0 0 1 0 0 0 
0 0 0 0 0 0 0 0 0 
0 0 0 0 0 1 0 0 0 
0 0 0 0 0 0 0 0 0 
0 0 0 0 -1 0 0 0 0 
0 0 0 0 0 0 0 0 0 
0 0 0 0 0 0 0 0 0 
0 0 0 0 0 0 0 0 0 
0 0 0 0 0 0 0 0 0 
-1 0 0 0 -1 0 0 -1 0 
0 -1 0 0 0 0 0 0 0 
-1 0 0 0 0 0 0 0 0 
0 0 0 0 0 0 0 0 0 
0 0 0 0 0 0 0 0 0 
0 -1 0 0 0 0 0 0 0 
0 0 0 0 0 0 0 0 0 
0 0 0 -1 0 0 0 -1 0 
0 0 0 0 0 0 0 0 0 
0 0 0 0 0 0 0 0 0 
0 -1 0 0 0 0 0 0 0 
0 0 0 0 0 0 0 0 0 
0 0 0 0 0 0 0 0 0 
0 -1 0 0 0 0 0 -1 0 
0 0 0 0 0 0 0 0 0 
0 0 0 0 0 0 0 0 0 
0 0 0 0 -1 0 0 0 0 
0 0 0 0 -1 0 0 0 0 
0 0 0 0 0 0 0 0 0 
0 0 0 0 0 0 0 0 0 
0 0 0 0 0 0 0 0 0 
0 0 0 0 0 0 0 0 0 
0 0 0 0 0 0 -1 0 0 
0 0 0 0 -1 0 0 0 0 
-1 0 0 -1 0 0 -1 0 0 
0 0 0 0 0 0 0 0 -1 
0 0 0 0 0 0 0 0 0 
0 0 0 0 0 0 -1 0 0 
-1 0 0 0 0 0 -1 0 0 
0 0 0 0 0 0 0 0 -1 
0 0 0 0 0 0 0 0 0 
0 0 0 0 0 0 0 0 0 
0 0 0 0 0 0 0 0 0 
-1 0 0 0 0 0 -1 0 0 
0 0 0 -1 0 0 0 0 -1 
0 0 -1 0 0 -1 0 0 -1 
0 0 -1 0 0 -1 -1 0 0 
0 0 0 0 0 0 0 0 0 
0 0 0 0 0 0 0 0 0 
0 0 0 0 0 0 0 0 0 
0 0 0 -1 0 0 0 0 -1 
0 0 -1 0 0 -1 0 0 -1 
0 0 0 0 0 0 0 0 -1 
0 0 0 0 0 0 0 0 0 
0 0 0 -1 0 0 0 0 0 
0 0 0 
v 3 1000 double
-0.03730937962 0.02536135697 -0.067380736359 -0.028211742169 -0.014890637963 -0.080723882545 -0.029964160593 -0.077725669936 -0.043095507818 
-0.031100220661 -0.078007816841 -0.088070325915 -0.00512856397 0.055764659698 0.0045028690939 -0.044020000762 -0.0062982070183 -0.051839919356 
-0.015811242933 0.0080924546573 -0.049976212777 -0.016562898037 -0.0091689489488 -0.064338674463 0.070983243022 -0.025778085978 -0.10686707261 
0.00041909115302 0.065628074845 0.031626286589 0.04438625308 -0.016032829226 0.0052843838768 0.017995837689 -0.032762010395 -0.033993148782 
0.054032737213 0.045443348988 0.019242785106 0.035606308084 0.033837958969 0.009285340755 0.065191624149 0.011863155994 0.055025015785 
0.062758664615 -0.087886400534 0.030148527411 0.038161669968 -0.095924508049 -0.029401330878 -0.049427093068 0.049505901944 0.048771072828 
-0.02684705822 -0.049485831571 -0.084727074898 -0.044480865289 -0.037871402776 -0.020062556259 0.0063452167763 0.070137035342 -0.047807457479 
-0.0037260608069 -0.035134233354 -0.08742668297 -0.0065016766589 -0.026411222552 -0.060675867502 0.033170544063 -0.0034134042036 -0.086114907338 
0.054315446324 -0.067612249856 -0.088639452339 0.011498174337 0.040303374936 -0.022418425878 0.061905655276 -0.010497458776 -0.05587345422 
0.055096108993 -0.046241822576 -0.10073860909 0.057584134895 -0.065930410163 -0.059525081566 0.048280863984 -0.084308640626 -0.044509254497 
0.056858259755 -0.079716917012 -0.074180363038 0.050784065959 0.0099139741371 0.042289368479 0.058077813507 -0.10612411633 -0.00261977515 
0.053366599586 0.037155813766 0.030273628843 0.059374332059 -0.10709536193 -0.0021758404437 -0.018599392872 0.032577932651 -0.05234379484 
-0.02011490728 -0.067361999474 -0.10017388782 0.028482414433 -0.038485715545 -0.094906087801 -0.0021235361928 -0.090636889662 -0.093742627453 
-0.0029899216635 -0.11939922735 -0.10004473269 0.0049372752955 -0.018043727125 -0.023967824192 0.029819277887 -0.10067551018 -0.082937510476 
0.035039389281 0.057401270088 0.031712096233 0.088344142808 -0.019928936202 0.047406390751 0.10962585788 -0.092437880963 -0.048874539793 
0.08349017705 0.025672644181 0.070050033627 0.064167280778 -0.10059756662 0.0072620908338 -0.05378321833 0.028555314156 0.0014034729768 
-0.027281147976 0.012719514428 -0.042576608729 -0.018398317016 -0.071461102337 -0.0071689748065 -0.010230840321 -0.014868440552 -0.090441671892 
-0.0013188684753 -0.016231711207 -0.067802268022 0.024922025959 0.040057080292 0.014762542239 0.042323044752 -0.007364442702 -0.071597670837 
0.10406907567 -0.1253101403 -0.050894625963 0.054394589091 0.021497092275 0.010740750007 0.055447170446 -0.080430140671 -0.064572977432 
0.070675100588 0.025688968242 0.0084968420535 0.054890619687 0.018702257312 0.0099247501563 0.066057997862 0.059957416058 0.038318152558 
0.065059251714 0.026666005945 0.034373341326 0.05245079889 -0.070849072956 -0.0044644718751 0.053162146749 -0.074534285466 -0.012556868677 
0.01665951312 0.024974075941 -0.017150769563 -0.014619538387 0.0022717784671 -0.049508872523 0.017891357363 -0.0161076272 -0.084814637751 
0.021118148285 -0.030781932941 -0.089200245425 0.013315591346 0.0032011149013 -0.050409641231 0.023021012787 -0.021748653148 -0.065723084385 
0.029477645718 -0.10034772988 -0.087787362621 0.038814120428 0.0081468109528 -0.0031939038782 0.031633239674 -0.018753625407 -0.016331152063 
0.060402193393 -0.080860914014 -0.072633966662 0.025328091551 -0.043720852429 -0.097671087124 0.026065645351 -0.056083868084 -0.091801741032 
0.06176281178 0.028022837256 0.034033931905 0.050220809672 0.00074919540991 0.023993469411 0.066278979878 0.02068622153 -0.0039789175433 
0.028624845034 -0.062512915414 -0.059930303079 0.046383104125 0.038131252851 0.053413833664 0.050037535082 -0.07130305308 -0.016768580931 
-0.011032379513 0.0084433819585 -0.0016371084783 -0.0047321756371 0.0072617028656 -0.081776546024 0.04776045465 -0.052452495965 -0.12093383579 
-0.023535214798 -0.078586199073 -0.098121298348 0.047663393959 -0.0045686429589 -0.04168933386 0.062619793901 -0.033905895147 -0.041149289165 
-0.003574842184 0.0352198418 0.0099118231381 0.033875057613 -0.01785997854 -0.0036314053574 0.020727069745 -0.029881246686 -0.075512342706 
0.059501252676 0.011988222366 0.0013816516228 0.069340904504 -0.0049801240063 0.014677430258 0.025292049142 -0.056306954953 -0.074911134132 
0.063249456139 -0.051612211816 -0.03106333338 0.059345328414 -0.063456007446 -0.027256032114 0.020836515197 -0.0010932304659 -0.02054981346 
-0.015137870612 -0.085192981584 -0.1020037727 0.038916786328 0.0033537576354 -0.074261411374 0.0027347534921 -0.067339817643 -0.094641952074 
-0.042298065738 0.037322866228 -0.037134079551 -0.0039614215997 -0.064117848642 -0.083140448266 -0.0024553893913 -0.064232006917 -0.079843320906 
0.054126647574 -0.0070273447484 -0.027543018252 0.02036148526 -0.06667164325 -0.10034122465 0.028421138939 0.024097272483 0.010754400919 
0.034403557151 -0.017336367977 -0.090966038098 0.020559116006 -0.063248447064 -0.075224121308 0.068277820604 -0.010300591129 0.013407790714 
0.02435718154 -0.059811577963 -0.044898617335 0.012655312381 -0.045375820886 -0.061063507074 0.039761447739 0.012937527903 0.00075288204596 
0.028712476919 -0.015726155204 -0.032650925719 0.076535874647 -0.026220143422 -0.0084666545166 0.044272776369 0.037439140582 0.030118123769 
0.047113629101 -0.037391717143 0.029738495668 -0.018069179968 0.051899418631 -0.0010439584011 0.0031288410077 0.0076773067064 -0.048440603165 
-0.032269262268 0.02504514293 -0.088298434815 0.0090967453203 -0.067881108157 -0.11411545682 -0.037312260472 0.010345189175 -0.045277833343 
0.034153896585 0.014151071835 -0.011814282561 0.030491302451 -0.034155442755 -0.047161565717 0.010430044953 -0.074495841092 -0.10382873626 
0.040245799741 -0.081168825026 -0.086643051248 0.040536825683 -0.013882644283 0.0033971429233 0.072208258756 0.0083658516047 0.0037454501299 
0.028830191311 -0.018579278036 0.02657059235 0.035228797175 -0.089203214138 -0.016524783072 0.065316221151 0.0078839362169 0.052373460894 
0.048541887322 0.0061232072583 0.021136171993 0.025306207057 -0.080170265151 0.0052729729221 -0.034788298396 -0.01275595712 -0.015232268115 
-0.04641901583 -0.041225677032 -0.048892066196 -0.052570061584 -0.031133415439 -0.074623188066 -0.046249091419 -0.035821704576 -0.056598064823 
-0.041138048077 -0.023507998288 -0.098399893121 -0.032947627555 -0.053228492183 -0.092623602555 -0.033287535183 0.043971805385 0.014680323228 
-0.043882968887 0.01886384877 -0.04080130004 0.041958936203 0.0025675581185 -0.017135692562 -0.020939671412 -0.050824807856 -0.040861175852 
0.05896842251 0.026487946936 0.016918608705 0.0030548711038 -0.090486874395 -0.058300370779 0.036450142885 0.022062545245 0.014933803285 
0.097958529495 0.018577034341 -0.023296188055 -0.021369815003 -0.051978815787 -0.0076131095393 -0.064610272415 0.022644200496 -0.0070908197293 
-0.088447237623 0.020640826207 -0.05476985514 -0.046361826724 -0.037272604607 -0.11736315895 -0.035763025589 -0.018914358956 -0.10538291156 