# vtk DataFile Version 4.2
Generated by LIGGGHTS
ASCII
DATASET POLYDATA
POINTS 1000 float
1.43644 0.628335 0.440361 4.48925 -0.0123251 0.202459 3.13088 1.05502 0.482755 
4.59982 0.994166 0.100569 1.34486 1.57793 0.140595 0.0103284 1.92264 0.453356 
4.58385 1.89702 0.56967 4.1926 2.64896 -0.0442337 0.844444 3.34898 0.565043 
2.13277 3.15979 0.562442 3.52628 3.41012 0.0336421 4.87943 3.09196 0.544214 
0.0898437 4.00659 0.546681 1.16438 4.36786 0.320462 3.06499 4.27786 0.25337 
4.31177 4.2958 0.147197 2.06459 4.79023 0.149135 0.0471147 0.594442 1.08895 
1.02234 0.256345 1.27213 2.30848 0.330039 0.9142 3.97995 0.619108 0.791194 
0.895839 1.33753 1.05548 1.98316 1.43898 0.968217 3.68859 1.66171 1.05819 
0.890509 2.33134 0.704223 2.81011 2.12069 0.865222 3.23956 3.01258 1.04715 
4.16618 2.63943 1.09837 2.21147 4.24987 0.983924 3.26502 4.0294 1.27669 
0.671337 4.5008 1.19294 3.91099 4.73399 0.982918 3.22301 0.21839 1.33143 
1.82402 0.96473 1.85305 2.84192 1.15951 1.4345 3.84857 0.917881 1.73663 
4.81959 0.815765 1.51735 4.49193 1.82546 1.64015 1.08097 2.08637 1.71399 
0.371697 3.57979 1.44269 1.82315 3.53313 1.5775 4.5208 3.32893 1.73154 
4.13304 4.25003 1.83351 4.81275 4.92644 1.41455 0.846818 0.627412 2.18403 
2.71105 0.587443 2.26415 3.54436 0.0453261 2.53402 4.5141 0.0810634 2.26796 
4.65103 1.12133 2.47046 0.174312 2.02584 2.46753 2.09566 2.02889 2.01589 
3.31998 1.86501 2.01672 4.20305 2.01853 2.58208 1.97296 3.09118 2.51469 
3.7043 2.83451 2.28646 4.76509 2.8702 2.59315 0.240932 3.51968 2.65595 
1.03954 3.20647 2.10757 0.254112 4.34331 2.08827 1.21012 4.18531 2.33905 
2.43463 4.08162 2.14854 3.37849 3.78008 2.30866 2.88875 4.97113 2.21136 
0.41909 0.168348 2.96492 1.41408 0.558761 3.03549 4.14864 0.515215 3.17894 
2.39239 0.659066 3.21877 3.55353 1.13911 2.66639 1.16856 1.45607 2.66641 
2.59103 1.48974 2.69834 1.13563 2.45417 2.76006 2.02712 2.3072 3.18981 
2.96517 2.44461 2.84665 3.40902 3.26105 3.23312 4.27822 3.72904 2.76006 
0.914319 4.03779 3.28288 1.87017 4.2988 3.12144 2.90979 4.36051 3.25363 
0.191202 4.91608 2.90572 3.72156 4.65045 2.66283 4.49113 4.68588 3.30132 
0.490897 0.589029 3.88189 3.28134 0.923147 3.60411 1.67789 1.36408 3.61375 
2.62567 1.68081 3.75048 4.26481 1.3329 3.88072 0.0107457 2.04518 3.74173 
1.08854 2.16329 3.74786 3.59305 1.89804 3.40117 0.458454 2.869 3.38659 
2.60066 2.80883 3.83828 1.84544 3.36102 3.46915 4.16577 3.26659 3.88747 
3.8519 4.21602 3.91016 1.49543 0.581458 4.21005 3.75926 0.561664 4.40633 
4.68813 0.376273 4.01083 2.53907 0.78173 4.25971 0.432576 1.44954 4.42601 
1.41698 1.50068 4.59995 3.42353 1.52133 4.39284 1.82923 2.38637 4.38318 
4.41193 2.32175 4.10734 0.277337 2.95509 4.57414 3.44655 2.51513 4.28363 
1.03202 3.35092 4.0509 3.36636 3.5085 4.48933 1.57561 4.18981 4.07855 
2.52839 3.84025 4.04276 4.98622 4.22338 4.05336 0.626086 4.53501 4.10806 
2.23891 4.929 4.19526 3.2439 4.97104 4.15668 4.22426 4.95179 4.47883 
0.0830956 0.624552 4.87021 1.05006 0.594056 5.13198 2.05805 0.114084 4.89922 
2.09059 1.09477 5.21945 3.09049 1.08383 5.22817 4.58484 1.01475 4.77354 
0.679392 2.18148 5.06391 2.65122 2.00673 4.80855 4.29526 1.93319 5.04347 
4.49233 2.9139 5.03701 1.79666 3.33566 4.69669 0.824254 3.90165 4.86379 
1.95471 4.26275 5.03662 4.28338 3.85394 4.76622 0.244871 4.7541 5.04199 
1.21237 4.90239 4.83707 3.44279 4.39672 4.98164 1.66635 0.492377 5.92068 
2.58767 0.124461 5.75274 3.74349 0.3283 5.38055 4.75699 0.585178 5.66065 
0.0474943 1.41853 5.47768 1.14763 1.46527 5.66117 3.92317 1.23699 5.76033 
1.61415 2.32097 5.39173 2.54592 2.54473 5.6791 3.3808 2.97583 5.3357 
1.92302 3.41187 5.71602 1.14515 4.17717 5.77112 2.70562 4.03151 5.65545 
3.45075 4.60418 5.99733 4.25462 4.97815 5.50777 3.30208 0.720516 6.59876 
1.19461 1.85526 6.62938 2.0055 1.47019 6.18872 3.04106 1.61147 6.22399 
4.94533 1.45862 6.21124 0.415105 2.13613 6.06952 4.0542 2.17204 6.08987 
1.42595 2.77897 6.30968 0.606934 3.31764 6.032 1.51157 3.73844 6.59212 
2.95899 3.4339 6.42174 4.0216 3.17188 6.07806 4.3272 4.1229 6.02467 
0.516416 4.89693 6.17879 1.7144 4.90672 6.1518 1.48954 0.217029 7.01602 
4.55777 0.563715 6.64062 0.625988 1.03247 6.72603 2.3478 0.752741 6.89593 
4.01985 1.40051 6.74867 3.259 1.86337 7.20424 4.60294 2.10893 7.14639 
0.321211 2.9539 7.04727 1.85094 2.57863 7.19833 2.69861 2.49347 6.66639 
3.82575 2.98964 7.04173 4.83678 3.05003 6.90213 0.528736 4.06462 6.83122 
2.34391 4.30517 6.6614 3.34888 4.28318 6.93992 4.26829 3.88862 6.99565 
1.09837 4.87199 6.99951 4.86716 4.69023 7.01786 0.380835 0.29716 7.36011 
1.65345 0.36439 7.99194 3.96871 0.326136 7.41342 1.39315 1.17437 7.35197 
4.54802 1.14758 7.62029 2.27657 1.67458 7.33982 0.848656 2.22865 7.49013 
2.71897 2.54848 7.72617 1.13973 3.36721 7.44644 3.02642 3.46462 7.42006 
0.936109 4.28356 7.79372 2.52362 4.30447 7.64514 4.20785 4.60911 7.7744 
0.72626 0.112045 8.28013 2.65138 0.245414 8.0415 4.85108 0.311217 8.29708 
0.628361 1.08237 8.01015 2.8666 1.22186 8.0099 4.07181 0.869755 8.60169 
1.78198 1.32409 8.2612 3.77773 1.63753 8.02892 4.82705 1.52227 8.53711 
1.20555 2.32313 8.41954 2.1918 2.19737 8.52736 3.19368 2.25403 8.55746 
0.0374462 2.60204 8.55982 1.83306 3.05921 8.09802 3.9605 2.61899 7.96069 
4.95736 2.65508 8.04085 0.356549 3.70966 8.40216 3.19569 3.23854 8.38002 
4.34716 3.70333 8.38444 2.18321 3.91177 8.5 3.39534 4.20992 8.20279 
0.544335 4.81399 8.54914 1.67929 4.79783 8.22298 1.34678 0.543461 8.93713 
3.04533 0.470485 8.95064 0.275043 1.40621 8.92218 2.81206 1.44177 8.99875 
3.91879 1.75979 9.0375 4.8182 2.28627 9.18523 2.17585 3.06606 9.03745 
4.07324 2.8996 8.92212 0.672673 3.23822 9.25036 1.1845 4.0942 8.8177 
3.58355 3.85221 9.12093 2.8047 4.50297 9.02814 3.85743 4.82478 9.27753 
4.77808 4.625 8.93427 2.47106 0.526054 9.94713 0.712249 0.784465 9.70985 
1.93985 1.19147 9.42252 3.68479 0.67837 9.73973 3.41913 1.81891 9.90522 
0.128149 2.21605 9.49692 1.39136 2.24806 9.39958 2.4209 1.87932 9.96775 
2.84363 2.75031 9.71522 1.65539 3.62636 9.79317 4.60426 3.70341 9.37241 
0.426174 4.21824 9.61381 0.299357 5.28518 0.60466 1.15988 5.38403 0.0925043 
3.99412 5.28931 0.154474 2.38167 6.19197 0.58104 3.39807 5.9801 0.566035 
4.9067 5.97672 0.347438 0.30685 6.40545 0.197774 1.39239 6.31375 0.482057 
0.880718 7.15701 0.650055 1.95731 7.49447 0.0507569 3.57106 6.95714 0.375191 
4.51117 7.15996 0.101122 0.630939 8.05482 0.155027 2.85496 7.65164 0.474891 
3.9939 7.90711 0.549017 0.404217 9.00125 0.386102 2.24212 8.76196 0.431065 
4.22156 8.88041 0.282028 0.710818 9.95082 0.319836 3.51239 9.61604 0.403424 
1.30092 5.26906 1.07712 2.95594 5.08547 0.833438 0.671484 6.05556 1.12578 
4.65783 5.90928 1.31371 2.90192 6.80221 1.17857 1.9005 7.04965 0.945328 
4.63985 6.87396 1.05069 0.197944 7.84355 1.04696 2.20238 7.98252 1.22136 
1.36879 8.3861 0.746956 3.32526 8.65427 0.725175 4.49719 8.76495 1.2436 
0.205726 9.61681 1.22872 1.51837 9.39711 0.816862 2.70876 9.41631 1.0266 
4.53028 9.87381 1.27139 0.678075 5.23466 1.90813 2.22614 5.52556 1.35679 
3.77979 5.2482 1.83053 2.62227 6.22804 1.94808 1.54423 6.33388 1.54809 
3.75382 6.31956 1.44198 0.250977 6.90913 1.43418 1.12077 7.3858 1.59356 
3.54114 7.54677 1.37103 4.51008 7.78488 1.44238 0.456619 8.69026 1.5155 
1.37069 8.34356 1.7462 3.08786 8.38101 1.68528 3.62964 9.24982 1.47741 
1.91401 9.9596 1.79602 1.74595 5.00004 2.11707 4.59359 5.07063 2.38398 
0.637348 6.21444 2.12047 1.78835 5.94811 2.43789 4.24562 6.00735 2.30323 
3.42025 6.58983 2.43014 0.476969 7.2493 2.35039 1.40692 6.87818 2.40886 
2.45516 7.27575 2.02588 4.22579 7.01639 2.01876 3.34013 7.5937 2.36629 
4.98332 8.05228 2.29518 0.701185 8.21554 2.47806 4.01964 8.29847 2.14791 
2.23063 8.78096 2.00962 3.24495 8.86656 2.60453 4.19764 9.18408 2.58041 
0.493464 9.44819 2.17214 2.83407 9.57921 2.00565 1.0862 5.35663 2.83455 
2.25746 5.20741 2.95183 3.31971 5.52977 2.92418 0.873479 6.30799 3.08961 
2.51289 6.35882 2.9917 4.46809 6.33481 3.22836 0.846618 7.28509 3.31312 
1.81621 7.47548 3.10079 3.19018 7.02831 3.299 4.09088 7.31964 2.9674 
1.19814 8.22246 3.34583 2.59451 8.12361 2.776 4.40687 8.26087 3.08737 
0.0131881 8.85493 2.82133 1.88826 8.82707 2.94806 1.311 9.61331 2.72507 
2.2983 9.74017 2.83478 1.34687 5.15902 3.77958 4.68715 5.53617 3.80194 
0.211986 5.71658 3.57728 2.67501 5.69335 3.7203 3.62092 6.02096 3.75716 
0.310644 6.654 3.91152 1.40733 6.56782 3.8947 2.372 6.83158 3.89717 
4.03333 6.92338 3.91034 2.42897 7.9022 3.83978 3.42253 7.9976 3.38615 
4.6081 7.74366 3.93199 0.351191 9.15602 3.71303 1.72588 9.07334 3.90358 
2.68538 8.91964 3.54474 3.77745 8.92617 3.4957 1.10721 9.82714 3.68055 
2.40225 9.83851 3.90938 3.31653 9.81365 3.4801 4.66271 9.5209 3.40115 
0.134759 5.64282 4.59188 1.11133 5.84642 4.52178 2.09222 6.03943 4.47564 
3.02105 6.40338 4.54862 4.8876 6.30836 4.51479 0.883414 6.92383 4.68599 
3.15664 7.34777 4.24607 0.452854 7.65731 4.15513 1.45279 7.59507 4.15547 
3.79444 8.10559 4.3876 0.94091 8.55524 4.25312 2.36315 8.63922 4.54065 
3.26671 9.02421 4.3516 4.80392 8.73763 4.00804 4.06808 9.62129 4.25908 
2.52105 5.08005 5.14304 3.41459 5.48979 5.32723 4.97129 5.41606 4.96013 
1.69138 5.68788 5.33324 3.95111 6.18124 4.84202 1.78257 6.96822 5.12281 
3.31635 7.13992 5.21118 4.27381 7.12857 4.86188 0.287643 8.09582 5.34318 
1.35507 8.07593 5.02735 2.39471 7.75288 5.00358 4.65783 7.94101 5.3006 
0.603546 9.0476 5.27121 4.32024 8.79975 4.88133 1.19965 9.59123 4.65949 
3.03261 9.88725 4.82121 0.70471 5.54863 5.43989 3.85946 6.21869 5.8484 
0.881265 6.54842 5.61287 2.47952 6.30261 5.39084 4.75035 6.49512 5.48758 
0.985449 7.53375 5.78733 2.78592 7.91194 5.91273 3.67152 8.06097 5.42221 
1.91726 8.52508 5.72184 2.8514 8.77104 5.40383 0.171837 9.91832 5.57484 
1.51239 9.47854 5.60996 3.60757 9.37591 5.65438 4.51048 9.67286 5.33217 
2.50105 5.5158 6.04346 4.13347 5.16793 6.53247 0.205989 6.24369 6.28454 
3.32073 5.76044 6.56143 4.83866 5.64605 6.00861 1.65563 6.34743 6.21318 
0.880134 6.92465 6.57517 1.93454 7.40521 6.10338 2.85214 6.92714 6.07774 
[...]
POINT_DATA 1000
FIELD FieldData 7
id 1 1000 int
24 809 32 45 909 7 939 300 531 
20 892 990 116 605 601 129 117 26 
561 62 69 541 626 288 501 130 142 
759 109 521 111 147 48 37 36 43 
568 927 504 610 600 175 624 631 551 
588 59 574 591 17 418 404 776 255 
762 674 251 526 368 841 272 872 899 
644 562 581 663 61 30 70 508 283 
263 766 419 767 358 752 356 659 681 
545 87 566 589 235 302 42 50 765 
84 269 408 749 197 598 377 74 570 
583 105 294 592 755 79 744 783 769 
286 207 866 262 177 193 670 78 82 
608 114 846 68 584 515 698 276 764 
814 215 813 281 669 833 357 851 838 
707 104 268 578 110 571 296 285 322 
284 164 782 512 554 546 848 202 12 
97 278 580 577 510 214 307 816 123 
868 576 279 277 44 274 72 128 594 
532 558 797 702 630 28 323 703 208 
13 47 557 867 543 506 27 602 529 
567 742 511 722 552 880 528 556 747 
540 559 280 505 542 162 236 11 393 
54 120 148 139 596 503 590 125 544 
170 735 539 53 656 21 424 604 121 
612 634 229 729 25 31 67 535 450 
514 547 874 922 603 134 599 88 86 
234 77 635 855 100 81 593 714 696 
491 694 718 839 243 548 362 5 58 
73 242 115 370 625 716 963 137 22 
133 150 654 640 534 80 52 849 597 
646 138 240 144 845 884 140 750 3 
29 560 538 49 365 651 378 717 8 
141 108 160 174 633 638 773 173 502 
661 187 46 167 51 380 979 154 375 
639 629 648 636 149 402 682 662 35 
905 684 169 188 261 623 369 415 647 
254 384 171 157 180 172 275 163 182 
192 301 673 582 75 349 781 788 791 
190 39 917 155 426 920 565 199 676 
342 40 354 292 664 410 902 652 945 
660 446 186 198 637 795 178 291 195 
840 406 153 919 297 161 470 474 830 
181 347 678 685 858 836 789 680 453 
211 159 321 933 948 675 935 456 335 
701 329 666 126 856 85 10 330 573 
737 314 348 807 317 916 709 800 857 
334 689 686 463 200 822 372 827 332 
736 66 219 940 938 831 196 837 91 
971 458 954 203 870 363 988 223 256 
628 976 103 206 691 972 224 996 315 
688 961 969 863 708 15 107 337 999 
563 471 210 713 994 861 875 246 507 
555 745 993 579 152 585 586 237 225 
238 820 99 303 727 997 231 18 477 
479 63 33 533 486 328 520 132 523 
391 92 879 9 924 252 509 607 399 
616 683 127 146 981 136 490 522 60 
873 1 439 860 655 420 364 653 847 
854 484 995 14 101 405 2 41 575 
881 843 519 194 469 289 650 620 614 
615 316 96 889 385 71 518 102 524 
896 692 311 449 891 815 768 423 862 
83 413 386 23 719 929 777 264 758 
970 345 657 431 290 811 798 812 748 
89 928 952 295 904 757 763 801 774 
468 310 165 304 253 645 877 796 780 
832 257 790 94 258 228 834 775 536 
712 802 56 478 476 425 452 324 461 
333 806 679 779 677 818 106 819 808 
695 743 306 351 184 923 443 320 427 
65 113 352 55 553 340 325 738 489 
985 829 318 428 312 462 665 338 305 
699 230 326 355 308 361 1000 359 564 
220 4 247 371 6 967 343 667 179 
499 209 488 706 241 191 549 859 826 
810 38 595 346 473 957 700 690 218 
710 704 715 587 217 513 900 989 658 
64 57 527 287 373 212 496 741 221 
222 201 733 482 725 244 205 271 216 
95 642 118 168 270 705 724 895 227 
245 726 641 119 226 672 122 720 991 
379 487 732 746 721 530 112 572 982 
248 606 156 980 632 643 124 668 299 
869 516 760 619 93 962 956 466 968 
350 975 828 341 233 977 723 852 392 
918 617 613 76 740 794 480 494 493 
498 475 844 853 730 611 761 366 367 
267 492 166 517 890 396 401 973 495 
912 817 986 621 383 786 232 395 842 
983 145 260 609 249 485 265 865 885 
569 376 387 282 886 728 293 360 731 
437 987 771 250 400 770 394 273 756 
16 34 151 259 984 753 143 381 754 
897 432 500 382 921 871 901 784 903 
914 778 894 403 907 398 882 793 390 
389 772 876 887 898 397 185 298 785 
878 353 417 436 649 942 430 422 411 
883 313 751 906 414 893 888 438 433 
457 189 319 992 409 435 925 388 412 
908 926 429 937 934 792 331 951 442 
440 459 309 915 787 407 434 943 910 
416 950 821 913 448 739 835 447 467 
978 421 965 799 946 944 460 931 803 
941 183 441 949 176 671 451 947 454 
497 697 455 959 204 693 483 825 711 
537 550 336 936 974 960 964 930 444 
824 958 804 98 998 687 481 622 911 
213 618 627 158 266 90 850 805 932 
472 953 864 339 464 966 734 19 135 
131 465 955 525 445 327 823 239 344 
374 
type 1 1000 int
1 2 1 1 2 1 2 1 2 
1 2 2 1 2 2 1 1 1 
2 1 1 2 2 1 2 1 1 
2 1 2 1 1 1 1 1 1 
2 2 2 2 2 1 2 2 2 
2 1 2 2 1 1 1 2 1 
2 2 1 2 1 2 1 2 2 
2 2 2 2 1 1 1 2 1 
1 2 1 2 1 2 1 2 2 
2 1 2 2 1 1 1 1 2 
1 1 1 2 1 2 1 1 2 
2 1 1 2 2 1 2 2 2 
1 1 2 1 1 1 2 1 1 
2 1 2 1 2 2 2 1 2 
2 1 2 1 2 2 1 2 2 
2 1 1 2 1 2 1 1 1 
1 1 2 2 2 2 2 1 1 
1 1 2 2 2 1 1 2 1 
2 2 1 1 1 1 1 1 2 
2 2 2 2 2 1 1 2 1 
1 1 2 2 2 2 1 2 2 
2 2 2 2 2 2 2 2 2 
2 2 1 2 2 1 1 1 1 
1 1 1 1 2 2 2 1 2 
1 2 2 1 2 1 1 2 1 
2 2 1 2 1 1 1 2 1 
2 2 2 2 2 1 2 1 1 
1 1 2 2 1 1 2 2 2 
1 2 2 2 1 2 1 1 1 
1 1 1 1 2 2 2 1 1 
1 1 2 2 2 1 1 2 2 
2 1 1 1 2 2 1 2 1 
1 2 2 1 1 2 1 2 1 
1 1 1 1 2 2 2 1 2 
2 1 1 1 1 1 2 1 1 
2 2 2 2 1 1 2 2 1 
2 2 1 1 1 2 1 1 2 
1 1 1 1 1 1 1 1 1 
1 1 2 2 1 1 2 2 2 
1 1 2 1 1 2 2 1 2 
1 1 1 1 2 1 2 2 2 
2 1 1 1 2 2 1 1 1 
2 1 1 2 1 1 1 1 2 
1 1 2 2 2 2 2 2 1 
1 1 1 2 2 2 2 1 1 
2 1 2 1 2 1 1 1 2 
2 1 1 2 1 2 2 2 2 
1 2 2 1 1 2 1 2 1 
2 1 1 2 2 2 1 2 1 
2 1 2 1 2 1 2 1 1 
2 2 1 1 2 2 1 2 1 
2 2 2 2 2 1 1 1 2 
2 1 1 2 2 2 2 1 2 
2 2 2 2 1 2 2 1 1 
1 2 1 1 2 2 1 1 1 
1 1 1 2 1 1 2 1 2 
1 1 2 1 2 1 2 2 1 
2 2 1 1 2 1 1 2 1 
2 1 1 2 2 1 1 2 2 
2 1 2 1 1 1 1 1 2 
2 2 2 1 1 1 2 2 2 
2 1 1 2 1 1 2 1 2 
2 2 1 1 2 2 2 1 2 
1 1 1 1 2 2 2 1 2 
2 1 2 1 1 2 2 2 2 
1 2 2 1 2 2 2 2 2 
1 1 1 1 1 2 2 2 2 
2 1 2 1 1 1 2 2 2 
2 2 1 1 1 1 1 1 1 
1 2 2 2 2 2 1 2 2 
2 2 1 1 1 2 1 1 1 
1 1 1 1 2 1 1 2 1 
2 2 1 1 1 1 2 1 1 
2 1 1 1 1 1 2 1 2 
1 1 1 1 1 2 1 2 1 
1 1 1 2 1 1 2 2 2 
2 1 2 1 1 2 2 2 1 
2 2 2 2 1 2 2 2 2 
1 1 2 1 1 1 1 2 1 
1 1 2 1 2 1 1 1 1 
1 2 1 1 1 2 2 2 1 
1 2 2 1 1 2 1 2 2 
1 1 2 2 2 2 1 2 2 
1 2 1 2 2 2 1 2 1 
2 2 2 2 1 2 2 1 2 
1 2 2 1 1 2 2 2 1 
2 2 2 1 2 2 1 1 1 
1 1 2 2 2 2 2 1 1 
1 1 1 2 2 1 1 2 1 
2 2 2 2 1 2 1 1 2 
2 1 1 2 1 1 1 2 2 
2 1 1 1 2 2 1 1 2 
1 2 2 1 1 2 1 1 2 
1 1 1 1 2 2 1 1 2 
2 1 1 1 2 2 2 2 2 
2 2 2 1 2 1 2 2 1 
1 2 2 2 2 1 1 1 2 
2 1 1 1 2 2 1 1 1 
2 1 2 2 1 2 2 1 1 
1 1 1 2 1 1 2 1 1 
2 2 1 2 2 2 1 2 1 
1 1 1 2 2 1 1 2 2 
1 2 2 2 1 2 2 1 1 
2 1 2 2 2 2 1 2 2 
2 1 1 2 1 2 1 2 1 
1 2 1 2 1 2 1 2 2 
2 2 1 2 2 2 2 2 1 
2 2 2 1 2 2 1 2 2 
1 2 2 1 1 1 2 2 2 
1 2 2 1 1 2 2 1 1 
1 1 2 2 1 1 2 1 1 
1 
i 3 1000 int
0 0 0 0 0 0 0 0 0 
0 0 0 1 0 0 0 0 0 
1 0 0 1 0 0 0 0 0 
0 0 0 1 0 0 1 0 1 
0 0 1 0 0 1 0 0 1 
0 0 0 0 0 1 0 0 0 
0 0 0 0 0 0 0 0 0 
0 0 0 0 0 0 1 0 0 
0 0 0 0 0 0 0 0 0 
1 0 0 0 0 1 0 0 0 
0 0 1 0 0 0 0 0 0 
0 0 0 0 0 0 0 0 0 
0 0 0 1 0 0 0 0 0 
0 0 1 0 0 1 0 0 0 
0 0 0 0 0 0 0 0 0 
0 0 0 0 0 0 0 0 0 
0 0 0 0 0 0 1 0 0 
1 0 0 1 0 0 1 0 0 
1 0 0 0 0 0 1 0 0 
0 0 0 1 0 1 1 0 1 
1 0 0 1 0 0 1 0 0 
0 1 0 0 0 0 0 0 0 
0 1 0 0 0 0 0 0 0 
0 0 0 0 0 0 1 0 0 
1 0 0 1 0 0 1 0 0 
1 0 0 1 0 1 1 0 0 
1 0 1 0 0 0 0 0 0 
0 0 0 0 0 0 0 0 0 
0 0 0 0 0 0 1 0 0 
0 0 0 0 0 0 1 0 0 
0 0 0 1 0 0 1 0 0 
1 0 0 0 1 0 0 0 0 
0 0 0 0 0 0 0 0 0 
0 0 0 0 0 0 1 0 0 
0 0 0 1 0 0 0 0 0 
1 0 0 1 0 0 1 0 0 
1 0 0 0 0 0 1 0 1 
1 0 0 0 0 0 0 0 0 
0 1 0 0 0 0 0 0 0 
0 0 0 0 0 0 0 0 0 
0 0 0 0 0 0 0 0 -1 
0 0 0 1 0 0 1 0 0 
1 0 0 0 0 0 1 0 0 
1 0 0 0 0 0 0 0 0 
0 0 0 0 0 0 0 0 0 
0 1 0 0 0 0 0 0 -1 
0 0 0 0 0 0 0 0 0 
1 0 0 1 0 0 1 0 0 
1 0 0 0 0 0 0 0 -1 
0 0 -1 0 0 -1 0 0 -1 
0 0 0 0 1 0 0 0 -1 
0 0 0 1 0 0 0 0 0 
0 0 0 0 0 -1 0 0 0 
1 0 0 1 0 0 0 0 0 
0 0 0 0 0 0 0 0 -1 
0 0 -1 0 0 -1 0 0 -1 
0 0 0 0 0 0 0 0 0 
0 0 -1 0 0 -1 1 0 0 
0 0 0 0 0 -1 0 0 -1 
1 0 0 0 0 0 0 1 0 
0 0 -1 0 0 -1 0 0 -1 
0 0 0 0 0 -1 0 0 -1 
0 0 -1 0 0 0 0 0 -1 
0 0 0 0 0 0 0 0 -1 
0 1 0 0 0 -1 0 1 -1 
0 0 -1 0 0 -1 0 0 -1 
0 0 -1 0 0 -1 0 0 -1 
0 0 -1 0 0 -1 0 0 -1 
0 1 0 0 0 -1 1 0 -1 
0 0 -1 0 0 0 0 0 -1 
0 0 -1 0 0 0 0 0 -1 
0 0 0 0 0 0 0 0 -1 
0 1 -1 0 1 0 0 0 -1 
0 0 -1 0 0 -1 0 0 -1 
1 0 -1 0 0 0 0 0 0 
0 0 -1 0 0 -1 0 0 0 
0 0 0 0 0 -1 0 0 -1 
0 0 -1 0 0 -1 1 0 -1 
0 0 -1 0 0 -1 1 0 -1 
1 0 -1 0 0 0 0 0 -1 
0 0 0 0 0 1 0 0 1 
0 0 1 0 0 1 0 0 0 
0 -1 1 0 0 1 0 0 1 
0 0 1 0 0 1 0 0 1 
0 0 1 0 0 1 0 0 1 
0 -1 1 0 0 1 0 -1 0 
0 -1 1 0 -1 0 0 -1 0 
0 0 1 0 0 1 0 0 1 
0 -1 1 0 0 0 0 0 1 
0 0 1 0 0 0 0 -1 0 
0 0 0 0 0 0 0 0 0 
0 0 0 0 -1 0 0 -1 0 
0 -1 0 1 0 1 0 0 1 
0 0 0 0 0 0 0 0 1 
0 0 0 1 0 1 1 0 0 
0 0 0 0 -1 0 0 -1 0 
0 -1 0 0 -1 0 0 -1 0 
0 -1 0 1 0 1 0 0 0 
1 0 1 0 0 1 0 -1 0 
0 0 0 0 0 1 0 0 0 
0 0 0 0 0 0 0 0 0 
0 -1 0 0 0 0 0 -1 0 
0 0 0 0 0 0 0 -1 0 
0 0 0 0 -1 0 1 0 1 
1 0 1 0 0 0 1 0 1 
0 0 0 0 0 0 0 0 0 
0 0 0 0 0 0 0 0 0 
0 0 0 0 0 0 0 -1 0 
1 0 0 0 0 0 0 0 0 
0 0 0 1 0 0 0 0 0 
1 0 1 1 0 0 0 0 0 
1 0 0 1 0 0 0 0 0 
0 0 0 0 0 0 0 0 0 
0 -1 0 0 0 0 0 0 0 
0 0 0 0 -1 0 0 0 0 
0 -1 0 0 -1 0 0 -1 0 
1 0 0 1 0 0 1 0 0 
0 0 0 0 -1 0 1 0 0 
0 0 0 1 0 0 1 0 0 
0 -1 0 0 0 0 0 0 0 
0 -1 0 0 -1 0 0 -1 0 
1 0 0 0 0 0 0 0 0 
1 0 0 0 0 0 1 0 0 
0 0 0 0 0 0 0 0 0 
0 0 0 0 0 0 0 -1 0 
0 0 0 0 -1 0 0 0 0 
0 -1 0 1 0 0 0 0 0 
1 0 0 1 0 0 0 0 0 
1 0 0 0 0 0 0 -1 0 
0 0 0 0 -1 0 0 0 0 
0 0 0 0 -1 0 0 -1 0 
1 0 0 0 0 0 1 0 0 
0 0 0 0 0 0 1 0 0 
1 0 0 1 0 0 0 0 0 
0 0 0 0 0 0 0 -1 0 
0 0 0 0 -1 0 0 0 0 
0 -1 0 0 -1 0 0 -1 0 
0 -1 -1 0 -1 0 0 0 0 
0 0 0 1 0 0 1 0 0 
1 0 0 1 0 0 0 0 0 
0 0 0 1 0 0 0 -1 0 
0 -1 0 0 0 0 0 0 0 
0 0 0 0 0 0 0 -1 0 
0 -1 0 0 -1 0 1 0 0 
0 0 0 0 0 0 0 0 0 
0 0 0 0 0 0 1 0 0 
0 0 0 1 0 0 0 0 0 
0 0 0 0 0 0 0 0 0 
0 0 0 0 -1 0 0 -1 0 
0 0 0 0 0 0 0 -1 -1 
0 0 -1 0 0 0 0 0 0 
0 0 0 0 0 0 0 0 0 
0 0 0 0 0 0 1 0 0 
0 0 0 0 0 0 0 0 0 
0 -1 0 0 0 0 0 -1 -1 
0 0 0 1 0 0 0 0 0 
0 0 0 0 0 0 0 0 0 
0 0 0 0 0 0 0 -1 0 
0 0 -1 0 0 0 0 -1 -1 
0 -1 -1 0 -1 -1 0 0 0 
0 0 0 0 0 -1 0 0 0 
0 0 0 0 0 0 0 0 0 
0 0 0 0 -1 0 0 0 0 
1 0 0 0 0 0 0 0 0 
0 0 0 0 -1 -1 0 0 0 
0 0 0 0 -1 -1 0 -1 -1 
0 -1 -1 0 1 1 0 1 1 
-1 0 0 -1 1 0 -1 0 0 
0 1 0 0 0 0 0 1 0 
-1 0 0 1 0 0 0 0 0 
-1 0 0 -1 0 1 0 1 0 
0 0 0 0 0 0 -1 0 1 
-1 1 0 0 1 1 -1 1 0 
0 1 1 -1 0 0 0 0 0 
0 1 0 -1 0 0 0 0 0 
0 0 1 0 0 0 0 0 0 
0 0 1 0 0 0 0 0 1 
0 0 1 0 1 1 0 1 1 
-1 0 0 0 0 0 0 1 0 
-1 0 0 -1 0 0 0 0 0 
0 1 0 0 0 1 -1 0 0 
0 0 0 0 0 0 0 0 0 
0 0 0 0 0 0 0 0 0 
0 0 0 0 0 0 0 0 0 
0 1 0 0 1 0 -1 0 0 
-1 0 0 0 0 0 0 0 0 
0 1 0 0 0 0 0 0 0 
0 0 0 0 1 0 0 0 0 
0 0 0 0 0 0 0 0 1 
0 0 0 0 1 0 0 1 0 
-1 0 0 0 0 0 0 0 0 
0 0 0 0 0 0 0 0 0 
0 0 0 0 0 0 0 0 0 
0 0 0 0 0 0 0 0 0 
0 0 0 0 0 0 0 0 0 
0 0 0 0 1 0 0 0 0 
0 0 0 0 1 0 0 0 0 
0 0 0 0 0 0 0 0 0 
0 0 0 0 0 0 0 0 0 
0 0 0 0 0 0 0 0 0 
0 0 0 0 0 0 0 0 0 
0 0 0 0 0 0 0 0 0 
0 0 0 0 0 0 0 0 0 
0 0 0 0 0 0 -1 0 0 
0 0 0 0 0 0 0 0 0 
0 0 0 0 0 0 0 0 0 
0 0 0 0 0 0 0 0 0 
0 0 0 0 0 0 -1 1 0 
0 0 0 -1 1 0 0 0 0 
0 0 0 0 0 0 0 0 0 
0 0 0 0 0 0 0 0 0 
0 0 0 0 0 0 0 0 0 
0 0 0 0 0 0 0 1 0 
-1 0 0 0 0 0 0 0 0 
-1 0 0 -1 0 0 0 0 0 
0 0 0 0 0 0 0 0 0 
0 0 0 0 0 0 0 0 0 
0 0 0 0 0 0 0 1 0 
-1 1 0 0 0 0 0 0 0 
-1 1 0 -1 1 0 0 0 0 
0 0 0 0 0 0 0 0 0 
0 0 0 0 0 0 -1 0 0 
-1 1 0 0 0 -1 0 0 0 
0 0 0 0 0 -1 0 0 0 
0 0 0 -1 1 0 -1 1 0 
0 1 0 -1 1 0 0 1 0 
-1 1 0 -1 1 0 -1 1 0 
-1 0 0 0 0 0 0 0 0 
0 0 0 0 0 -1 0 0 0 
0 0 0 0 1 0 0 1 0 
-1 1 0 -1 1 0 -1 1 0 
-1 1 0 -1 1 0 -1 1 0 
-1 0 0 -1 1 0 0 0 -1 
0 0 -1 0 1 0 0 0 -1 
-1 0 0 -1 0 0 0 0 -1 
0 0 -1 0 0 0 -1 1 0 
0 1 0 -1 1 0 -1 1 0 
-1 1 0 -1 1 0 -1 1 0 
0 1 0 -1 1 0 -1 1 0 
-1 1 0 0 0 -1 -1 1 0 
-1 0 0 0 0 -1 -1 0 0 
0 0 -1 0 0 -1 -1 1 0 
-1 1 0 0 1 -1 -1 1 0 
-1 1 0 -1 1 0 0 0 -1 
-1 0 0 -1 1 0 0 0 -1 
-1 0 0 -1 1 0 0 1 0 
0 1 0 0 1 0 -1 1 0 
0 0 -1 -1 1 0 -1 0 -1 
-1 0 0 0 0 -1 0 1 0 
-1 1 0 -1 0 0 0 0 -1 
0 1 0 0 0 -1 0 0 -1 
-1 0 0 0 0 0 0 0 0 
0 0 1 0 0 0 0 0 0 
0 0 0 -1 0 1 0 0 1 
0 0 1 0 0 1 0 0 1 
0 0 1 0 0 1 0 0 1 
0 0 1 -1 0 1 0 0 1 
0 0 1 0 0 1 0 0 0 
0 0 0 0 0 0 0 0 0 
-1 0 1 0 0 1 0 0 0 
0 0 1 0 0 1 0 0 1 
0 0 1 0 0 1 0 0 1 
0 0 1 -1 0 1 -1 0 0 
0 0 0 0 0 1 0 0 1 
0 0 0 0 0 1 0 0 0 
0 0 0 0 0 0 0 0 0 
0 0 0 0 0 1 0 0 1 
0 0 0 0 -1 0 0 0 1 
-1 0 0 0 0 0 0 0 0 
0 0 1 0 0 0 0 0 1 
0 0 1 0 0 0 0 0 0 
0 0 1 0 0 0 0 0 1 
0 0 0 0 0 1 0 0 0 
0 -1 0 0 0 1 0 0 0 
0 0 0 0 0 0 0 0 1 
0 0 0 0 0 1 0 0 1 
0 0 0 0 0 1 0 0 0 
0 -1 0 0 0 0 0 0 0 
0 0 0 0 0 0 0 -1 0 
-1 -1 0 -1 -1 0 0 0 0 
0 0 0 0 0 1 0 0 0 
0 0 0 0 0 0 0 0 0 
0 0 0 0 0 0 0 0 1 
0 0 0 0 0 0 0 0 0 
0 0 0 0 -1 0 0 0 0 
0 0 0 0 0 0 0 0 0 
0 0 0 0 0 0 0 0 0 
0 0 0 0 0 0 0 0 0 
0 0 0 0 0 0 0 0 0 
0 0 0 0 0 0 0 0 0 
-1 0 0 0 -1 0 0 -1 0 
0 0 0 0 -1 0 0 0 0 
0 0 0 -1 0 0 0 0 0 
0 0 0 0 0 0 0 0 0 
0 0 0 0 0 0 0 -1 0 
0 0 0 0 0 0 0 0 0 
0 0 0 0 0 0 0 0 0 
0 0 0 -1 0 0 0 -1 0 
0 0 0 0 0 0 0 0 0 
0 0 0 0 0 0 0 0 0 
0 0 0 0 0 0 0 0 0 
0 0 0 0 0 0 0 -1 0 
0 -1 0 0 0 0 0 0 0 
0 0 0 0 0 0 0 0 0 
0 0 0 0 -1 0 0 0 0 
0 0 0 0 0 0 0 0 0 
0 0 0 0 0 0 0 -1 0 
0 0 0 0 0 0 0 0 0 
0 0 0 0 0 0 0 0 0 
0 0 0 0 0 0 0 0 0 
0 0 0 0 0 0 0 0 0 
0 0 0 0 0 0 0 -1 0 
0 0 0 -1 0 0 0 0 0 
0 0 0 -1 0 0 -1 0 0 
0 0 0 0 0 0 0 0 0 
0 0 0 -1 0 0 0 0 0 
0 0 0 -1 0 0 -1 0 0 
0 0 0 0 0 0 0 0 0 
0 0 -1 0 0 -1 0 0 0 
0 0 0 0 0 0 0 0 0 
0 0 0 0 0 0 0 0 0 
0 0 0 0 0 0 0 0 0 
-1 0 0 0 0 0 -1 0 0 
0 0 0 0 0 -1 0 0 -1 
-1 1 0 0 0 -1 0 0 -1 
0 0 -1 0 0 -1 -1 0 0 
0 0 0 0 0 0 0 0 0 
0 0 0 0 0 0 0 0 0 
0 0 0 0 0 0 0 0 0 
-1 0 0 0 0 -1 0 0 -1 
0 0 -1 0 0 0 0 0 0 
0 0 -1 0 0 0 0 0 0 
0 0 0 -1 0 0 0 0 0 
0 0 0 
v 3 1000 double
-0.0036849278097 0.021579930694 -0.046237406333 -0.022158818201 -0.086236852565 -0.059374229164 -0.018305311252 -0.019834306738 -0.08557840691 
-0.023403027986 -0.073201036563 -0.098506776787 -0.049078037971 0.019075758087 -0.042870453625 0.0033138666449 0.04523166252 -0.003868559154 
0.05947118723 -0.054487340632 -0.10606455616 0.062406302205 -0.032283803955 -0.11308901842 0.024768866952 0.045854714805 0.031501236831 
0.04438625308 -0.016032829226 0.0052843838768 0.060287806768 -0.05867251227 -0.031161992366 0.041091066632 -0.082370396784 -0.059321777491 
0.038429997553 0.062364527886 0.014176789311 0.035606308084 0.033837958969 0.009285340755 0.042298368301 -0.076163818689 0.032538196817 
0.030667771592 -0.093520185815 -0.031804069015 0.06162912958 0.0088452212017 0.04847854034 -0.050817463678 0.057558914071 0.047612175899 
-0.023511851302 0.025651366012 -0.045338482161 -0.031750112688 -0.038167810531 -0.084722343437 -0.022364678585 -0.056662678273 -0.088754164232 
0.00072613136606 0.044363553067 -0.066729067551 0.033170544063 -0.0034134042036 -0.086114907338 0.043530602967 -0.070272376434 -0.096066407647 
0.011498174337 0.040303374936 -0.022418425878 0.044914721022 -0.046554561258 -0.062628400444 0.059752018812 -0.046146564788 -0.038228175826 
0.049355275103 -0.079681797973 -0.072658960487 0.05788352782 0.0064603266339 0.051420259803 0.058077813507 -0.10612411633 -0.00261977515 
0.047088236084 0.04747459557 0.019114139377 0.05985644488 -0.10900739747 -0.0053435583249 -0.0018340892193 -0.038501323843 -0.092286216997 
-0.010230840321 -0.014868440552 -0.090441671892 0.02030810049 -0.035570121984 -0.07030468507 -0.0017549701682 -0.074673321993 -0.079193219573 
-0.0056131846468 -0.059966366974 -0.099707895046 0.040604121244 -0.098015383604 -0.075510555169 0.010556360706 0.0077297551499 -0.0050462141203 
0.04507086999 0.05134627943 0.033172721842 0.066461043881 -0.048274120339 0.0097342796643 0.075192983014 -0.075453909225 -0.089616795099 
0.057682662174 -0.084108093918 0.006956093508 0.057800564127 -0.097865939909 -0.04721290953 -0.025912380967 0.016527127397 -0.041825871147 
-0.00060937769298 -0.020242885002 -0.069746232206 -0.005506937847 -0.025143043945 -0.088226746087 0.013692305648 -0.050245642599 -0.024206012515 
0.029477645718 -0.10034772988 -0.087787362621 0.038724668795 0.017881808673 0.013679005327 0.039473343632 -0.0043211560564 -0.075440983735 
0.074901547068 -0.047975646455 -0.11633256666 0.060402193393 -0.080860914014 -0.072633966662 0.056028578332 0.016756582548 -0.0052010578489 
0.06310841994 -0.082212145829 -0.069670972523 0.0089870048366 -0.045515180268 -0.042622300209 0.067144871522 0.039175430558 -0.00200445935 
0.036581079634 0.020245310544 0.012773683996 0.0724313232 0.062789783323 0.02955244664 0.061877581282 0.00070002664794 0.03639703249 
0.061389122978 -0.054208845704 0.022158537466 0.06330867527 -0.0819462361 -0.012983544304 0.048377269603 -0.04448139502 -0.0071270860479 
0.014509311899 0.022868370115 -0.013806633752 -0.012357412457 0.0011905273018 -0.045146521696 -0.0052599300223 -0.055784261903 -0.072560463679 
-0.0061142142325 -0.00074246132299 -0.071967598763 0.016666817762 -0.039477152414 -0.080451180953 0.011595907262 0.0056714159022 -0.052821111657 
0.027636901344 -0.008395095687 -0.067706885011 0.022364243358 0.0036038236552 -0.002484457277 0.03056306584 -0.037718944817 -0.02965713605 
0.014013710148 -0.044697989585 -0.097264686552 0.022768779015 -0.054874084227 -0.077057210004 0.014557791168 -0.038022012246 -0.05487928204 
0.06273449722 0.026455466065 0.041248256904 0.04613090186 0.011946433424 0.0079937885631 0.066278979878 0.02068622153 -0.0039789175433 
0.030050529447 0.027134186574 0.052543147966 0.043218104968 -0.071814156974 -0.016050461588 0.054725824356 -0.064693037348 -0.025011848489 
-0.015439163264 0.013887395381 -0.00039037322601 0.017671265688 -0.064253040512 -0.085656796877 0.049599012869 0.0044626039191 -0.048537861909 
0.062619793901 -0.033905895147 -0.041149289165 -0.0057568226955 -0.063785706056 -0.093145021828 -0.0084583497095 0.049791204665 -0.012278814094 
0.027163393912 -0.019875925733 -0.0096724276935 0.014951342788 -0.026037701691 -0.078947700889 0.059821137684 0.015071950901 -0.02183665 
0.052619229764 -0.020386986567 -0.060742568809 0.037421667921 0.0068459101315 -0.0074113214535 0.013456988133 -0.066510892877 -0.064919256968 
0.039008045387 -0.058502115067 -0.036506425408 -0.0052105871857 0.017613309923 -0.044141241936 0.008031054998 -0.074041620574 -0.084014302882 
0.018968670419 -0.070347737664 -0.087480557115 0.023915643148 0.00013202721038 -0.061189491141 -0.026300143175 0.031782312064 -0.015876719779 
-0.019090738744 0.01949067588 -0.043603100665 0.0061752738058 -0.062936828119 -0.084292110783 0.047335714262 -0.013649353766 -0.032977070255 
0.018863990227 -0.076884449914 -0.10605362684 0.026572208556 0.029446434507 0.015596332491 0.032160939523 -0.059349723774 -0.046307872477 
0.050004387693 -0.019851459385 0.011486036758 0.024139598062 -0.051540573929 -0.058345551945 0.022643393786 -0.001604690154 0.0051673852118 
0.028712476919 -0.015726155204 -0.032650925719 0.068949473195 -0.024540687894 -0.0047690918885 0.03576355654 0.031379168106 0.019500045717 
0.048065923989 -0.029792144112 0.040450413288 0.052010810093 -0.058106336509 -0.0041204103405 0.066004616874 -0.091247634015 -0.0069667781004 
-0.012231249001 0.044017139938 0.012419233029 0.0027462778401 0.0077110358922 -0.048840185634 -0.016397569708 0.004958006793 -0.052074760676 
-0.045249327634 -0.038739276246 -0.051259282095 -0.044874118199 -0.031429811525 -0.087332181821 0.022534182893 -0.056608675702 -0.094825414375 
-4.1238329272e-05 -0.0054210418939 -0.017970661725 0.037575588291 -0.036370399532 -0.036651097833 -0.0019193536472 -0.072784286535 -0.095126222316 
0.036142314731 -0.079238799975 -0.076360063354 0.052757702747 -0.029988979026 0.012530361152 0.069016998217 0.015428133467 0.0033667625302 
0.031095585757 -0.028150256834 0.019868190762 0.029924934167 -0.06477195179 -0.025992961829 0.054965695008 0.0022370850108 0.049704183028 
0.051886747785 5.6742496821e-05 0.034433664217 0.025306207057 -0.080170265151 0.0052729729221 -0.034405735228 -0.012789686306 -0.014832685647 
-0.04641901583 -0.041225677032 -0.048892066196 -0.053963306567 -0.045916924999 -0.073946938603 -0.0048861564835 -0.010563018322 -0.068931378397 
-0.022421984712 0.030714554686 0.0084203930641 -0.043882968887 0.01886384877 -0.04080130004 -0.033353968111 -0.034088162756 -0.10467320372 
0.0014416422735 -0.012544284519 -0.028544033851 0.015543080774 -0.046136172317 -0.045942270928 0.023825015825 -0.083528794373 -0.077728933237 
0.042651822778 0.014207424784 0.01395760388 0.031529993236 0.020010397454 0.01728693605 0.071812313668 -0.024631816774 -0.024641226125 
0.025480985414 0.013799923247 0.014425080669 0.027186050314 -0.008204650568 0.0045333757793 -0.054289031843 -0.013259622042 -0.086014253378 
-0.0046406957837 0.01483569023 -0.019832011255 -0.043264416301 0.00056151849882 -0.076104384233 -0.051090526256 -0.021546770596 -0.12330537106 