# vtk DataFile Version 4.2
Generated by LIGGGHTS
ASCII
DATASET POLYDATA
POINTS 1000 float
0.84363 0.586676 0.29317 2.43678 0.533423 0.595561 3.05164 1.22558 0.191632 
4.04882 0.842063 0.377536 1.76524 1.30122 0.43158 4.62707 1.64059 0.624097 
1.0724 2.09343 0.55982 1.9688 2.31786 0.146764 3.59403 1.97052 0.606704 
4.59811 2.45995 0.080274 0.353126 2.77053 0.333653 3.10124 2.72328 0.236871 
1.53362 3.17615 0.364753 3.23321 3.73239 0.0345936 4.17335 3.37435 0.014134 
0.404237 3.82738 0.597656 2.33296 4.11312 0.165322 3.98617 4.36824 0.193971 
0.614875 4.86046 0.00278207 1.56865 4.83301 0.544297 0.178387 0.372402 1.0454 
3.32097 0.601451 1.01179 0.644272 1.28213 0.921337 0.206692 2.24999 1.19691 
2.94371 2.43037 1.17194 1.66049 2.63669 1.32606 0.896708 3.19091 1.13499 
2.48482 3.31893 0.737216 3.67784 3.16995 0.888677 4.63253 3.2655 1.15509 
1.69527 3.80671 1.07829 3.22414 4.22558 0.896933 0.929803 4.40179 1.23666 
4.94013 4.70636 0.791558 1.11743 0.170912 1.34793 3.96286 0.0674974 1.82666 
0.668095 0.92354 1.82076 1.61574 1.00275 1.36054 2.55776 1.08084 1.41457 
4.34073 0.979044 1.33745 1.17152 1.84366 1.50813 3.54311 1.34337 1.79724 
2.50106 1.95712 1.91258 4.10201 2.47383 1.46071 0.429539 2.92475 1.94635 
3.02026 3.39197 1.60955 4.19269 4.19204 1.56628 1.87333 4.6376 1.54431 
3.25016 4.38515 1.86796 2.89729 0.0922851 2.0986 2.06882 0.636854 2.16701 
3.54941 0.692974 2.56346 4.7556 0.673393 2.44177 1.3035 1.41361 2.39617 
2.83624 1.38225 2.63208 4.5243 1.76274 2.14689 0.468294 1.96283 2.15939 
1.62355 2.30795 2.26733 3.43091 2.27189 2.16374 2.6881 2.78925 2.54526 
4.38196 2.84519 2.48561 0.685058 3.937 2.08686 1.62139 3.75124 2.06296 
2.46429 4.07084 2.39249 4.23662 3.8423 2.47586 1.37046 4.82918 2.36471 
0.934098 0.522608 2.67004 2.1473 0.0582197 3.00749 1.97745 1.09155 3.03774 
0.351516 1.32731 2.88324 3.78551 1.62046 2.79728 0.0534444 2.36009 2.97367 
1.02097 2.05962 3.10763 1.14097 3.07263 2.667 3.79476 2.60064 3.22009 
2.19175 3.41994 3.10027 3.37604 3.42625 2.8491 0.0640238 4.34422 2.71943 
0.771475 3.84317 3.14457 1.98142 4.63996 3.10852 3.48808 4.55005 2.81484 
4.45013 4.58484 3.06836 0.895473 0.123743 3.5808 1.91359 0.517656 3.82161 
3.30307 0.589766 3.52896 4.51175 0.489703 3.91164 0.151439 0.707062 3.96071 
1.06717 1.0777 3.49511 2.68176 1.24625 3.93587 4.84212 1.24094 3.34538 
2.24043 1.983 3.38628 3.24485 1.90799 3.56798 0.665003 2.90052 3.54934 
1.57742 2.51425 3.90482 2.9008 2.84257 3.51154 4.69033 2.54585 3.52592 
1.50575 3.6045 3.75885 4.29152 3.48643 3.37061 3.04402 4.00755 3.61322 
1.19631 4.93301 3.69381 3.76933 4.79085 3.73924 1.20338 0.490437 4.46304 
2.69816 0.178229 4.30176 3.72534 0.282347 4.45399 1.93355 1.16513 4.54412 
3.87002 1.31545 4.14754 4.71609 1.69542 4.19846 -0.00683968 3.01067 4.27135 
0.83079 2.59808 4.55731 2.53432 3.0534 4.39684 3.75723 3.06601 4.08832 
4.46236 2.56128 4.48951 0.777025 4.13782 4.11141 2.2621 4.01615 4.27719 
3.48739 3.81085 4.63716 4.27874 4.00911 4.14999 0.0711724 4.78444 4.32922 
2.95231 4.74434 4.29263 0.65282 0.305869 5.26676 4.07838 0.62239 5.30006 
0.576988 1.20337 4.68015 3.29146 1.04227 4.86721 1.33034 1.80093 4.9931 
2.47841 1.28797 5.31391 3.32261 2.44767 4.75125 1.70004 2.99158 4.8852 
4.45061 3.48236 5.03152 0.0811323 3.92747 4.79747 1.1658 3.94972 4.99248 
2.07612 4.01163 5.30524 2.92147 4.37066 5.13405 0.150452 4.85321 5.29627 
2.16272 4.98068 5.0851 4.11836 4.78277 4.67671 4.92489 0.333842 5.62356 
1.6323 0.698935 5.45956 0.339362 1.55096 5.56437 1.31197 1.65151 5.97126 
3.78213 1.58059 5.76265 4.77758 1.30215 5.42046 2.19414 2.24348 5.36572 
4.64637 2.29861 5.45793 0.133799 2.70943 5.79962 1.0565 2.67187 5.5267 
3.4755 2.50781 5.82543 4.59121 3.10975 5.974 1.75086 3.27227 5.84447 
3.09515 3.45068 5.46284 0.49183 4.00838 5.69566 3.96647 4.23194 5.47447 
4.9326 4.34599 5.62042 0.0183443 0.319128 6.02851 2.17278 0.0158715 6.12068 
4.02546 0.119409 6.21723 0.820525 0.843631 6.27481 1.80146 0.956207 6.4578 
2.77466 0.813424 6.11928 3.58988 0.890139 6.64624 0.480755 1.79465 6.5271 
2.80679 1.84492 6.04428 4.46922 1.26474 6.4811 4.28449 2.38877 6.58227 
1.43956 2.54044 6.48948 2.57834 2.82448 6.06735 0.971269 3.47987 6.49458 
3.15519 3.49647 6.44598 0.0530032 4.09549 6.5807 1.41089 4.25356 6.01905 
2.20738 3.8679 6.48655 3.16412 4.35898 6.02232 0.669513 4.86203 6.52156 
2.28858 4.75331 6.03473 4.01505 4.52412 6.43136 0.177855 0.182746 7.00367 
1.35067 0.165861 6.84505 2.53273 0.074485 7.0567 3.52806 0.0143743 7.06206 
4.63837 0.387239 6.88807 2.2821 0.997727 7.32772 1.2864 1.78912 7.17161 
2.19456 1.85362 6.79781 2.43325 2.95302 7.25987 0.206451 3.26019 7.08356 
1.62598 3.4237 7.21148 4.10218 3.57588 6.70958 1.50014 4.33478 6.99956 
2.93127 4.32957 6.96113 4.37981 4.88811 7.26675 0.2195 0.150308 7.98677 
0.716371 0.903377 7.40185 1.49996 1.16097 7.92685 3.17092 0.653258 7.69335 
4.18247 0.700129 7.68659 0.61649 1.83518 7.89397 2.97941 1.67086 7.40148 
3.96374 1.65198 7.38537 4.93352 2.05155 7.36557 0.072116 2.86869 7.97286 
1.1553 2.67474 7.63848 4.14356 2.71739 7.69783 3.37122 3.26245 7.35507 
4.7666 3.59479 7.6115 0.9248 4.09489 7.7837 2.59284 3.93088 7.86158 
0.4675 4.83992 7.47525 1.40694 4.90117 7.84813 3.60064 4.38588 7.63376 
1.8737 0.292133 8.13524 4.9437 0.103486 8.05098 0.207876 0.865791 8.63304 
4.86934 1.24865 8.20444 1.99005 1.83015 8.44777 2.89386 1.31196 8.36995 
3.81998 1.57979 8.47485 2.78184 2.28469 8.12801 1.9906 2.88737 8.14242 
3.30613 3.08037 8.31386 4.51364 2.83549 8.63158 0.170019 3.84888 8.31778 
4.06266 3.89571 8.53341 4.93416 4.28321 8.27288 2.41738 4.75737 8.37812 
1.11227 0.536511 8.69421 2.67423 0.391305 8.69035 4.30866 0.516157 8.68534 
1.0114 1.51388 8.73159 0.640644 2.43616 8.69115 2.43889 2.00243 9.32329 
4.28093 2.09237 9.21204 1.81181 2.72113 9.09207 1.17177 3.43538 9.24517 
2.50995 3.51184 8.74699 3.55985 3.24132 9.24414 1.63017 4.17213 8.72326 
3.1527 4.22314 9.0585 0.741709 4.61933 8.71546 1.39889 0.209565 9.58182 
2.38211 0.0940413 9.73978 3.31157 0.395436 9.60155 4.60357 0.454555 9.64223 
2.45467 1.02248 9.41296 3.82019 1.22825 9.4249 0.670142 1.38218 9.70197 
1.60001 1.59945 9.51117 4.78327 1.42603 9.69728 1.02397 2.48081 9.64696 
3.35357 2.21218 9.37684 0.26388 3.06031 9.37421 2.46297 3.18287 9.67655 
0.254821 4.07222 9.39454 1.32256 4.06961 9.98454 4.55862 4.32005 9.36145 
2.17201 4.68078 9.3778 4.30269 5.52193 0.451182 0.12526 5.72975 0.0737484 
0.883476 6.14477 0.585054 0.24255 6.81875 0.445678 3.44597 6.36025 0.552889 
1.10446 7.20053 0.232403 2.3458 7.28649 0.239292 3.76943 7.22789 0.148376 
4.72152 6.96112 0.248605 3.17068 8.0284 0.173191 4.89732 7.84784 0.6249 
0.55221 8.42393 0.0668322 2.27675 8.2181 0.505134 2.53563 9.25474 0.389745 
1.61159 9.98149 0.514958 3.42741 9.66513 0.305276 4.53431 9.92494 0.622949 
0.0266727 5.0703 0.829489 0.931643 5.36905 1.10805 1.87817 5.55127 1.13752 
3.74016 5.14269 1.19381 2.69183 5.73496 0.660437 4.19754 6.20605 1.32101 
1.72937 6.59544 0.684775 2.61768 6.61548 1.08661 0.644922 7.42905 1.09194 
4.157 7.22419 1.13887 1.73051 7.54766 0.983473 2.92772 7.55206 1.00462 
0.961089 8.40705 0.962949 3.10156 8.66809 0.942416 4.01426 8.27768 0.806848 
1.71129 9.02116 0.802174 3.91664 9.24027 1.06782 4.9598 8.81717 0.822984 
0.759927 9.41672 0.80473 2.99502 9.6763 1.20185 0.532672 5.05147 1.91696 
2.71304 5.15437 1.48222 4.95929 5.5667 1.42053 2.03533 6.15007 1.89707 
3.29438 5.94088 1.62817 0.265422 6.67643 1.56895 1.33311 6.84907 1.69574 
3.32146 6.9393 1.6892 4.96403 7.17184 1.67303 1.24073 7.92348 1.75699 
3.54272 8.0064 1.69954 4.57388 8.11714 1.62993 2.36735 8.18681 1.49651 
0.217614 8.82701 1.4898 1.18916 9.08597 1.63615 3.02229 9.03622 1.98389 
4.74885 9.35766 1.61308 0.404363 9.97471 1.97504 2.07302 9.91812 1.47261 
2.74745 5.14847 2.46846 4.17128 5.47418 2.11606 0.816133 6.0636 2.04375 
2.91066 6.1975 2.58998 3.92699 6.38918 2.47797 4.8958 6.32495 2.20581 
3.09412 7.2328 2.60432 4.11001 7.37985 2.24995 1.23963 7.53834 2.65163 
0.415653 8.20883 2.22639 2.79043 8.16105 2.3978 4.51985 8.24105 2.62607 
0.80279 9.16986 2.65188 2.06747 9.09085 2.20565 3.98371 9.14705 2.19442 
1.45889 9.83657 2.22956 0.858149 5.53035 2.84794 3.60299 5.57473 2.9295 
4.53582 5.8228 3.04334 0.729518 6.65225 2.87625 1.95667 6.25813 2.87727 
2.13675 7.20871 2.72214 4.64068 7.22963 3.1426 0.458398 7.8575 3.14469 
3.80092 7.71653 3.09564 1.91621 8.30674 2.89779 3.74632 8.69141 3.02408 
1.64104 9.25538 3.15473 2.81802 9.19093 2.96572 3.99396 9.82753 3.09667 
4.97222 9.85141 2.92252 0.0697786 5.10452 3.36384 2.14244 5.54924 3.51352 
2.92785 5.08074 3.41491 1.27257 5.89822 3.65494 3.4166 5.91704 3.89152 
2.60189 6.45801 3.6336 3.53657 6.7304 3.33219 4.40749 6.49271 3.74865 
0.206413 7.04732 3.63063 1.49388 7.07198 3.52412 2.9844 7.52416 3.56454 
0.945684 8.59521 3.55489 3.40554 8.37727 3.88586 4.37105 8.16562 3.76731 
4.61322 9.04819 3.38243 0.127437 9.49423 3.62022 3.26368 9.58575 3.76132 
1.72104 5.44585 4.3867 4.30923 5.52057 4.06679 0.284178 5.73331 4.21844 
2.73833 6.07527 4.61465 0.843932 6.54539 4.21076 3.35894 6.85387 4.30661 
2.39534 7.21809 4.28065 4.87701 7.10204 4.37424 0.572065 7.75077 4.3175 
1.50169 8.11639 4.48516 4.09374 7.65465 4.57917 2.44251 8.20138 4.0387 
4.43802 8.61491 4.66723 1.51354 9.09444 4.25066 2.63362 9.17888 4.48888 
3.6592 9.23662 4.66185 0.697695 9.64274 4.43301 4.51181 9.54237 4.25152 
0.0702237 6.05558 5.1539 1.13789 5.97822 5.29818 3.77395 5.64036 4.85722 
1.79306 6.3828 4.71738 2.53414 6.77002 5.27299 4.1834 6.4966 4.70156 
0.200856 6.98614 4.8168 1.2107 7.1861 4.84465 3.13564 7.67688 4.81358 
0.912551 8.40667 5.2215 2.50065 8.38316 5.07384 3.65294 8.36013 5.33299 
0.168867 8.84198 4.7112 1.73014 8.98539 5.23236 2.01229 9.89278 4.95519 
3.14218 9.98526 5.21244 4.27602 9.66382 5.29833 1.0933 5.03196 5.5118 
2.94914 5.3001 5.4507 4.03089 5.33878 5.78858 2.11254 5.85843 5.73003 
3.30618 6.19768 5.43689 4.99064 5.99419 5.4143 0.571747 6.751 5.77834 
1.60768 6.79712 5.62335 3.88215 6.8186 5.90236 4.68506 6.96527 5.34805 
[...]
POINT_DATA 1000
FIELD FieldData 7
id 1 1000 int
9 530 531 528 509 18 519 20 506 
512 526 11 600 515 595 255 510 527 
142 503 16 5 2 757 505 522 17 
501 12 513 1 6 504 770 3 8 
748 14 514 502 518 13 523 10 302 
21 516 529 4 636 548 555 35 534 
544 524 23 541 554 7 38 508 41 
547 537 626 34 640 22 545 552 536 
551 30 557 24 543 283 37 32 532 
550 644 29 170 40 570 71 33 533 
26 540 42 539 31 279 36 546 556 
67 28 561 560 654 63 535 47 549 
68 53 25 58 69 45 44 558 408 
54 55 59 49 51 62 80 538 48 
817 563 50 568 572 669 43 559 565 
566 57 84 61 46 70 569 303 567 
574 311 66 52 573 575 345 564 220 
663 64 578 588 78 337 583 582 96 
585 589 99 101 339 103 592 92 91 
56 102 213 95 202 699 85 72 86 
580 79 350 81 83 77 591 89 122 
579 590 576 82 88 97 74 833 76 
93 87 584 75 593 586 98 694 581 
118 870 127 126 107 602 104 125 73 
110 105 108 106 598 601 119 120 123 
116 111 599 608 605 597 117 114 115 
594 233 112 735 507 633 604 128 606 
607 372 610 121 365 603 272 109 113 
596 143 404 612 872 151 152 635 723 
984 231 629 245 625 133 520 140 150 
269 130 129 517 630 620 634 135 148 
616 147 134 611 144 617 138 149 631 
132 141 909 511 145 131 613 139 622 
614 383 641 651 623 624 136 173 647 
402 912 146 168 627 632 658 653 423 
657 615 659 160 171 161 163 646 157 
174 27 158 166 156 642 650 159 648 
652 639 155 167 154 172 39 418 162 
542 656 655 643 645 164 920 682 637 
649 182 153 660 436 638 190 668 450 
194 177 193 180 165 185 199 686 169 
676 673 661 662 677 192 948 666 60 
681 178 680 198 189 181 679 684 678 
448 670 562 187 195 571 207 683 664 
675 674 183 179 703 184 176 671 196 
206 441 188 685 667 702 211 709 701 
689 970 690 191 200 665 205 197 706 
707 698 203 219 693 215 218 209 210 
214 700 216 201 704 710 577 224 692 
741 691 687 222 705 708 238 221 212 
227 587 217 230 208 374 235 743 713 
695 714 737 719 721 720 992 734 237 
241 727 733 696 244 715 717 240 742 
228 242 738 239 225 736 991 234 740 
725 732 726 124 226 223 521 247 739 
628 618 730 137 716 229 243 728 246 
722 724 236 718 248 843 773 251 767 
866 745 525 271 260 249 752 381 382 
257 252 758 747 259 765 761 764 268 
754 254 744 760 261 262 891 904 250 
756 768 253 763 258 15 753 287 19 
267 769 772 791 762 263 265 908 413 
780 777 790 746 782 282 778 755 781 
286 766 794 788 300 433 784 785 775 
296 293 783 277 292 776 276 786 281 
297 275 298 779 427 818 290 295 306 
553 289 285 325 774 274 284 793 789 
294 288 301 792 291 813 323 278 280 
816 316 313 314 322 811 406 321 320 
806 319 809 324 808 308 812 318 797 
305 796 807 805 310 317 934 821 810 
832 355 831 802 307 798 814 815 343 
312 837 315 801 799 335 827 830 333 
823 349 340 819 332 804 348 952 800 
334 342 338 825 353 354 346 100 94 
327 336 341 351 824 864 829 344 347 
996 822 329 826 90 858 330 848 331 
836 326 377 352 328 834 466 855 989 
373 857 852 856 854 840 359 869 845 
850 371 844 853 861 364 362 863 847 
363 368 357 867 270 849 838 360 378 
851 859 1000 865 490 750 862 256 366 
356 868 842 846 841 361 369 367 358 
609 266 375 380 389 759 875 401 385 
391 232 390 400 886 399 396 889 264 
273 749 384 888 393 892 403 871 395 
878 884 887 405 387 895 876 896 898 
874 877 882 883 397 899 885 621 894 
893 881 879 398 751 928 386 299 424 
437 432 388 927 922 175 410 901 426 
411 422 921 905 906 903 911 419 918 
915 415 923 431 916 914 925 412 917 
407 429 438 926 435 417 900 414 902 
907 919 924 425 439 434 416 409 944 
787 910 430 420 459 939 942 945 447 
461 457 940 937 421 913 951 446 795 
672 304 309 449 428 442 443 453 947 
941 186 938 440 444 950 456 946 454 
803 462 929 452 445 933 468 460 470 
451 930 936 455 935 458 943 949 65 
469 835 464 472 960 962 204 465 932 
964 688 971 474 931 828 697 967 977 
476 467 956 966 953 711 955 958 976 
471 959 954 473 820 478 965 379 475 
712 481 968 957 974 961 477 479 969 
972 994 963 463 985 973 995 497 493 
494 998 489 999 485 975 491 499 988 
488 370 483 376 495 979 978 986 486 
729 480 496 487 484 482 839 492 997 
980 890 500 771 619 498 990 897 394 
981 392 880 983 982 731 987 993 873 
860 
type 1 1000 int
1 2 2 2 2 1 2 1 2 
2 2 1 2 2 2 1 2 2 
1 2 1 1 1 2 2 2 1 
2 1 2 1 1 2 2 1 1 
2 1 2 2 2 1 2 1 1 
1 2 2 1 2 2 2 1 2 
2 2 1 2 2 1 1 2 1 
2 2 2 1 2 1 2 2 2 
2 1 2 1 2 1 1 1 2 
2 2 1 1 1 2 1 1 2 
1 2 1 2 1 1 1 2 2 
1 1 2 2 2 1 2 1 2 
1 1 1 1 1 1 1 2 1 
1 1 1 1 1 1 1 2 1 
2 2 1 2 2 2 1 2 2 
2 1 1 1 1 1 2 1 2 
2 1 1 1 2 2 1 2 1 
2 1 2 2 1 1 2 2 1 
2 2 1 1 1 1 2 1 1 
1 1 1 1 1 2 1 1 1 
2 1 1 1 1 1 2 1 1 
2 2 2 1 1 1 1 2 1 
1 1 2 1 2 2 1 2 2 
1 2 1 1 1 2 1 1 1 
1 1 1 1 2 2 1 1 1 
1 1 2 2 2 2 1 1 1 
2 1 1 2 2 2 2 1 2 
2 1 2 1 1 2 1 1 1 
2 1 1 2 2 1 1 2 2 
2 1 2 1 2 1 2 1 1 
1 1 1 2 2 2 2 1 1 
2 1 1 2 1 2 1 1 2 
1 1 2 2 1 1 2 1 2 
2 1 2 2 2 2 1 1 2 
1 2 1 1 2 2 2 2 1 
2 2 2 1 1 1 1 2 1 
1 1 1 1 1 2 2 1 2 
2 2 1 1 1 1 1 1 1 
2 2 2 2 2 1 2 2 2 
2 1 1 2 1 2 1 2 1 
1 1 1 1 1 1 1 2 1 
2 2 2 2 2 1 2 2 1 
2 1 2 1 1 1 2 2 2 
1 2 2 1 1 2 1 2 2 
2 2 1 1 2 1 1 2 1 
1 1 1 2 2 2 1 2 2 
2 2 2 1 1 2 1 1 2 
2 2 1 1 2 1 1 1 1 
1 2 1 1 2 2 2 1 2 
2 2 2 1 2 2 1 1 1 
1 2 1 1 1 1 1 2 2 
2 2 2 2 2 2 2 2 1 
1 2 2 2 1 2 2 1 2 
1 1 2 1 1 2 2 1 2 
2 2 2 1 1 1 2 1 2 
2 2 2 1 2 1 1 2 1 
2 2 1 2 1 2 2 1 2 
2 2 2 1 1 1 2 1 1 
1 1 2 2 1 2 2 2 1 
2 1 2 2 1 1 2 2 1 
2 2 1 2 1 1 2 1 1 
1 2 2 2 2 1 1 2 1 
2 2 2 2 2 1 2 2 2 
1 2 2 2 1 1 2 2 2 
1 1 2 1 1 2 1 2 1 
1 1 1 2 1 2 1 1 1 
2 1 1 1 2 1 1 2 2 
1 1 1 2 1 2 1 1 1 
2 1 1 1 1 2 1 1 1 
2 1 2 1 2 1 2 1 2 
1 2 2 2 1 1 2 2 2 
2 1 2 2 1 2 2 2 1 
1 2 1 2 2 1 2 2 1 
2 1 1 2 1 2 1 2 2 
1 1 1 2 1 1 1 1 1 
1 1 1 1 2 2 2 1 1 
2 2 1 2 1 2 1 2 1 
2 1 1 1 1 2 1 2 2 
1 2 2 2 2 2 1 2 2 
2 1 2 2 2 1 1 2 2 
1 1 1 2 1 2 2 1 1 
2 2 2 2 1 2 2 1 1 
1 2 2 2 2 1 1 1 1 
2 1 1 1 1 2 2 1 1 
1 1 1 1 2 1 1 2 1 
1 2 1 2 1 2 1 2 1 
2 2 2 1 1 2 2 2 2 
2 2 2 2 1 2 2 2 2 
2 2 2 1 2 2 1 1 1 
1 1 1 2 2 1 1 2 1 
1 1 2 2 2 2 2 1 2 
2 1 2 1 2 2 2 1 2 
1 1 1 2 1 1 2 1 2 
2 2 2 1 1 1 1 1 2 
2 2 1 1 1 2 2 2 1 
1 1 2 2 1 2 2 1 2 
2 1 1 1 1 1 1 1 2 
2 1 2 1 1 2 1 2 1 
2 1 2 1 1 2 1 1 1 
1 2 2 1 2 1 2 2 1 
1 2 1 1 2 2 1 1 2 
2 2 2 1 2 2 2 2 2 
1 1 2 2 2 2 2 2 2 
1 2 2 1 2 1 2 1 1 
2 1 2 2 2 2 1 1 2 
2 2 2 1 2 2 2 1 1 
1 2 1 2 1 2 1 1 2 
1 1 1 1 1 2 2 2 1 
2 1 1 1 1 1 2 1 2 
2 2 1 2 2 1 2 2 1 
2 1 2 2 2 2 2 2 2 
2 
i 3 1000 int
0 0 0 0 0 0 0 0 0 
0 0 0 0 0 0 0 0 0 
0 0 0 0 0 0 0 0 0 
0 0 0 0 0 0 0 0 0 
0 0 1 0 0 0 0 0 1 
1 0 0 0 0 0 0 0 0 
0 0 0 0 0 0 0 0 0 
0 0 0 0 0 0 1 0 0 
0 0 0 0 0 0 0 0 0 
0 0 0 0 0 0 0 0 0 
0 0 0 0 0 0 0 0 0 
0 0 0 0 0 0 0 0 0 
1 0 0 0 0 0 0 0 0 
0 0 0 0 0 0 0 0 0 
0 0 0 0 0 0 1 0 0 
0 0 0 0 0 0 0 0 0 
0 0 0 0 1 0 0 0 0 
0 0 0 0 0 0 0 0 0 
0 0 0 0 0 0 0 0 0 
0 0 0 0 0 0 0 0 0 
0 0 0 0 0 0 0 0 0 
0 0 0 0 0 0 0 0 0 
0 0 0 0 1 0 0 0 0 
0 0 0 0 0 0 0 0 0 
0 0 0 0 0 0 0 0 0 
0 0 0 0 0 0 1 0 0 
0 0 0 0 0 0 0 0 0 
0 0 0 0 1 0 0 0 0 
0 1 0 0 0 0 0 0 0 
0 0 0 0 0 0 0 0 0 
0 0 0 0 0 0 0 0 0 
0 0 0 0 0 0 0 0 0 
0 0 0 0 0 0 0 0 0 
0 0 0 0 0 0 0 0 0 
0 0 0 0 1 0 0 0 0 
0 0 0 0 0 0 0 0 0 
0 0 0 0 0 0 0 0 0 
0 0 0 0 0 0 0 0 0 
0 0 0 0 0 0 1 0 0 
0 0 0 0 0 0 0 0 0 
0 0 0 0 0 0 0 0 0 
0 0 0 0 0 0 0 0 0 
0 0 0 0 0 0 0 0 0 
0 0 0 0 0 0 0 0 0 
0 0 0 0 0 0 0 0 0 
0 0 0 0 0 0 0 0 0 
0 0 0 0 0 0 0 0 0 
0 0 0 1 0 0 0 0 0 
0 0 0 0 0 0 0 0 0 
0 0 0 0 0 0 0 0 0 
0 0 0 0 0 0 0 1 0 
0 1 0 0 0 0 0 0 0 
0 0 0 0 0 0 1 0 0 
0 0 0 0 0 0 0 0 0 
0 0 0 0 0 0 0 0 0 
0 0 0 1 0 0 0 0 0 
0 0 0 0 0 0 0 0 0 
0 0 0 0 0 0 0 1 0 
0 0 0 0 1 0 0 1 0 
0 0 0 0 0 0 0 0 0 
0 0 0 0 0 0 1 0 0 
0 0 0 0 0 0 0 0 0 
0 0 0 0 0 0 0 0 0 
0 0 0 0 0 0 0 0 0 
0 0 0 0 0 0 0 0 0 
0 0 0 0 0 0 0 0 0 
0 0 0 0 0 0 0 0 0 
0 0 0 0 0 0 0 0 0 
0 0 0 0 0 0 0 0 0 
0 0 0 0 0 0 0 0 0 
0 0 0 0 0 0 0 0 0 
0 0 0 0 0 0 0 0 0 
0 0 0 0 0 0 0 0 0 
0 0 0 0 0 0 0 0 0 
0 0 0 0 0 0 0 0 0 
0 0 0 0 0 0 0 0 0 
0 0 0 0 0 0 0 0 0 
0 0 0 0 0 0 0 0 0 
0 0 0 0 0 0 0 0 0 
0 1 0 0 0 -1 0 1 -1 
0 0 0 0 0 0 0 0 0 
0 0 0 0 0 0 0 0 0 
0 0 0 1 0 0 0 0 0 
1 0 -1 0 0 0 0 0 0 
0 0 0 0 0 0 1 0 0 
0 0 0 1 0 0 0 0 0 
0 0 0 0 0 0 0 0 1 
0 0 1 0 0 1 0 0 0 
0 0 1 0 0 0 0 0 0 
0 -1 0 0 0 0 0 0 0 
1 0 0 0 0 0 0 0 0 
0 0 0 0 0 0 0 0 0 
0 0 0 0 0 0 0 0 0 
0 0 0 0 0 0 0 0 0 
0 0 0 0 0 0 0 0 0 
0 0 0 0 0 0 0 0 0 
0 0 0 0 0 0 1 0 0 
0 0 0 0 0 0 0 0 0 
0 0 0 0 0 0 0 0 0 
0 0 0 0 0 0 0 0 0 
0 0 0 0 0 0 0 0 0 
0 0 0 0 0 0 0 0 0 
0 0 0 1 0 0 0 0 0 
0 0 0 0 0 0 0 0 0 
0 0 0 0 0 0 0 0 0 
0 0 0 0 0 0 0 0 0 
0 0 0 0 0 0 0 0 0 
0 0 0 0 0 0 0 0 0 
0 0 0 0 0 0 0 0 0 
0 0 0 0 0 0 0 0 0 
0 0 0 0 0 0 0 0 0 
0 0 0 0 0 0 0 0 0 
0 0 0 0 0 0 0 0 0 
0 -1 0 1 0 0 0 0 0 
0 0 0 0 0 0 0 0 0 
0 0 0 0 0 0 0 0 0 
1 0 0 0 0 0 0 0 0 
0 0 0 0 0 0 0 0 0 
0 0 0 1 0 0 0 0 0 
0 0 0 0 0 0 1 0 0 
0 0 0 0 0 0 0 0 0 
0 0 0 0 0 0 0 0 0 
0 0 0 0 0 0 0 0 0 
0 0 0 0 0 0 0 0 0 
0 0 0 0 0 0 0 0 0 
1 0 0 0 0 0 0 0 0 
0 0 0 0 0 0 0 0 0 
0 0 0 0 0 0 0 0 0 
0 0 0 0 0 0 0 0 0 
1 0 0 0 0 0 0 -1 0 
0 0 0 0 0 0 0 0 0 
0 0 0 0 0 0 0 0 0 
0 0 0 0 0 0 0 0 0 
0 0 0 0 0 0 0 0 0 
0 0 0 0 0 0 0 0 0 
0 0 0 1 0 0 0 0 0 
0 0 0 0 0 0 0 0 0 
0 0 0 0 0 0 0 0 0 
0 0 0 0 0 0 0 0 0 
0 0 0 0 0 0 0 0 0 
0 0 0 0 0 0 0 0 0 
0 0 0 0 0 0 0 0 0 
0 0 0 0 0 0 0 0 0 
0 0 0 0 0 0 0 0 0 
0 0 0 0 0 0 0 0 0 
0 0 0 0 0 0 0 0 0 
0 0 0 0 0 0 0 0 0 
0 0 0 0 0 0 0 0 0 
0 0 0 0 0 0 0 0 0 
0 0 0 0 0 0 0 0 0 
0 0 0 0 -1 0 0 0 0 
0 0 0 0 0 0 1 0 0 
0 0 0 0 0 0 0 0 0 
0 0 0 0 0 0 0 0 0 
0 0 0 0 0 0 0 0 0 
0 0 0 0 0 0 0 0 0 
0 0 0 0 0 0 0 0 0 
0 0 0 0 0 0 0 0 0 
0 0 0 0 0 0 0 0 0 
0 0 0 0 0 0 0 0 0 
0 0 0 0 0 0 0 0 0 
1 0 0 0 0 0 0 0 0 
0 0 0 0 0 0 0 0 0 
0 -1 0 0 0 0 0 0 0 
0 0 -1 0 0 0 0 0 0 
0 0 -1 0 0 -1 0 0 0 
0 0 -1 0 0 0 0 0 0 
0 0 0 0 0 0 0 0 0 
0 0 0 0 0 0 0 0 0 
0 0 0 0 0 0 0 0 1 
0 0 0 0 0 0 0 0 0 
0 0 1 0 0 0 0 0 0 
0 0 0 0 0 0 0 0 0 
0 0 0 0 1 0 0 1 0 
0 0 0 0 0 0 0 0 0 
0 0 0 0 0 0 0 0 0 
0 0 0 0 0 0 0 0 0 
0 0 0 0 0 0 0 0 0 
0 0 0 0 0 0 0 0 0 
0 1 0 0 1 0 0 0 0 
0 0 0 0 0 0 0 0 0 
0 0 0 0 0 0 0 0 0 
0 0 0 0 0 0 0 0 0 
0 0 0 0 0 0 0 0 0 
0 0 0 0 0 0 0 0 0 
0 0 0 0 1 0 0 1 0 
0 0 0 0 0 0 0 0 0 
0 0 0 0 0 0 0 0 0 
0 0 0 0 0 0 0 0 0 
0 0 0 0 0 0 0 0 0 
0 0 0 0 0 0 0 1 0 
0 0 0 0 0 0 0 0 0 
0 0 0 0 0 0 0 0 0 
0 0 0 0 0 0 0 0 0 
0 0 0 0 0 0 0 0 0 
0 0 0 0 0 0 0 0 0 
0 0 0 0 1 0 0 0 0 
0 0 0 0 0 0 0 0 0 
-1 0 0 0 0 0 0 0 0 
0 0 0 0 0 0 0 0 0 
0 0 0 0 0 0 0 0 0 
0 0 0 0 0 0 0 0 0 
0 0 0 0 0 0 0 0 0 
0 0 0 0 0 0 0 0 0 
0 0 0 0 0 0 0 0 0 
0 0 0 0 0 0 0 0 0 
0 0 0 0 0 0 0 0 0 
0 0 0 0 0 0 0 0 0 
0 0 0 0 0 0 0 0 0 
0 0 0 0 0 0 0 0 0 
0 0 0 0 0 0 0 0 0 
0 0 0 0 0 0 0 0 0 
0 1 0 0 0 0 0 0 0 
0 0 0 0 0 0 0 0 0 
0 0 0 0 0 0 0 0 0 
0 0 0 0 0 0 0 0 0 
0 0 0 0 0 0 0 0 0 
0 0 0 0 0 0 0 0 0 
0 0 0 0 0 0 0 0 0 
0 0 0 0 0 0 0 0 0 
0 0 0 0 0 0 0 0 0 
0 0 0 0 0 0 0 0 0 
0 0 0 0 0 0 0 0 0 
0 0 0 0 0 0 0 0 0 
0 0 0 -1 0 0 0 0 0 
0 0 0 0 0 0 0 0 0 
0 0 0 0 0 0 0 0 0 
0 0 0 0 0 0 0 0 0 
0 1 0 0 0 0 0 0 0 
0 0 0 -1 0 0 0 0 0 
0 0 0 0 0 0 0 0 0 
0 0 0 0 0 0 0 0 0 
0 0 0 0 0 0 0 0 0 
0 0 0 0 0 0 0 1 0 
0 0 0 0 0 0 0 0 0 
0 0 0 0 0 0 0 0 0 
0 0 0 0 0 0 0 0 0 
0 0 0 0 0 0 0 0 0 
0 0 0 0 0 0 0 0 0 
0 0 0 0 0 0 0 0 0 
0 0 0 0 0 0 0 0 0 
0 0 0 0 0 -1 0 0 0 
0 0 0 0 0 0 0 0 0 
0 0 0 0 0 0 0 0 0 
0 0 0 0 1 0 0 0 -1 
0 0 0 0 0 -1 0 0 0 
0 0 0 0 0 0 0 0 0 
0 0 0 0 0 0 0 0 0 
0 0 0 0 0 0 0 0 0 
0 0 0 0 0 -1 0 0 0 
0 0 0 0 0 0 0 0 0 
0 0 0 0 0 0 0 0 0 
0 0 0 0 0 1 0 0 0 
0 0 0 0 0 0 0 0 0 
0 0 0 0 0 0 0 -1 0 
0 0 0 0 0 0 0 0 0 
0 0 0 0 0 0 0 0 0 
0 0 0 0 0 0 0 0 0 
0 0 0 0 0 0 0 0 0 
0 0 0 0 0 0 0 0 0 
0 0 0 0 0 0 0 0 0 
0 0 0 0 0 0 0 0 0 
0 0 0 0 0 0 0 0 0 
0 0 0 -1 0 0 0 0 0 
0 0 0 0 0 0 0 0 0 
0 0 0 0 -1 0 0 0 0 
0 0 0 0 0 0 0 0 0 
0 0 0 0 0 0 0 0 0 
0 0 0 0 0 0 -1 0 0 
0 0 0 0 0 0 0 0 0 
0 0 0 0 0 0 0 0 0 
0 0 0 0 0 0 0 0 0 
0 0 0 0 0 0 0 0 0 
0 0 0 0 0 0 0 0 0 
0 0 0 0 0 0 0 0 0 
0 0 0 0 0 0 0 0 0 
0 0 0 0 0 0 0 0 0 
0 0 0 0 0 0 0 0 0 
0 0 0 0 0 0 0 0 0 
0 0 0 0 0 0 0 0 0 
0 0 0 0 0 0 0 0 0 
0 0 0 0 0 0 0 0 0 
0 -1 0 0 0 0 0 0 0 
0 0 0 0 0 0 0 0 0 
0 0 0 0 0 0 0 0 0 
0 0 0 0 0 0 0 0 0 
0 0 0 0 0 0 0 0 0 
0 0 0 0 0 0 0 -1 0 
0 0 0 0 0 0 0 0 0 
0 0 0 0 0 0 0 0 0 
0 0 0 0 0 0 0 0 0 
0 0 0 -1 0 0 0 0 0 
0 0 0 0 0 0 0 0 0 
0 0 0 0 0 0 0 0 0 
0 -1 0 0 0 0 0 0 0 
0 0 0 0 0 0 0 0 0 
0 0 0 0 0 0 0 0 0 
0 0 0 0 0 0 0 0 0 
0 0 0 0 0 0 0 0 0 
0 0 0 0 0 0 -1 -1 0 
0 0 0 0 0 0 0 0 0 
0 0 0 0 0 0 0 0 0 
-1 0 0 0 0 0 0 0 0 
0 0 0 0 0 0 0 0 0 
0 0 0 0 0 0 0 0 0 
-1 0 0 0 0 0 0 0 0 
0 0 0 0 0 0 0 0 0 
0 0 0 0 0 0 0 0 0 
0 0 0 0 0 0 0 0 0 
0 0 0 0 0 0 0 0 0 
0 0 0 0 -1 0 0 0 0 
0 0 0 0 0 0 0 0 0 
0 0 0 0 0 0 0 0 0 
0 0 0 0 0 0 0 0 0 
0 0 0 0 0 0 0 0 0 
0 0 0 0 0 0 0 0 0 
0 0 0 0 0 0 0 0 0 
0 0 0 0 0 0 0 0 0 
0 0 0 0 0 0 0 0 0 
0 0 0 0 0 0 0 0 0 
0 0 0 0 0 0 0 0 0 
0 0 0 0 -1 0 0 0 0 
0 0 0 0 0 0 0 0 0 
0 0 0 0 0 0 0 0 0 
0 0 0 0 0 0 0 0 0 
0 0 0 0 0 0 0 0 0 
0 -1 0 0 0 0 0 0 0 
0 0 0 0 0 -1 0 0 0 
0 0 -1 0 0 -1 0 0 0 
0 0 0 0 0 -1 0 0 -1 
0 0 0 0 0 -1 0 0 -1 
0 0 0 0 0 0 0 0 0 
0 0 0 0 0 0 0 0 -1 
0 -1 0 
v 3 1000 double
-3.4170639561 -5.3728769729 -0.062562954244 -4.6588469326 1.1060871058 -0.22332358173 -0.20097170593 0.7276256587 1.464404889 
0.51317975296 8.2422956269 -0.7195103917 3.0786137289 8.3752733084 2.7304845972 -6.6934797195 -4.1783152655 3.0587996015 
-5.0494865636 6.3845666089 2.7512059168 -3.9526589966 -5.9202958445 -1.3778513867 -2.2803876023 0.45015200917 6.2833591013 
-2.8224674506 -7.1680638107 -5.9036990893 -5.3397466213 2.2588288976 -2.7319550378 2.5630973909 4.9966932431 -0.70128167346 
0.76347201382 -3.1301508045 -2.1973500993 3.4988539439 7.3387955268 0.0072351830418 0.96327379451 -2.8237816636 6.2229926066 
1.9639206634 -5.4355902464 -10.817784505 -3.2442459816 -5.0179779306 -0.7644447341 4.1384935504 4.4541696471 -5.1683549715 
-2.6114030944 -4.6680387693 -5.1326058847 -1.4077491868 2.2485989555 4.4046110141 -3.2113134207 2.5358120304 2.4460379439 
-1.9608282026 1.3258862758 -3.6227680105 -4.4061709806 1.1239788622 -2.3650935328 0.24359288107 -5.3681092852 -1.7215122168 
-4.1601464494 0.52607704938 -1.6655528067 3.6404554482 2.6839751195 -1.7174234953 -3.3902799059 -0.5683190009 -2.5666288291 
4.3532770915 2.0198743979 9.4891857337 0.8874543507 -3.9252588755 4.3826495841 1.351586833 -0.38038624859 -1.2588398832 
-2.9768215481 1.1904695956 -1.8545779151 5.9111736579 5.8496194269 1.5179298782 -8.9782285642 -0.81308683666 1.0369950264 
-2.2462185057 5.0861583153 -3.9202853188 0.49601183568 1.2707098307 -3.6474884054 -3.5233053806 -2.8633270665 -5.2694761785 
-4.7793397354 -4.0592614974 -3.9020840421 0.25465163727 -1.7457612796 0.80745742732 -1.5146367231 2.5226738898 -3.3729203269 
-2.7476344448 -0.42924411439 1.8522709627 2.1131472836 -0.89169712923 -0.63682836893 -6.6247749795 3.413023764 -5.9257802775 
-2.5971997122 1.5449405187 -0.75581502347 3.9280255657 -3.7563363919 -2.7736459933 0.22008283614 -3.8838436935 3.8358478247 
-0.76469362578 -1.0118577384 1.4353259267 -2.2188422961 2.5369304126 -2.7541570983 -3.3265550116 6.5850581157 -4.9867675659 
-2.2277350913 2.8377772671 0.88838709779 2.0554185567 -6.2259960394 4.5503691987 4.0434661711 0.20781729081 2.9072734925 
2.5881499217 3.3613453106 -3.0684929264 -2.9505846399 -2.8369819867 2.5568710285 -4.5173532203 -0.28719617159 0.21181595149 
3.1468994943 2.9737755512 1.510206986 3.3445622604 -2.0294754485 3.4736814417 -4.5553146338 -10.27264955 2.1960027438 
-4.7744965667 -0.047546515404 -2.8337631387 0.29330192363 3.7525344636 -4.1760789015 -2.9941305311 -6.3924620696 3.5238030865 
1.212832718 5.0231019722 -3.982334628 -0.77379640161 -13.294722739 -0.79944298395 3.2917893478 -7.4446482837 -2.6839954083 
0.54284011917 -3.2462480185 -1.4673353861 -10.864779615 3.0224299731 -2.7824710874 -1.4082411325 -8.0130404405 4.2639231403 
6.8835602976 -0.49034953477 -2.9169694394 -0.17906971835 2.0482130096 -1.9330973966 2.0360856028 6.3918110067 2.353167621 
-2.6586195438 -8.0230670843 10.963500991 -3.9563558258 -0.65556646791 -1.6977980156 1.4256123892 -7.9382281325 8.0472046563 
-1.5372963359 -4.266669123 10.693285405 -7.6049084335 -4.3899211666 -1.087951504 -1.6164940401 3.6681530793 -6.9810311784 
-0.77520987391 -0.47408457393 0.9031927804 -11.776619596 -0.75546480812 -2.2886597159 4.7127298388 -1.688961372 3.800888321 
2.1301077829 -4.173142868 8.408790163 -1.0977271787 -3.622002324 6.0533007065 -2.1998135163 -3.787190995 -0.92813746722 
-1.245995307 1.810067409 -4.7371044526 -1.1939937178 7.3615962089 3.3397716287 7.6740188588 1.8082342157 1.6880172836 
11.087573178 4.0146381146 1.0071799345 -2.2490208009 5.1389239412 2.6238276474 -3.1940721848 15.146308629 -1.7088578077 
17.3139716 0.9016400737 -3.1254972178 1.5581239136 -0.88708418293 0.75834682086 -1.6419343706 -2.1620331178 -12.827974653 
7.0280669167 7.4196071878 -4.1875873353 2.10889397 5.0988678208 6.5679523305 1.0471281085 -5.9331421621 9.0374904762 
12.009523613 5.4075990316 5.2507323054 -0.56079996114 2.9498352258 0.71534463146 -1.4510233114 -2.700563344 8.0609978433 
0.94040412615 -10.981349273 9.3453122932 -14.007324064 -7.5544452602 -4.6985814964 -4.6221265752 -2.5306587443 6.8006474903 
-9.1869070709 -1.8391959209 -0.18771031773 0.62243835549 -1.7451680578 -0.72258014037 9.0790306466 2.6003620642 6.1180321929 
7.1428942559 5.0473861308 6.1827988698 -7.0676228706 1.5670906138 -1.1971004353 -3.5872936155 0.46574373135 -0.98278070634 
1.3458234628 5.9825292621 -1.365733042 3.0481754606 1.4575086701 -9.5366914881 -6.735804374 -8.1511868734 4.4391257309 
3.6523156567 2.5783747697 -2.4884608554 8.8062998928 0.473592754 8.0231581204 -4.7632085466 -8.820298908 5.5591359053 
0.14844203848 -0.45491906349 6.5589491163 0.70369058826 -2.678539898 5.6620502504 7.6040370852 0.61041617304 -5.9929605906 
0.7213100584 3.9407158644 -1.8620493006 0.61273626387 2.6377206744 -7.5905269069 -2.9644630824 -0.54057864731 -3.0018414571 
-0.4805926098 7.479542961 0.61859167336 -4.6421953912 -6.3154671317 -5.5540329104 4.2141395136 4.5332187478 0.58779960956 
7.4199598268 3.6879221437 1.5924808589 9.2947865181 3.8156399695 6.0984319107 0.15829480884 6.0845670706 -2.8932621868 
4.8736370555 -0.43539589961 -8.3543440295 -2.4250414668 0.80601275712 21.203444842 -2.177429332 7.0514555624 1.8393690665 
-7.9641342536 -6.4462723104 -3.8521562385 3.1490189444 0.162259887 3.0657570953 3.5364843537 -9.1142158408 2.4552197317 
2.7016053922 1.5996821837 -1.0503393428 4.5729074432 2.0933918939 2.3793446162 4.6212370555 -3.6419538329 -1.2225595897 
-0.68046092509 0.83714756821 -1.7740263804 4.8011918831 0.88426905483 -0.67912562541 5.0357785265 4.4657539131 -0.00026609938084 
-1.7815642565 2.7634345209 -3.392180729 3.3180732249 -1.6923953756 -2.6327117864 5.5688013148 2.1936791846 -3.1388434677 
4.1210047772 2.16837967 -5.2983098315 7.7536376351 6.058491203 -0.86636276021 4.0900063249 -1.903247597 -9.429576276 
-5.31609558 -8.7846821024 -1.1671699797 -2.4620577487 3.2717794942 9.9276139052 -0.38515536239 -7.5817263565 2.7379888301 
1.2341084986 -2.5697785117 -3.3807776819 -2.6072859031 -4.9570577037 1.0452594997 -4.9223169728 6.346829134 5.0566355271 
-1.0577534895 -3.0252560965 -1.8757675059 3.4696351999 -1.3402010924 3.7698142026 -7.8022417309 -4.0845079646 -5.3524497772 
-9.672668938 -1.8931198756 1.317442928 1.8953706084 6.3874071338 1.6004869919 -4.2972166701 4.7065892243 -6.8356035612 
-4.728677642 6.0116537872 -4.6145251274 9.2119328721 -0.60954059023 3.5517407114 -0.19468094538 0.31841689985 0.533266708 
-2.9486565534 3.3499714623 -5.2489999983 -4.8557567115 4.197523219 -3.8689120586 2.8620170341 6.3540386075 -6.577053643 
-2.6034996414 -7.5023550846 -2.1761526095 -0.881942062 -2.809420848 -3.2332309596 14.02542281 2.1408995989 -3.8084364313 
-5.0505655486 2.2900360207 0.75298878152 -2.196577554 -6.4277393743 0.23134532118 2.7713577377 3.0487291629 -3.7353832512 
-1.0301586654 -0.21412112032 -0.5535600473 4.2794978601 3.2128631193 5.1902127397 7.9791424683 -1.8518092408 -2.4891960074 
7.0963938592 1.4400802615 3.94838129 -0.79325132453 2.3839704386 4.3162960441 4.6816580832 1.6509222695 -4.8752602823 
0.86719268507 2.608016101 1.264011096 0.41738859878 2.2490725432 -5.4594328437 -2.9425475234 3.6966866552 0.90475158293 
7.7573359053 0.73599920245 4.0250845675 -5.9345052348 1.1728552229 -4.314705058 -4.960799758 -2.0293728875 -3.9145185037 
-2.0738567893 0.79432463764 2.289089119 -1.0117697588 3.4080763064 -2.5951378458 0.14674205938 4.4754705253 2.9029035972 