# vtk DataFile Version 4.2
Generated by LIGGGHTS
ASCII
DATASET POLYDATA
POINTS 1000 float
1.54634 0.588175 0.623869 2.56564 0.564243 0.190271 4.5668 0.228272 0.353675 
0.0126561 1.7759 0.455017 1.48016 1.56982 0.297163 2.46797 1.86142 0.101778 
3.4679 1.84626 0.0997123 4.68981 1.22857 0.369292 3.99579 2.73853 0.288073 
0.806713 3.18172 0.470351 1.99961 3.20789 0.546589 3.40387 3.54636 0.130098 
1.05765 4.26608 0.292098 2.90958 4.5178 0.156022 4.20296 4.5817 0.237362 
0.196753 0.438068 0.943767 2.39306 0.463038 1.17052 0.883701 1.15876 1.22214 
3.14306 1.15076 0.759247 4.01034 0.726453 1.02044 1.88365 1.44922 1.22656 
0.856015 2.21043 0.771478 2.63474 2.17413 1.03696 4.41449 2.04457 0.877703 
0.264358 3.39783 1.32802 3.08751 3.24241 1.17678 4.69473 3.3263 0.752973 
0.525333 4.3747 1.13187 2.05581 4.23805 0.830006 3.08843 4.34519 1.28563 
1.0752 0.153253 1.43076 3.28069 0.419364 1.63429 4.68037 0.0362575 1.34586 
4.84412 1.0965 1.82757 2.76444 1.27711 1.69249 1.05926 2.10886 1.76266 
3.53937 1.86793 1.33357 4.38874 2.1241 1.8795 4.00033 2.85233 1.2974 
1.5813 3.61513 1.46013 4.24095 3.58156 1.9385 4.98046 4.33998 1.74766 
1.49134 4.95362 1.93243 3.9492 4.53039 1.81699 0.0557062 0.15821 2.06331 
0.925193 0.588645 2.32031 1.92736 0.00888949 2.03509 4.52923 0.276125 2.30909 
1.85471 1.00934 2.12437 2.71355 0.637146 2.4763 3.86014 1.16831 1.99496 
0.0933886 1.93656 2.43874 1.97041 2.04914 2.23301 3.03456 2.17091 2.22827 
1.80743 3.03387 2.50337 3.5282 3.07304 2.48797 0.876732 3.14498 2.08248 
1.02278 4.12262 2.23526 2.26989 4.27994 2.14185 3.21115 4.01138 2.34696 
0.371807 0.0960652 3.01218 1.44933 0.553225 3.17598 3.54113 0.115372 2.80192 
1.13176 1.43567 2.82145 2.51882 1.53922 2.89781 3.47629 1.25102 2.91942 
4.5626 1.42237 2.73382 1.02996 2.43447 2.77108 1.92431 2.37142 3.24584 
4.02185 2.26111 2.79998 2.90681 2.58211 3.1336 4.69517 3.03387 2.80656 
0.728947 3.95459 3.17651 1.7222 4.27403 3.07153 2.71095 4.29845 3.26556 
4.20321 3.89765 2.93596 0.0623903 4.80829 2.75603 3.58385 4.86631 2.70866 
0.52827 0.558401 3.88566 3.3609 -0.00370098 3.78867 2.40499 0.649783 3.45595 
3.18876 1.08866 3.90627 4.20626 0.712321 3.45507 1.53451 1.37535 3.73885 
2.43781 1.78253 3.87393 0.0238768 1.91894 3.73916 0.992064 2.21511 3.76202 
3.53892 1.98444 3.63191 0.2846 2.83009 3.41376 0.857929 3.39592 4.0063 
1.69385 3.35252 3.45915 3.33075 3.42856 3.45598 3.67006 4.3978 3.98464 
4.32402 4.87656 3.38614 1.46601 0.554393 4.30849 2.4279 0.775048 4.47648 
4.7059 0.608001 4.31613 0.535863 1.34226 4.51061 4.27719 1.52399 4.13296 
1.67746 2.40751 4.46628 0.17942 2.88313 4.53977 2.46834 2.88885 4.07723 
3.37359 2.70624 4.47537 4.35511 2.52289 4.41782 1.65174 3.38647 4.66864 
3.29709 3.69466 4.61061 4.12499 3.44561 4.07386 1.48097 4.17585 4.06693 
2.43714 3.88879 4.13783 4.75896 4.30095 4.07874 0.504681 4.43153 4.03535 
0.135938 0.488387 4.86072 1.05591 0.573359 5.27683 2.13002 0.0617019 5.12378 
3.74547 0.770685 4.67478 1.50397 1.45639 4.73895 3.43846 1.72194 4.64484 
4.53997 1.21714 5.09259 0.597366 2.14555 5.10381 2.54386 2.11588 4.94594 
4.37636 3.16724 5.28048 0.611884 3.86643 4.85369 1.85563 4.31528 4.98356 
4.19259 4.06097 4.86724 0.0555383 4.73725 4.88944 1.07006 4.88871 4.74806 
3.36849 4.63406 4.97044 2.73518 0.24552 5.89864 3.90105 0.437488 5.60471 
2.22446 1.20468 5.38515 3.21436 1.1595 5.51987 4.82715 0.687878 5.91473 
0.129466 1.30328 5.4403 1.27928 1.40868 5.78357 1.5179 2.3235 5.4518 
4.27864 2.15007 5.34422 2.56261 2.6816 5.80309 1.75809 3.3425 5.66506 
3.35108 3.24068 5.5 1.04162 4.11467 5.72185 2.46921 4.05039 5.72749 
1.62491 4.87148 6.01687 3.41541 4.68104 5.98844 0.0613689 0.620129 6.17206 
1.77655 0.534574 5.97731 2.23718 1.4231 6.36863 3.18454 1.70891 6.58127 
4.03073 1.30908 6.07771 0.474512 1.98398 6.08657 4.20179 2.25465 6.35481 
1.44637 2.72146 6.3897 0.671333 3.23083 6.01522 2.90515 3.55633 6.47977 
3.98717 3.23101 6.32641 0.498874 4.04914 6.68618 1.44834 3.74659 6.55821 
4.38876 4.33306 6.16489 0.37816 4.89918 6.15806 1.65331 0.204281 7.08466 
0.784485 0.896865 6.80517 2.50133 0.819107 7.19912 3.48311 0.795118 6.85762 
4.66923 0.681628 6.9022 1.2369 1.79499 6.70549 4.15094 1.52458 7.04695 
0.383075 2.86883 7.02347 1.93417 2.56339 7.24824 2.8333 2.61633 6.81333 
4.93083 3.143 7.19547 2.26313 4.30884 6.70973 3.46122 4.33007 6.92376 
4.37873 3.97231 7.09749 1.05246 4.90905 6.8969 4.81001 4.92146 7.06881 
0.658587 0.107068 7.42527 4.10837 0.49819 7.71394 1.59046 1.17661 7.40734 
0.146073 1.58378 7.65439 2.39533 1.73628 7.60556 4.76175 1.23262 7.92685 
0.989092 2.19685 7.59795 3.40995 2.01211 7.50879 4.62969 2.24438 7.54986 
2.85161 2.72333 7.93595 3.94258 3.01486 7.31506 1.20557 3.28076 7.42042 
3.10113 3.56689 7.46034 0.882655 4.22093 7.60453 2.50299 4.33644 7.6857 
4.99054 3.96956 7.88847 4.23155 4.62492 7.85414 1.84935 0.38692 8.04965 
2.83404 0.301068 8.20169 3.94057 -0.0016397 8.58544 0.806876 0.927502 8.02159 
1.98875 1.30669 8.42141 3.03553 1.28031 8.22405 3.94911 1.67935 8.30441 
0.0267119 2.41416 8.53649 1.35423 2.30304 8.5258 1.88259 3.04945 8.12066 
4.08163 2.72035 8.26253 0.36099 3.5419 8.35121 1.21625 3.98225 8.64167 
2.2242 3.99844 8.58572 3.36466 4.3134 8.26323 4.29014 3.95164 8.602 
0.486966 4.64071 8.42827 1.60639 4.74511 8.07912 0.00939988 0.301235 9.23113 
1.50512 0.52077 8.97936 3.18872 0.556789 9.15344 0.44004 1.16303 8.93992 
4.2995 0.8947 8.84598 2.88817 1.51084 9.19196 4.97874 1.62901 8.81967 
2.3738 2.20249 8.64336 3.34722 2.33616 8.85232 0.659644 3.04306 9.18939 
2.28986 3.11389 9.04875 4.13716 2.96867 9.2333 3.28809 3.31655 8.62549 
3.49201 4.07713 9.28123 2.77299 4.72248 9.00422 4.73231 4.85799 8.96169 
1.80806 0.00429512 9.85445 4.73846 0.0196325 9.39042 0.963583 0.755097 9.78951 
2.02062 1.14282 9.56904 3.78971 0.745333 9.94594 4.05598 1.7544 9.29613 
0.336793 2.01473 9.45601 1.4725 2.19319 9.51275 4.97589 2.36635 9.50644 
2.8014 2.76563 9.83467 1.62028 3.64713 9.71808 0.514251 4.03313 9.48318 
4.50251 3.88182 9.57756 0.114258 4.99224 9.41888 1.8752 4.75981 9.99475 
0.182771 5.26623 0.537552 1.27369 6.13256 0.298096 3.88724 5.58478 0.159683 
2.26073 6.30279 0.385058 3.24374 6.2278 0.580961 4.75596 6.23598 0.327478 
0.808484 7.00795 0.443581 3.50438 7.11875 0.202796 2.78508 7.79446 0.399409 
3.96772 7.93525 0.577979 0.560167 8.81508 0.321317 2.30767 8.91825 0.438653 
4.3482 8.94603 0.31382 0.862317 9.76145 0.197539 3.69523 9.77785 0.610542 
1.16951 5.11686 0.946144 1.98906 5.56191 1.30893 2.76185 5.34484 0.710404 
3.73235 5.05189 0.99173 0.658587 5.96758 1.06969 0.182649 6.81654 1.30209 
4.54411 6.22216 1.30489 1.78879 7.05807 0.851861 2.75823 6.99834 1.11728 
4.68878 7.1523 0.964971 0.292308 7.76278 0.876994 2.30292 8.08462 1.24538 
1.48394 8.45724 0.775408 3.51718 8.79465 0.852545 4.51535 9.02265 1.3158 
0.415699 9.45343 1.08661 1.59218 9.47674 0.876524 2.76769 9.51292 1.14209 
0.46585 5.07224 1.87653 3.57907 5.5668 1.83989 4.60855 5.24838 1.52558 
1.36058 6.4896 1.55433 2.41655 6.30013 1.83198 3.63142 6.61472 1.41832 
1.15066 7.4721 1.51336 2.2909 7.34988 1.94362 4.19886 7.23706 1.95749 
3.42161 7.7013 1.3829 4.51015 8.02663 1.41653 0.52498 8.53429 1.47182 
1.4738 8.38238 1.77266 3.12363 8.585 1.74966 3.6767 9.46602 1.63656 
2.75184 5.15417 2.22875 4.42767 5.37268 2.5235 0.552333 6.05169 2.06109 
1.65112 5.92119 2.3706 3.17756 6.75455 2.29912 4.11986 6.29013 2.26934 
0.441579 7.11422 2.22097 1.40646 6.92175 2.45493 0.740342 8.05847 2.37246 
3.28235 7.75318 2.37604 4.04627 8.53167 2.14441 0.599344 9.31566 2.0915 
2.2528 8.89908 2.12791 2.8709 9.68576 2.1897 0.925657 5.32956 2.72658 
2.03983 5.21764 2.97642 0.110986 5.69794 3.32345 3.19209 5.77186 2.88095 
0.843837 6.29096 2.98986 2.29845 6.47136 2.90412 4.45911 6.50196 3.1872 
0.765674 7.28002 3.15293 3.16848 7.14103 3.22345 4.0753 7.44231 2.92838 
1.89855 7.53179 3.07823 0.0465666 8.76017 2.71445 1.1645 8.18992 3.26937 
2.62526 8.23897 2.96135 4.42247 8.36807 3.0861 1.85666 8.87629 3.04608 
3.32362 8.91317 2.721 1.25504 9.66317 2.7625 2.23992 9.79611 2.96197 
4.24854 9.36125 2.71446 1.19764 5.03666 3.64326 2.5039 5.81578 3.63077 
4.55558 5.74242 3.83055 0.21799 6.6543 3.70905 1.41701 6.64098 3.73085 
3.4739 6.239 3.73716 2.3647 6.95512 3.78875 3.99732 7.08167 3.86532 
2.26508 8.0181 3.87379 3.50565 8.09842 3.42405 4.55183 7.91264 3.96978 
0.398062 9.14262 3.57852 2.76101 8.98168 3.64079 3.85917 9.02387 3.58902 
1.14893 9.78013 3.75331 4.74323 9.81943 3.45434 0.0824173 5.55368 4.31258 
2.09318 5.01903 4.08817 3.07636 5.18212 4.17235 4.01819 5.23696 4.50717 
1.03253 5.8479 4.2042 2.00104 6.04288 4.4666 0.80564 6.82803 4.49989 
2.93837 6.56907 4.54086 4.79888 6.50551 4.46708 0.397898 7.65587 4.11308 
1.39434 7.5714 4.10218 3.10311 7.51946 4.15803 0.935884 8.50884 4.1895 
2.46 8.63717 4.6359 3.74453 8.21529 4.48148 1.77142 9.03515 4.02968 
3.35047 9.14728 4.44108 4.90175 8.9063 4.01039 2.41279 9.81344 4.08513 
4.07465 9.83933 4.51881 1.59233 5.61809 5.28668 2.48092 5.09813 5.00695 
3.34287 5.60312 5.25633 4.81191 5.64551 4.97771 3.87742 6.32144 4.80926 
1.68731 6.93426 4.96244 3.32658 7.31159 5.11854 4.2753 7.29075 4.80298 
0.352453 8.0272 5.27046 1.35874 8.05736 4.97619 2.36162 7.67238 4.93929 
4.71059 8.07719 5.24122 0.758544 8.93629 5.17589 4.32764 8.9311 4.86599 
1.31616 9.63567 4.72861 3.11797 9.94732 4.99421 0.578779 5.49162 5.37764 
2.38701 5.51062 5.91324 4.19643 5.02937 5.46948 4.79488 5.76031 5.97587 
0.790177 6.47261 5.43469 1.5855 6.31087 6.02587 2.38916 6.3321 5.34301 
3.82228 6.29351 5.87668 4.68758 6.61504 5.45735 1.03318 7.41376 5.67147 
2.8781 6.96545 5.94286 4.464 7.44277 5.97388 1.98072 7.50381 5.97895 
2.86015 7.97106 5.88644 2.01832 8.45962 5.61219 3.74708 8.21095 5.48599 
1.58428 9.38575 5.6808 2.91369 8.88811 5.49101 0.374306 9.85913 5.60047 
3.66025 9.48414 5.78678 4.57121 9.71241 5.44115 4.07918 5.29781 6.49938 
0.0862264 6.18471 6.09226 0.891934 5.85233 6.58256 3.19372 5.75979 6.4491 
0.74394 6.84972 6.45934 2.39952 6.34558 6.61127 4.41159 6.48897 6.66957 
[...]
POINT_DATA 1000
FIELD FieldData 7
id 1 1000 int
24 25 809 7 909 874 450 45 300 
531 20 892 605 601 129 26 62 541 
32 69 626 501 130 939 610 142 990 
111 109 521 561 48 52 568 36 504 
288 927 759 600 175 650 365 624 71 
551 49 574 37 588 43 17 418 404 
255 762 526 841 272 872 644 562 59 
30 70 61 591 508 283 776 263 674 
767 358 752 419 356 659 545 75 663 
87 581 566 589 302 42 50 765 744 
269 766 749 681 197 74 377 570 235 
294 755 84 79 592 276 783 408 769 
286 207 866 670 78 82 598 583 105 
846 68 584 698 764 814 215 813 281 
669 357 851 608 114 838 707 104 578 
515 110 296 571 285 322 816 284 699 
833 554 546 268 202 12 97 278 577 
510 797 580 214 307 123 576 279 782 
868 512 277 72 128 594 558 702 630 
28 323 703 208 47 557 715 543 867 
506 44 274 27 532 602 529 567 742 
658 511 13 552 15 528 540 556 559 
236 505 11 393 120 121 596 503 139 
590 125 724 544 170 735 747 539 280 
542 162 604 21 424 148 612 634 729 
63 993 31 67 535 53 514 547 656 
922 603 599 134 579 117 88 81 234 
77 635 855 593 696 718 839 243 548 
362 5 58 73 597 242 147 115 845 
370 716 625 963 137 22 133 150 654 
640 534 80 849 646 631 240 138 144 
884 174 633 140 750 3 29 560 538 
899 651 378 717 141 8 108 160 173 
638 502 167 661 51 380 979 369 154 
375 639 629 648 149 402 636 905 682 
662 35 684 187 169 188 46 261 415 
623 254 384 647 171 157 180 172 275 
163 192 301 673 349 781 262 177 193 
788 791 917 190 39 426 920 155 199 
676 565 182 342 40 582 354 902 292 
664 410 652 945 660 446 186 198 637 
795 178 291 195 840 406 789 164 159 
919 321 297 153 161 470 675 456 948 
474 181 830 685 347 678 858 836 680 
453 314 211 933 317 916 935 800 701 
335 666 856 329 85 330 573 737 940 
807 91 709 196 857 334 689 686 200 
126 822 463 10 332 66 736 831 219 
938 837 971 458 954 203 870 363 372 
256 988 337 628 103 976 691 206 972 
563 224 996 315 688 961 969 863 708 
722 223 107 229 585 999 225 820 471 
303 210 713 994 875 246 507 555 745 
86 586 152 100 237 238 99 714 491 
694 727 997 231 18 477 861 479 33 
533 486 328 391 132 523 9 92 879 
252 509 924 399 616 683 116 668 995 
136 146 981 522 490 873 860 1 439 
655 420 847 364 653 854 484 14 405 
2 101 524 41 575 881 843 60 519 
194 469 289 316 368 96 889 385 518 
102 896 264 692 311 891 449 815 768 
251 620 615 862 83 413 386 23 929 
777 345 758 970 423 431 290 657 811 
812 748 928 257 89 952 295 904 757 
719 763 801 774 468 310 165 304 253 
877 796 798 780 790 832 258 228 834 
775 536 712 802 56 425 452 324 461 
778 333 427 806 779 677 94 818 819 
808 695 743 306 478 476 318 184 443 
320 65 665 113 352 55 106 553 340 
325 351 738 489 985 829 428 312 462 
305 848 355 308 220 361 359 564 4 
1000 247 343 6 442 967 667 338 499 
209 706 191 230 326 549 859 826 810 
38 595 371 346 473 957 700 690 710 
488 704 241 587 217 513 64 373 57 
287 880 741 212 496 222 221 733 201 
482 725 54 244 205 95 900 989 216 
270 118 527 168 825 227 245 895 726 
271 982 641 122 119 226 642 672 213 
720 379 487 732 746 721 530 112 572 
248 607 980 606 156 124 643 127 869 
299 516 619 466 956 350 480 493 968 
341 233 977 730 520 723 761 852 392 
918 617 613 794 76 740 890 494 498 
475 844 853 611 975 614 366 367 145 
267 492 166 249 517 885 401 973 396 
495 912 817 986 621 383 786 842 395 
728 232 983 260 609 485 265 865 773 
376 569 282 387 293 753 886 143 437 
360 731 754 771 987 897 770 273 250 
400 394 756 16 34 645 151 259 894 
984 882 381 390 432 500 382 871 921 
878 901 784 903 914 403 907 398 793 
389 772 876 887 898 893 397 185 298 
353 785 417 436 649 923 942 430 422 
411 883 414 313 751 906 412 908 888 
438 433 457 189 319 951 679 992 409 
309 435 925 388 787 407 416 910 926 
429 937 934 792 448 331 835 440 459 
915 799 434 943 803 950 941 821 913 
739 447 467 978 348 965 421 946 944 
455 460 931 204 183 441 827 949 176 
179 671 451 483 550 336 947 497 454 
964 444 697 959 693 218 537 711 936 
974 850 960 930 824 958 864 804 481 
98 998 687 705 622 911 618 627 158 
266 90 805 465 472 932 823 953 339 
464 374 966 344 734 632 19 135 131 
525 760 955 93 962 445 327 828 239 
991 
type 1 1000 int
1 1 2 1 2 2 1 1 1 
2 1 2 2 2 1 1 1 2 
1 1 2 2 1 2 2 1 2 
1 1 2 2 1 1 2 1 2 
1 2 2 2 1 2 1 2 1 
2 1 2 1 2 1 1 1 1 
1 2 2 2 1 2 2 2 1 
1 1 1 2 2 1 2 1 2 
2 1 2 1 1 2 2 1 2 
1 2 2 2 1 1 1 2 2 
1 2 2 2 1 1 1 2 1 
1 2 1 1 2 1 2 1 2 
1 1 2 2 1 1 2 2 1 
2 1 2 2 2 2 1 2 1 
2 1 2 2 1 2 2 1 2 
2 1 1 2 1 1 2 1 2 
2 2 2 1 1 1 1 1 2 
2 2 2 1 1 1 2 1 2 
2 2 1 1 1 2 2 2 2 
1 1 2 1 1 2 2 2 2 
2 1 1 1 2 2 2 2 2 
2 2 1 2 1 2 2 2 2 
1 2 1 1 1 1 2 2 1 
2 1 2 2 1 2 2 2 1 
2 1 2 1 1 1 2 2 2 
1 2 1 1 2 1 2 2 2 
2 2 2 1 2 1 1 1 1 
1 2 2 2 2 2 2 1 2 
1 1 1 1 2 1 1 1 2 
1 2 2 2 1 1 1 1 2 
2 2 1 2 2 2 1 1 1 
2 1 2 1 2 1 1 2 2 
2 2 1 2 1 1 1 1 1 
2 2 1 2 1 1 2 1 1 
1 2 2 2 1 1 2 2 2 
2 1 2 1 1 1 1 1 1 
2 1 1 2 1 1 1 1 1 
1 1 1 2 1 2 1 1 1 
2 2 2 1 1 1 2 1 1 
2 2 1 1 1 2 1 2 1 
2 1 2 2 2 1 1 1 2 
2 1 1 1 2 1 2 1 1 
2 1 1 1 1 1 2 1 2 
1 1 2 2 1 2 2 2 2 
1 1 1 2 1 2 2 2 2 
1 2 2 1 1 1 2 2 2 
2 1 2 1 2 1 2 2 1 
1 2 1 1 1 1 2 2 1 
2 2 2 1 2 1 2 1 1 
1 2 1 2 1 2 2 1 2 
2 1 2 1 2 2 2 2 2 
2 1 1 1 2 2 1 2 1 
1 1 2 2 2 1 2 2 2 
1 2 1 1 1 1 1 2 1 
2 2 2 1 1 1 2 1 1 
2 1 1 1 1 2 1 1 2 
1 2 2 1 2 2 1 2 2 
1 1 2 2 1 2 2 1 1 
2 1 2 1 2 2 1 1 1 
1 1 2 1 2 2 2 1 2 
1 1 1 1 1 1 2 1 2 
1 2 1 2 1 2 1 2 2 
1 2 2 2 1 1 1 1 2 
2 1 2 2 1 1 1 2 2 
2 2 2 1 1 2 1 2 2 
2 2 2 2 1 1 1 1 1 
2 2 2 2 2 2 1 1 2 
2 2 2 2 1 1 1 1 1 
2 1 1 2 2 2 1 2 2 
2 2 2 1 1 1 1 1 1 
1 1 2 1 1 1 1 2 1 
1 1 2 1 2 2 1 1 1 
1 2 1 1 1 1 1 2 1 
2 1 1 1 1 2 2 1 1 
1 2 1 1 1 2 2 2 2 
1 2 1 1 1 2 2 2 2 
1 2 1 2 1 2 1 1 1 
1 2 2 1 1 1 1 2 1 
1 2 1 1 1 1 2 2 1 
1 1 2 1 2 1 1 2 2 
1 2 2 1 1 1 2 2 1 
2 1 1 2 2 2 2 1 2 
1 2 2 2 1 1 2 1 2 
1 2 2 1 2 1 1 1 2 
1 1 2 2 2 2 2 2 1 
2 2 2 2 1 2 2 1 1 
1 2 2 2 2 2 1 1 1 
1 1 1 1 2 2 1 2 1 
1 2 2 2 2 1 2 2 1 
2 1 2 1 2 1 1 2 2 
1 2 1 1 1 2 2 1 1 
1 2 2 2 2 2 2 1 1 
1 1 2 1 1 2 1 1 2 
2 2 1 1 1 1 1 2 2 
2 2 2 2 2 1 2 1 2 
1 2 2 2 2 2 1 1 1 
1 2 1 1 2 2 2 1 1 
1 2 1 1 2 2 1 2 2 
1 1 1 1 1 2 2 2 1 
1 1 2 1 2 1 1 2 2 
1 2 2 2 1 1 2 1 1 
2 2 1 2 2 2 2 2 2 
2 1 1 2 1 2 1 2 2 
1 1 2 1 1 1 2 2 1 
1 2 1 1 2 1 2 1 1 
2 1 2 2 2 1 2 2 2 
2 2 2 2 2 2 2 2 1 
1 2 2 2 2 2 2 2 1 
1 1 2 1 1 2 2 2 1 
1 1 2 1 2 2 1 1 1 
2 2 2 1 2 1 1 2 1 
2 
i 3 1000 int
0 0 0 0 0 0 0 0 0 
0 0 0 1 0 0 1 0 0 
1 0 0 0 0 0 1 0 0 
0 0 0 0 0 0 1 0 0 
0 0 1 0 0 1 0 0 0 
0 0 0 0 0 0 0 0 0 
0 0 0 0 0 0 0 0 0 
0 0 0 0 0 0 1 0 0 
0 0 1 0 0 0 1 0 1 
0 0 1 0 0 1 0 0 0 
0 0 0 0 0 0 0 0 0 
0 0 0 0 0 0 0 0 0 
1 0 0 1 0 0 1 0 0 
0 0 1 0 0 0 0 0 0 
1 0 1 0 0 0 0 0 0 
0 0 0 0 0 0 0 0 0 
0 0 0 0 0 0 0 0 0 
0 0 0 1 0 0 1 0 0 
1 0 0 1 0 0 0 0 0 
1 0 1 1 0 0 1 0 0 
0 1 0 0 0 0 0 0 0 
0 0 0 0 0 0 0 0 0 
0 0 0 0 0 0 1 0 0 
1 0 0 1 0 0 0 0 0 
1 0 0 1 0 1 1 0 0 
1 0 0 1 0 1 0 0 0 
0 0 0 0 0 0 0 1 0 
0 0 0 0 0 0 0 0 0 
0 0 0 1 0 0 0 0 0 
0 0 0 1 0 0 1 0 0 
1 0 0 1 0 0 1 0 0 
0 0 0 0 1 0 0 0 0 
0 0 0 0 0 0 0 0 0 
1 0 0 1 0 0 0 0 0 
0 0 0 0 0 0 1 0 0 
1 0 0 1 0 0 1 0 0 
1 0 0 0 0 0 1 0 1 
0 1 0 0 0 0 0 0 0 
0 0 0 0 0 0 0 0 0 
0 0 0 0 0 0 0 0 0 
0 0 0 1 0 0 1 0 0 
0 0 0 1 0 0 1 0 0 
0 0 0 0 0 0 0 0 0 
0 0 0 0 0 0 0 0 0 
0 1 0 0 0 0 0 0 0 
0 0 -1 0 0 0 1 0 0 
0 0 0 1 0 0 1 0 0 
1 0 0 1 0 0 0 1 0 
0 0 0 0 0 -1 0 0 -1 
0 0 -1 0 1 0 0 0 -1 
0 0 0 1 0 0 0 0 0 
0 0 -1 1 0 0 0 0 0 
0 0 0 1 0 0 0 0 0 
0 0 0 0 0 -1 0 0 -1 
0 0 0 0 0 -1 0 0 -1 
0 0 0 0 0 0 0 0 0 
0 0 -1 0 0 0 0 0 -1 
0 0 -1 1 0 0 0 0 0 
0 1 0 0 0 -1 0 0 -1 
0 1 0 0 0 -1 0 0 0 
0 0 -1 0 0 -1 0 0 -1 
0 0 -1 0 0 -1 0 0 0 
0 0 -1 0 0 0 0 0 0 
0 0 -1 0 0 -1 0 0 -1 
0 0 -1 0 0 -1 0 0 -1 
0 0 -1 0 0 -1 0 0 -1 
0 1 0 0 0 -1 0 0 -1 
1 0 -1 0 0 0 0 0 0 
0 0 0 0 0 -1 0 0 -1 
0 0 0 0 0 0 0 1 0 
0 0 -1 0 1 -1 0 1 0 
0 0 -1 0 0 -1 0 0 -1 
0 0 -1 0 0 -1 0 0 0 
0 0 -1 1 0 -1 0 0 -1 
0 0 -1 0 0 -1 0 0 0 
0 0 -1 0 1 0 0 0 -1 
0 0 -1 0 0 -1 0 0 -1 
0 0 -1 0 0 -1 0 0 -1 
1 0 -1 0 0 0 0 0 0 
0 0 -1 0 0 0 0 0 0 
0 0 1 0 0 1 0 0 1 
0 0 1 0 0 0 0 -1 1 
0 0 1 0 0 1 0 0 1 
0 -1 1 0 0 1 0 -1 0 
0 -1 1 0 -1 0 0 -1 0 
0 0 1 0 0 1 0 0 1 
0 0 0 0 0 1 1 0 1 
0 -1 1 0 0 1 0 0 0 
0 0 1 0 0 0 0 -1 0 
0 0 0 0 0 0 0 0 0 
0 0 0 0 -1 0 0 -1 0 
1 0 1 0 0 0 0 0 0 
0 0 1 0 0 0 0 0 0 
1 0 0 0 0 0 0 0 0 
0 0 0 0 -1 0 0 -1 0 
0 -1 0 0 -1 0 0 -1 0 
1 0 0 0 0 0 1 0 1 
0 0 1 0 0 0 0 -1 0 
0 0 1 0 0 0 0 0 0 
0 0 0 0 -1 0 0 0 0 
0 0 0 0 -1 0 1 0 1 
1 0 1 1 0 1 0 0 0 
1 0 1 0 0 0 0 0 0 
0 0 0 0 0 0 0 0 0 
0 0 0 1 0 0 0 0 0 
0 0 0 0 -1 0 0 0 0 
0 0 0 0 0 0 0 0 0 
0 -1 0 1 0 0 1 0 0 
0 0 0 1 0 0 1 0 0 
0 0 0 0 0 0 0 0 0 
0 0 0 0 0 0 0 -1 0 
0 0 0 0 0 0 0 -1 0 
0 0 0 0 -1 0 1 0 0 
1 0 0 0 0 0 0 0 0 
1 0 0 1 0 0 1 0 0 
0 0 0 0 -1 0 1 0 0 
1 0 0 0 0 0 0 0 0 
0 0 0 0 -1 0 0 0 0 
0 -1 0 0 -1 0 0 -1 0 
0 -1 0 1 0 0 1 0 0 
0 0 0 0 0 0 0 0 0 
1 0 0 0 0 0 0 0 0 
0 0 0 0 0 0 0 0 0 
0 -1 0 0 0 0 0 -1 0 
0 0 0 0 -1 0 1 0 0 
1 0 0 0 0 0 0 0 0 
1 0 0 1 0 0 1 0 0 
0 0 0 0 0 0 1 0 0 
0 0 0 0 0 0 1 0 0 
0 0 0 0 0 0 0 -1 0 
0 0 0 0 -1 0 0 0 0 
0 -1 0 0 -1 0 0 0 0 
1 0 0 1 0 0 0 0 0 
1 0 0 1 0 0 0 0 0 
0 0 0 1 0 0 0 0 0 
0 -1 0 0 0 0 0 -1 0 
0 -1 0 0 -1 0 0 -1 0 
0 0 0 0 0 0 0 0 0 
1 0 0 0 0 0 0 0 0 
0 0 0 0 -1 0 0 -1 0 
0 0 0 0 0 0 0 0 0 
0 -1 0 0 -1 0 0 0 0 
0 -1 -1 1 0 0 0 0 0 
0 0 0 1 0 0 0 0 0 
0 0 0 1 0 0 0 0 0 
0 0 0 0 0 0 0 0 0 
0 -1 0 0 -1 0 0 -1 0 
0 -1 -1 0 0 0 1 0 0 
0 0 -1 0 0 0 0 0 0 
0 0 0 0 0 0 0 0 0 
0 0 0 0 0 0 0 0 0 
1 0 0 0 0 0 0 0 0 
0 0 0 0 -1 0 0 0 0 
0 0 0 0 0 0 0 0 0 
0 0 0 0 0 0 0 0 0 
0 0 0 0 -1 0 0 0 0 
1 0 0 0 0 0 0 0 0 
0 0 0 0 0 -1 0 0 0 
0 -1 -1 0 -1 -1 0 -1 -1 
0 0 0 0 0 0 0 0 -1 
0 0 0 0 0 0 0 0 0 
0 0 0 0 0 0 0 0 0 
0 0 0 0 0 0 0 0 0 
0 0 0 0 -1 -1 0 0 0 
0 -1 0 0 0 0 0 -1 -1 
0 -1 -1 0 1 1 0 1 1 
0 1 0 -1 1 0 -1 0 0 
-1 0 0 0 0 0 0 1 0 
0 0 0 -1 0 0 1 0 0 
0 1 0 0 0 0 0 0 0 
-1 0 1 0 0 0 0 1 1 
-1 1 0 -1 1 0 0 1 1 
-1 0 0 0 1 1 0 1 0 
0 0 1 -1 0 0 0 0 0 
0 0 0 0 0 0 0 0 1 
0 0 1 0 0 0 0 0 1 
0 1 1 -1 0 0 0 1 0 
-1 0 0 0 0 0 0 0 0 
-1 0 0 0 0 0 0 1 0 
0 0 1 0 0 0 -1 0 0 
0 0 0 0 0 0 0 0 0 
0 0 0 0 0 1 0 0 0 
0 1 0 0 1 0 -1 0 0 
0 0 0 0 1 0 0 0 0 
0 0 0 0 0 0 0 1 0 
0 0 0 0 0 0 0 0 0 
0 0 0 0 0 0 0 0 0 
0 0 1 0 0 0 0 1 0 
0 1 0 -1 0 0 0 0 0 
0 0 0 0 0 0 0 0 0 
0 0 0 0 0 0 0 0 0 
0 0 0 0 0 0 0 0 0 
0 0 0 0 0 0 0 1 0 
0 0 0 0 0 0 0 0 0 
0 0 0 0 1 0 0 0 0 
0 0 0 0 0 0 0 0 0 
0 0 0 0 0 0 0 0 0 
0 0 0 0 0 0 0 0 0 
0 0 0 0 0 0 0 0 0 
0 0 0 0 0 0 0 0 0 
0 0 0 0 0 0 0 0 0 
0 0 0 -1 0 0 0 0 0 
0 0 0 0 0 0 0 0 0 
0 0 0 0 0 0 0 0 0 
0 0 0 0 0 0 0 1 0 
0 0 0 0 0 0 -1 1 0 
0 0 0 0 0 0 0 0 0 
0 0 0 0 0 0 0 0 0 
0 0 0 0 0 0 0 0 0 
0 0 0 0 0 0 0 0 0 
0 0 0 -1 0 0 -1 1 0 
0 0 0 0 0 0 -1 0 0 
0 0 0 -1 0 0 0 0 0 
0 0 0 0 0 0 0 0 0 
0 0 0 0 0 0 0 0 0 
0 0 0 0 0 0 0 1 0 
0 0 0 0 0 0 0 0 0 
0 0 0 -1 1 0 0 0 0 
0 0 0 -1 0 0 0 0 -1 
0 0 0 0 0 0 0 0 0 
0 0 -1 0 0 0 0 0 0 
-1 1 0 0 0 0 0 1 0 
-1 1 0 -1 1 0 -1 1 0 
-1 1 0 0 0 0 -1 0 0 
0 0 0 0 0 0 0 0 0 
0 0 -1 0 0 0 0 0 0 
0 0 0 0 1 0 0 1 0 
-1 1 0 -1 1 0 -1 1 0 
0 1 0 -1 1 0 -1 1 0 
-1 0 0 -1 1 0 0 0 -1 
-1 0 0 0 0 0 -1 0 0 
0 0 -1 0 1 -1 -1 1 0 
-1 1 0 0 1 0 -1 1 0 
-1 1 0 -1 1 0 -1 1 0 
0 1 0 -1 1 0 0 0 -1 
-1 1 0 -1 1 0 -1 0 0 
0 0 -1 0 1 0 -1 1 0 
0 0 -1 -1 0 0 0 0 -1 
0 0 -1 0 0 0 -1 1 0 
-1 1 0 0 1 -1 -1 1 0 
0 0 -1 0 1 0 0 0 -1 
-1 0 0 -1 0 0 -1 1 0 
0 0 -1 0 0 -1 -1 1 0 
-1 1 0 0 1 0 0 1 0 
-1 1 0 0 0 -1 -1 1 0 
-1 0 -1 -1 0 0 0 0 -1 
-1 1 0 -1 0 0 0 1 0 
-1 0 0 0 0 -1 -1 0 0 
0 0 -1 -1 0 0 0 0 1 
0 0 0 0 0 0 0 0 0 
0 0 1 0 0 1 0 0 1 
0 0 1 0 0 1 0 0 1 
0 0 1 -1 0 1 0 0 1 
-1 0 1 -1 -1 0 0 0 1 
0 0 0 0 0 1 0 0 0 
0 0 0 0 0 0 0 0 0 
0 0 0 -1 0 1 0 0 1 
0 0 0 0 0 1 0 0 1 
0 0 1 0 0 1 0 0 1 
-1 0 0 0 0 1 0 0 0 
0 0 1 0 0 1 0 0 0 
0 0 0 0 0 1 0 0 0 
0 0 0 0 0 0 0 0 0 
0 0 0 0 0 1 0 0 0 
0 0 1 0 0 0 0 -1 0 
0 0 1 -1 0 0 0 0 0 
0 0 0 0 0 1 0 0 0 
0 0 1 0 0 1 0 0 1 
0 0 0 0 0 1 0 0 1 
0 0 0 0 0 1 0 -1 0 
0 0 1 0 -1 0 0 0 0 
0 0 0 0 0 0 0 0 0 
0 0 0 0 0 0 0 0 0 
0 0 1 0 0 1 0 0 0 
0 0 0 0 0 1 0 0 0 
0 0 0 0 0 0 0 -1 0 
0 0 0 0 0 0 0 -1 0 
-1 -1 0 -1 -1 0 0 0 0 
0 0 0 0 0 0 0 0 0 
0 0 1 0 0 0 0 0 0 
0 0 0 0 0 0 0 0 1 
0 0 0 0 0 0 0 0 0 
0 0 0 0 0 0 0 -1 0 
0 0 0 0 0 0 0 0 0 
0 0 0 0 0 0 0 0 0 
0 0 0 0 0 0 0 0 0 
0 0 0 0 0 0 0 0 0 
0 0 0 -1 0 0 0 -1 0 
0 -1 0 0 -1 0 0 0 0 
0 0 0 -1 0 0 0 0 0 
0 0 0 0 0 0 0 0 0 
0 0 0 0 0 0 0 0 0 
0 0 0 0 -1 0 0 0 0 
0 0 0 0 0 0 0 0 0 
0 0 0 0 0 0 0 0 0 
-1 0 0 0 -1 0 0 0 0 
-1 0 0 0 0 0 0 0 0 
0 0 0 0 0 0 0 0 0 
0 0 0 0 -1 0 0 0 0 
0 0 0 0 0 0 0 0 0 
0 0 0 0 0 0 0 0 0 
0 -1 0 0 0 0 0 -1 0 
0 0 0 0 0 0 0 0 0 
0 0 0 0 0 0 0 0 0 
0 0 0 0 -1 0 0 0 0 
0 0 0 0 -1 0 0 0 0 
0 0 0 0 0 0 0 0 0 
0 0 0 0 0 0 0 0 0 
0 0 0 0 0 0 0 0 0 
0 0 0 0 0 0 0 0 0 
-1 0 0 -1 0 0 0 0 0 
0 -1 0 0 0 0 -1 0 0 
-1 0 0 -1 0 0 0 0 0 
0 0 0 0 0 -1 0 0 0 
0 0 0 0 0 0 0 0 0 
0 0 0 0 0 0 -1 0 0 
0 0 0 -1 0 0 -1 0 0 
0 0 -1 0 0 0 0 0 0 
0 0 0 0 0 0 0 0 0 
0 0 0 0 0 0 0 0 0 
0 0 0 0 0 0 0 0 0 
-1 0 0 0 0 0 -1 0 0 
-1 0 0 0 0 -1 0 0 -1 
0 0 -1 0 0 -1 0 0 -1 
0 0 -1 -1 0 0 0 0 0 
0 0 0 0 0 0 0 0 0 
0 0 0 0 0 0 0 0 0 
0 0 0 0 0 0 0 0 0 
0 0 0 -1 0 0 0 0 -1 
0 0 -1 0 0 -1 0 0 -1 
0 0 -1 0 0 -1 0 0 0 
-1 0 0 0 0 0 0 0 0 
0 0 0 0 0 0 -1 0 0 
0 0 0 
v 3 1000 double
-0.046200623055 0.0025596899807 -0.056618942556 -0.032566556485 -0.013364423589 -0.086945513613 -0.032069189919 -0.061270287501 -0.04860145782 
-0.0055966488959 0.053438963028 0.003463719199 -0.044020000762 -0.0062982070183 -0.051839919356 -0.008496310062 0.0068619049812 -0.050809266706 
-0.022110192454 -0.0094215545468 -0.067812692495 -0.034422556467 -0.084919824317 -0.083549459328 0.070983243022 -0.025778085978 -0.10686707261 
0.00041909115302 0.065628074845 0.031626286589 0.04438625308 -0.016032829226 0.0052843838768 0.017995837689 -0.032762010395 -0.033993148782 
0.033704267156 0.036584326787 0.015892366738 0.062802890676 -0.086051084121 0.029284914063 0.041200902813 -0.096981535039 -0.028186023945 
-0.049427093068 0.049505901944 0.048771072828 -0.018967581482 -0.049331935931 -0.085861406165 0.0063452167763 0.070137035342 -0.047807457479 
-0.0085140229419 -0.039852490115 -0.092055711696 -0.023954223075 -0.062402122905 -0.054002719436 0.033170544063 -0.0034134042036 -0.086114907338 
0.011498174337 0.040303374936 -0.022418425878 0.061905655276 -0.010497458776 -0.05587345422 0.052074478701 -0.044694331111 -0.10079977002 
0.01875855853 0.081986726677 0.056878063937 0.050435160427 -0.085174361964 -0.044267753433 0.067536130262 -0.086701762585 -0.07593309701 
0.04882389156 0.033300908028 0.019945193599 0.042404481309 -0.0022746510552 0.05423605933 0.064062935299 -0.099550401291 -0.0053649281293 
-0.0065257936665 0.048275211861 -0.068853999382 -0.0059892777508 -0.081605585399 -0.11164811951 -0.044480865289 -0.037871402776 -0.020062556259 
-0.0029899216635 -0.11939922735 -0.10004473269 0.026582506918 -0.059391793576 -0.06889133409 0.0049372752955 -0.018043727125 -0.023967824192 
0.054315446324 -0.067612249856 -0.088639452339 0.029819277887 -0.10067551018 -0.082937510476 0.070144282728 -0.067843162741 -0.066808955465 
0.068354905938 -0.025449842529 0.059066559713 0.10422158481 -0.086434669203 -0.054911154015 0.071036431298 -0.055590622821 -0.036291490987 
0.08349017705 0.025672644181 0.070050033627 0.062731977377 -0.09981731315 -0.010507068055 -0.05125586864 0.018857052945 0.00010141224879 
-0.025881834987 0.0092876434761 -0.050246833349 -0.0044493631073 -0.01643043679 -0.079687635934 -0.018398317016 -0.071461102337 -0.0071689748065 
-0.010533189272 -0.014737437372 -0.09056555944 0.00088338799042 0.0045433636429 -0.093693134184 -0.0021235361928 -0.090636889662 -0.093742627453 
0.020119555372 0.03168757503 -0.0082121256054 0.042323044752 -0.007364442702 -0.071597670837 0.10406907567 -0.1253101403 -0.050894625963 
0.055278122473 0.01642081511 0.016353453035 0.055447170446 -0.080430140671 -0.064572977432 0.084735234333 0.027300580233 -0.0051302604942 
0.053381112084 0.027285234936 0.032405484804 0.053819976942 -0.068342430166 -0.0042172070665 0.054658997865 -0.071094261999 -0.011103110799 
0.01665951312 0.024974075941 -0.017150769563 -0.0032255995387 0.0097403933131 -0.051151149277 0.017891357363 -0.0161076272 -0.084814637751 
0.016261872277 0.0017196686236 -0.04642233732 0.024195203792 -0.022102893205 -0.065698558222 0.01994395728 -0.030427692885 -0.089224771588 
0.029477645718 -0.10034772988 -0.087787362621 0.038025560714 0.0085082509191 -0.011627297184 0.048850752483 -0.0099559230682 -0.024464926963 
0.060402193393 -0.080860914014 -0.072633966662 0.012825580364 -0.046710536248 -0.090725267508 0.026065645351 -0.056083868084 -0.091801741032 
0.05791361329 0.028583059443 0.033943906869 0.056408883469 0.0086548018761 0.026237394906 0.066278979878 0.02068622153 -0.0039789175433 
0.028624845034 -0.062512915414 -0.059930303079 0.045536920168 0.058951893123 0.030515206228 0.054090623039 -0.070532513596 -0.010744777635 
-0.011032379513 0.0084433819585 -0.0016371084783 -0.0049636545918 -0.080021086679 -0.104520263 0.00019313080588 -0.011769271709 -0.089513052607 
0.033730216983 -0.045243035289 -0.10559913013 -0.018231094666 -0.079048921816 -0.10022360628 0.04715105653 -0.0040756027054 -0.036670007762 
0.062884515359 -0.033786586977 -0.041109708314 -0.0001514476606 0.049847106487 0.0025008118318 0.035599346839 -0.011625146184 0.00055543660728 
0.016239991556 -0.029193608503 -0.077663296438 0.05458565848 0.011684174463 0.0012323893846 0.064142655183 -0.0081154923102 0.012435256347 
0.064826277327 0.0055200836592 0.013569059258 0.028756933844 -0.060133580718 -0.072057081217 0.087665033442 -0.069107089309 0.011880169287 
0.054712902386 -0.060615620166 -0.029115319285 0.020834959126 0.0030932210832 -0.018679463904 0.037358788535 0.00028379729153 -0.071459768492 
-0.015137870612 -0.085192981584 -0.1020037727 -0.036296336591 0.040670968628 -0.033782770149 -0.0067871130975 -0.062820253456 -0.076641023018 
0.041803558957 0.0022065614342 -0.020329641717 0.028421138939 0.024097272483 0.010754400919 0.034403557151 -0.017336367977 -0.090966038098 
0.020851204351 -0.068626809837 -0.07432630723 0.02036148526 -0.06667164325 -0.10034122465 0.051952371752 0.00055845341939 0.012086040022 
0.017648187707 -0.075474371195 -0.015114283654 0.017628287442 -0.042068686547 -0.058701528753 0.0393987788 0.0090577506807 0.0093753490317 
0.037825039126 -0.018149480951 -0.02751229823 0.075088704377 -0.024382576811 -0.010755016243 0.057301914957 0.03971016212 0.034800138407 
-0.035976148468 0.04567479393 -0.0054385787321 -0.0040410991071 0.0035348227309 -0.033817922042 -0.024164919446 0.02580307586 -0.09325492062 
0.00022697024534 -0.067334500952 -0.088112536366 -0.032084432387 0.025519104084 -0.054488173131 -0.031586901645 -0.078344356265 -0.10255864028 
0.012520933347 -0.074880419669 -0.10270993987 0.031042633759 0.0079457449142 0.0079804610354 0.062924945488 -0.049337788032 -0.059028573322 
0.040245799741 -0.081168825026 -0.086643051248 0.075578932927 0.014108566668 0.0036525608337 0.058762191071 0.0021126531354 0.0025942261621 
0.028616756693 -0.067684053378 -0.056926061334 0.063030766767 0.006104716407 0.048930646195 0.052050455754 0.0055843545756 0.028353655081 
0.020494665374 -0.070781966655 -0.0084480722876 -0.062321232153 -0.036225820417 -0.047436368436 -0.04429680544 -0.036780820893 -0.086434341221 
-0.045162680364 -0.03392041716 -0.060865890515 -0.0379630555 -0.029874664725 -0.096182054316 -0.037295216461 -0.046229128003 -0.098307936788 
-0.032298097415 0.035408364789 0.0094648176571 -0.043882968887 0.01886384877 -0.04080130004 0.041958936203 0.0025675581185 -0.017135692562 
0.010430044953 -0.074495841092 -0.10382873626 -0.0032963160561 -0.039472966278 -0.047253690491 0.05896842251 0.026487946936 0.016918608705 
0.034588094448 -0.081584964464 -0.019411444196 0.042894045476 0.016552453476 0.018489142349 0.097958529495 0.018577034341 -0.023296188055 
0.040507149043 0.0062494338752 0.052113412961 -0.0097188741823 -0.049006333452 -0.0094949283127 -0.049039550604 0.018744459784 0.0049136924108 
-0.053496524337 -0.019240456437 -0.044615470991 -0.088447237623 0.020640826207 -0.05476985514 -0.046361826724 -0.037272604607 -0.11736315895 
-0.038992951583 -0.023139488601 -0.10826340391 -0.020518119994 0.061775743508 -0.029033452738 -0.052063171088 -0.023430658044 -0.094120459676 