# vtk DataFile Version 4.2
Generated by LIGGGHTS
ASCII
DATASET POLYDATA
POINTS 1000 float
1.23867 0.413689 0.236731 3.23886 0.427678 0.655915 4.69972 0.264216 0.0433129 
0.0980017 0.69739 0.0694307 2.24007 0.65625 0.479516 1.77186 1.5853 0.593849 
2.59404 1.62023 0.017017 4.73184 1.55248 0.534358 0.918537 2.09267 0.478019 
3.65599 2.00523 0.565719 0.182628 2.72725 0.243454 1.29292 3.08284 0.178122 
2.33163 2.57694 0.159638 3.16541 3.0596 0.456349 4.59258 3.08978 0.217404 
0.420908 3.678 0.0455439 2.29529 3.57094 0.0436441 1.52893 4.08487 0.431562 
2.66019 4.59312 0.526773 3.71398 4.67369 0.455124 0.240494 0.190117 1.01115 
2.09415 0.11166 1.30269 4.14516 0.0426103 0.847461 0.699279 1.04941 0.7888 
2.78093 1.34657 0.959923 0.0590474 1.85577 1.07709 2.63376 2.33249 1.08046 
0.579251 2.74515 1.16031 1.63709 2.53767 1.02723 3.99583 2.88193 1.00606 
4.99832 2.86537 1.11128 1.33611 3.47697 1.20257 2.34801 3.29074 1.0368 
0.228951 3.74034 1.06824 4.25914 3.85395 1.2491 0.960083 4.97801 0.828968 
1.91728 4.64455 1.21392 4.678 4.7643 0.769008 0.351816 0.592718 1.91792 
3.71094 0.0202662 1.74793 1.36327 0.74437 1.59468 2.67326 0.773607 1.78105 
4.41641 0.763932 1.49116 0.965357 1.66885 1.5255 1.9741 1.72579 1.56093 
3.67551 1.44636 1.39579 3.44454 2.38619 1.67707 4.47058 2.05209 1.35695 
4.3849 2.97211 1.91794 2.94481 3.30928 1.8774 1.16127 4.18413 1.94716 
2.12448 3.89873 1.89005 3.23569 4.53559 1.34546 1.09487 0.300884 2.5181 
2.20386 0.0347785 2.289 4.51796 0.241969 2.38649 1.94641 1.14811 2.37558 
3.58342 0.889661 2.2229 2.92709 1.63425 2.33598 3.91922 1.80553 2.48034 
0.320957 2.25747 2.04147 1.32493 2.0683 2.36729 2.43884 2.46513 2.04707 
4.88061 2.12219 2.26574 1.54744 3.02086 2.08496 0.575851 3.25592 2.01925 
3.8975 3.61651 2.50594 3.37634 4.45221 2.33399 4.58011 4.49249 2.49029 
1.55999 0.827942 3.23933 2.77037 0.735807 2.8028 4.14633 1.01985 3.05857 
0.821226 1.25389 2.72081 4.62118 1.88187 3.20209 2.16244 1.93544 2.9607 
0.542355 2.54189 2.97471 1.54196 2.76498 3.05058 3.28234 2.56017 2.64713 
4.85158 2.89118 2.9016 1.41333 3.72329 2.79714 0.419305 3.81689 2.83391 
2.71548 3.79582 2.72847 0.272981 4.67915 3.3219 1.26256 4.67985 3.18538 
2.56546 4.73509 3.03928 3.96657 4.46763 3.28221 0.861595 -0.012398 3.55969 
2.17743 0.0585681 3.37613 3.36912 0.018096 3.78006 0.362961 0.9089 3.55286 
3.23792 1.02517 3.66405 4.91858 0.698165 3.74243 2.27613 1.30224 3.75041 
3.88619 1.73628 3.94583 1.27725 1.9428 3.57387 2.98538 2.06 3.53301 
2.69395 2.99547 3.32865 3.82611 2.61889 3.48083 4.65384 2.98559 3.89532 
0.830637 3.24156 3.62757 3.87121 3.58579 3.74568 1.96337 4.0712 3.55453 
2.94012 3.94059 3.70569 4.83308 3.84739 3.31151 4.83079 4.81195 3.63555 
1.52846 0.436693 4.15838 2.49795 0.259731 4.30386 0.602979 0.629247 4.48161 
4.04636 0.776333 4.23769 0.0882915 1.50662 4.30273 1.27455 1.37325 4.39521 
0.328134 2.50608 4.09064 2.20683 2.55578 4.08201 0.41317 3.41755 4.60264 
1.38805 3.12092 4.44991 3.05269 3.14994 4.381 1.24821 4.29518 4.21481 
2.10676 3.91878 4.54107 3.43827 4.10676 4.55613 4.40293 4.2217 4.31946 
0.270752 4.41371 4.34816 3.15254 4.89169 4.004 1.7572 0.163672 5.13657 
3.32814 0.402043 4.8369 2.31432 1.15623 4.73857 3.5074 1.37891 4.9253 
4.46375 1.61758 4.76083 1.65665 2.18023 4.84621 2.63733 2.06679 5.01131 
3.55227 2.3507 4.70926 0.735611 2.54514 5.00239 2.26158 3.1286 5.12835 
4.302 2.99609 4.8484 1.51594 3.8515 5.34277 4.10544 3.88472 5.27077 
0.86732 4.7884 5.06134 2.47746 4.8244 4.74769 4.04936 4.96413 4.89941 
0.458619 0.265954 5.40781 1.27108 0.487573 5.94722 3.46913 0.422822 5.948 
2.56898 0.812353 5.64217 4.23194 0.71097 5.36979 0.70628 1.69497 5.73067 
1.53483 1.28168 5.35608 3.69692 1.39502 5.90646 1.86577 2.10325 5.83663 
3.96414 2.44662 5.6626 4.93796 2.42137 5.39174 2.64994 2.72006 5.94894 
0.22825 3.20425 5.5658 3.31019 3.24474 5.34916 4.67401 3.28118 5.82873 
0.601124 4.14218 5.77604 2.62223 4.01274 5.75447 1.68252 4.9465 5.64086 
3.54632 4.61715 5.9021 0.597039 0.944809 6.54877 1.9189 1.14785 6.33699 
4.47241 0.791481 6.37222 2.76141 1.71207 6.09231 0.855661 2.61963 6.07758 
3.45279 2.63793 6.5354 4.75664 2.52722 6.48343 0.0453298 3.32887 6.54061 
1.62994 3.24563 6.14053 3.3224 3.64975 6.36528 0.95094 3.79641 6.64686 
1.7985 4.21488 6.31016 4.35969 4.12 6.2837 0.0746255 4.98971 6.02341 
0.981343 4.89844 6.43428 2.63499 4.9922 6.06089 1.29802 0.31589 6.93056 
2.50944 0.44264 6.86725 3.42712 -0.000186151 6.84967 3.25702 1.11218 6.84813 
2.29394 1.36919 7.23666 4.06538 1.84372 6.72039 0.761015 1.90436 6.77821 
2.0189 2.33524 6.82753 2.98222 2.09311 7.22758 0.0365523 2.55083 7.17293 
1.19215 2.87617 6.99997 2.38436 3.27274 6.79305 4.12792 3.30753 6.84208 
0.0614968 4.31793 6.76257 2.62702 4.37414 6.84659 1.54842 4.61475 7.207 
3.64544 4.42675 6.91897 4.5817 4.47611 7.26619 0.337988 0.170494 7.94711 
1.68957 0.244338 7.84635 3.46385 0.587184 7.66947 4.8068 0.121606 7.89252 
0.634468 1.05476 7.55711 4.3991 0.901805 7.37005 0.135374 1.86316 7.89269 
1.54743 1.28077 7.89418 3.66913 1.56426 7.74506 1.07046 2.15553 7.6951 
4.51482 2.11106 7.70411 2.50239 2.98094 7.90126 3.50135 2.83378 7.82797 
4.8492 3.08378 7.49249 1.62667 3.64374 7.4961 3.12585 3.64308 7.34645 
0.676617 4.23787 7.54529 2.43543 3.97992 7.99788 4.03139 3.78067 7.74262 
2.38102 4.93759 7.66082 3.26544 4.51777 7.85918 2.31151 0.132287 8.62267 
3.54068 0.149113 8.58664 0.140006 1.02205 8.43358 2.5576 0.964701 8.11803 
4.25237 0.820985 8.3541 1.89297 2.2097 8.25986 2.85091 1.9301 8.20363 
0.703909 3.01617 8.05262 4.16951 3.08932 8.54953 0.0333994 3.65796 8.50846 
1.63553 3.16539 8.38994 3.17287 3.397 8.58667 0.993102 3.92518 8.44001 
4.86314 3.7814 8.32844 0.251059 4.66833 8.3385 2.0785 4.6926 8.60167 
3.96855 4.82752 8.49455 4.90859 4.76867 8.16361 1.26454 0.642695 8.67518 
2.72474 1.02349 9.13032 1.22532 1.63942 8.76838 3.54188 1.454 8.74731 
0.473699 2.29483 8.72877 2.34746 1.99082 9.12224 4.33507 2.05979 8.68809 
0.175122 3.05789 9.3003 1.8782 2.92181 9.33018 4.93682 2.60077 9.27559 
0.10106 4.33633 9.27213 2.34343 3.7961 8.98372 3.21765 4.31539 8.99278 
4.25182 4.00275 9.28736 1.05948 4.77314 8.96371 1.87337 0.44272 9.46235 
2.80136 0.234951 9.76973 3.77982 0.353404 9.62702 4.448 1.04193 9.34123 
0.715967 1.42549 9.76407 1.70174 1.41144 9.61473 3.50908 1.3171 9.74327 
1.09472 2.32799 9.51704 3.20576 2.26014 9.55759 4.24295 1.99944 9.75554 
3.90032 2.9755 9.50556 1.31617 3.74698 9.42348 3.48303 3.84999 9.93281 
0.826776 4.58381 9.91927 1.9007 4.54091 9.59147 3.87172 4.95053 9.47736 
0.211517 5.40372 0.272878 1.98092 5.32141 0.431728 3.00689 5.56002 0.470537 
1.21362 6.06968 0.401567 4.61131 6.0198 0.203322 3.08561 6.56756 0.377948 
0.721234 7.81818 0.288951 2.07417 8.07413 0.558307 3.31078 7.54772 0.406898 
4.30909 7.57664 0.218662 4.02466 8.57724 0.208247 0.728957 9.2486 0.472083 
2.57744 9.10855 0.517821 1.68444 9.52492 0.354324 3.47367 9.41164 0.183387 
3.94991 5.57887 0.813565 0.602822 5.84522 1.1683 0.689387 6.82397 0.79797 
2.14994 6.43926 0.782296 4.01378 6.57019 0.942687 4.97314 6.79388 0.766348 
1.57555 7.27134 0.909515 2.54487 7.38901 1.12141 3.97017 7.70928 1.15443 
1.34022 8.50549 1.10349 3.02963 8.33456 0.956802 4.82908 8.21153 0.997315 
0.262538 8.82293 1.25123 3.75418 9.02699 1.16927 4.65021 9.17213 0.748544 
1.14926 9.81128 1.18326 2.92479 9.55722 1.34101 0.702546 5.06463 1.82443 
4.24922 5.03041 1.69947 1.83969 5.67178 1.48247 3.33062 5.62334 1.83427 
0.838688 6.53523 1.87748 2.56721 6.56136 1.68437 3.59711 6.78163 1.82892 
4.64831 6.45528 2.03557 1.699 7.05374 1.90277 4.9144 7.45504 1.64501 
0.863336 7.51373 1.56073 1.8377 8.05332 1.87613 3.19402 7.73874 1.79687 
4.23624 8.4923 1.9612 1.60459 9.31461 1.93372 2.47308 8.82433 1.84786 
0.601665 9.46104 1.94242 4.51645 9.42868 1.75214 1.60166 5.21221 2.41062 
2.48594 5.03355 1.97302 0.123222 5.81667 2.43085 1.69064 6.21819 2.59823 
0.884185 7.38902 2.55904 0.163085 7.9958 2.21144 4.20238 7.60612 2.42132 
0.98309 8.5431 2.05997 3.31087 8.57405 2.33602 3.15528 9.55694 2.51658 
3.60793 5.32606 2.76119 4.68936 5.58956 2.71464 2.5295 5.70057 2.76606 
0.758039 6.44881 2.872 3.75617 6.36604 2.72358 4.65386 6.64827 3.07246 
2.19642 7.32294 2.7323 3.25269 7.33334 2.71941 0.640997 8.13793 3.25238 
1.59873 8.41901 2.83341 2.61437 8.18704 3.01425 3.59498 8.16741 3.20982 
4.52237 8.50774 3.05363 0.462272 9.02612 2.83132 2.34017 9.14649 2.92997 
4.14835 9.3611 2.69064 1.37897 9.42286 2.90307 2.04233 5.18242 3.76276 
0.231566 6.09492 3.64324 1.26889 5.77624 3.45705 3.01039 5.8314 3.6392 
4.09442 5.65136 3.57999 0.860846 6.91193 3.75047 2.3887 6.57534 3.37923 
3.36384 6.77856 3.54356 4.15128 7.39391 3.51399 1.49215 7.66963 3.47355 
2.97263 7.69405 3.8379 1.98623 8.6303 3.72955 1.00474 8.94362 3.76763 
3.53112 9.02718 3.72109 4.48636 8.85701 3.99043 0.0820166 9.37652 3.69504 
4.49442 9.77142 3.53417 0.755932 5.26932 4.15425 2.43724 5.84885 4.55009 
3.58518 5.73444 4.45698 4.86753 5.84872 4.18137 1.71689 6.54666 4.1198 
3.08845 6.60196 4.48625 4.13601 6.54545 4.27769 0.333518 6.91193 4.63279 
0.599304 7.76994 4.18271 2.23266 7.52849 4.50732 3.99201 7.49826 4.54984 
1.45395 8.17582 4.5002 2.39399 8.50666 4.63699 3.38086 8.30122 4.52989 
2.63718 9.29887 4.07735 0.694336 9.6459 4.64548 1.67898 9.47216 4.37388 
3.50318 9.43975 4.63191 4.39881 9.88188 4.52278 1.54216 5.4534 4.74542 
3.15754 5.37766 5.28803 0.379796 5.85004 5.00346 4.69877 5.71298 5.15707 
1.25336 6.30233 5.18783 2.14027 6.86854 5.25264 1.29697 7.22384 4.80218 
3.09573 7.42779 5.04685 4.94702 8.09389 4.74121 0.717183 8.507 5.1 
4.1603 8.76538 4.98143 1.65061 8.85357 5.21495 2.59026 9.5716 5.04791 
4.45367 5.03463 5.85026 2.1832 5.80402 5.54862 0.373369 6.71238 5.61461 
2.98325 6.39747 5.5247 3.93308 6.67405 5.38853 1.30629 7.25786 5.802 
0.456979 7.79933 5.77608 2.24926 7.88082 5.68408 4.2708 7.86673 5.43533 
3.10975 8.41142 5.48851 4.24725 8.69993 5.98425 2.3355 8.929 5.94769 
0.882361 9.36778 5.61284 4.06784 9.71303 5.45114 1.75834 5.50292 6.61053 
[...]
POINT_DATA 1000
FIELD FieldData 7
id 1 1000 int
9 5 633 843 530 509 531 18 519 
506 526 600 20 11 595 255 603 109 
510 6 16 146 150 2 514 757 505 
17 522 12 513 1 501 504 537 130 
529 516 748 8 14 548 502 518 523 
13 554 10 38 21 909 547 4 34 
640 35 534 555 544 552 302 541 7 
782 41 508 546 532 550 71 22 170 
23 47 26 30 24 557 277 626 283 
543 418 67 542 28 644 29 638 545 
33 40 63 535 551 540 31 279 280 
37 44 32 556 558 900 561 560 570 
654 553 49 42 539 294 36 53 69 
45 572 559 408 54 562 187 80 51 
58 62 70 25 68 48 817 50 575 
669 43 683 55 220 663 588 59 57 
566 61 84 538 569 589 563 52 311 
573 568 571 92 64 578 582 583 567 
574 96 303 66 101 99 103 102 800 
91 56 95 202 699 78 72 74 337 
580 97 100 585 79 83 339 592 77 
591 89 122 118 576 870 579 82 88 
590 104 86 833 125 87 75 81 584 
593 586 581 577 235 226 715 127 120 
123 107 602 93 105 108 73 110 115 
598 233 601 228 743 119 604 116 128 
111 599 608 365 605 846 272 117 594 
106 240 112 735 507 372 606 607 528 
610 121 512 114 597 515 142 596 247 
404 503 511 612 143 135 611 625 723 
728 617 132 133 520 140 517 892 148 
129 151 984 147 134 616 138 144 629 
136 149 631 3 141 874 627 632 613 
139 131 614 620 622 383 641 624 651 
623 174 646 912 402 27 168 922 642 
659 160 615 173 647 636 158 166 658 
156 653 423 650 657 648 639 171 652 
161 163 154 157 167 162 924 656 655 
668 177 643 645 159 682 637 169 649 
155 660 436 172 450 194 60 420 681 
193 164 198 185 180 153 199 684 182 
661 677 673 662 192 190 207 948 674 
666 178 189 181 940 679 676 670 188 
469 664 183 675 680 179 176 671 686 
678 685 191 667 195 702 709 211 215 
970 693 701 689 703 196 206 700 665 
200 197 706 205 707 98 698 692 203 
219 214 218 691 690 209 210 201 216 
704 710 688 85 694 224 719 712 481 
992 741 708 705 222 221 212 961 217 
587 230 208 695 374 713 714 737 736 
720 225 727 238 227 696 726 733 244 
717 242 742 137 628 738 739 716 239 
991 734 234 237 246 722 725 732 236 
223 521 527 630 872 634 618 152 229 
243 635 245 231 718 248 724 396 264 
252 251 259 767 268 271 369 358 525 
260 380 896 773 747 891 758 761 765 
15 866 287 744 760 254 261 609 269 
250 382 904 257 524 768 253 258 753 
19 764 267 754 769 794 263 265 262 
762 533 756 413 763 778 755 282 781 
276 281 299 788 300 908 780 784 785 
790 746 777 775 536 293 286 292 786 
793 766 911 414 275 427 298 290 306 
818 289 774 285 296 274 816 783 776 
313 789 288 792 779 291 809 295 324 
325 812 813 323 811 284 672 301 803 
320 319 305 46 808 308 318 549 278 
316 796 814 807 322 310 314 565 934 
943 821 832 333 355 810 797 798 802 
307 815 343 805 312 315 345 801 837 
334 827 830 338 564 349 353 340 831 
819 332 94 348 952 835 864 347 335 
213 329 826 342 331 346 825 354 823 
327 336 804 351 824 829 344 822 488 
858 848 90 836 359 326 377 352 350 
834 341 371 328 373 126 857 856 330 
854 840 838 869 76 859 850 845 466 
861 362 989 124 363 863 847 357 867 
868 270 852 849 851 378 865 1000 483 
853 860 364 750 745 256 862 356 368 
366 842 841 361 367 113 266 360 249 
375 771 752 273 990 389 385 884 394 
391 232 390 895 987 400 399 731 490 
873 770 772 898 749 759 384 871 878 
395 887 405 621 879 886 881 381 876 
889 386 145 393 403 883 397 899 387 
885 894 901 398 893 432 791 437 888 
424 882 927 877 410 426 411 926 921 
905 751 906 928 907 388 419 431 415 
175 914 925 412 438 422 39 417 903 
918 406 297 919 439 915 923 461 920 
916 409 434 917 407 429 457 787 435 
433 430 902 321 939 459 425 945 942 
416 937 440 944 421 913 951 448 910 
806 304 309 799 317 449 453 470 165 
941 447 947 444 186 950 446 456 946 
454 795 462 929 452 933 468 428 442 
460 184 443 960 930 938 455 936 441 
935 931 949 65 445 967 472 464 467 
204 451 953 687 465 932 976 971 458 
954 964 474 478 965 977 697 476 966 
711 962 958 471 959 820 972 463 473 
828 497 956 379 489 974 955 998 968 
957 477 994 499 969 996 985 844 973 
475 493 494 721 999 485 975 496 491 
479 487 963 988 482 855 241 376 978 
995 729 486 730 480 740 484 880 370 
492 997 890 500 619 979 401 495 498 
392 986 981 897 875 983 982 993 839 
980 
type 1 1000 int
1 1 2 2 2 2 2 1 2 
2 2 2 1 1 2 1 2 1 
2 1 1 1 1 1 2 2 2 
1 2 1 2 1 2 2 2 1 
2 2 2 1 1 2 2 2 2 
1 2 1 1 1 2 2 1 1 
2 1 2 2 2 2 1 2 1 
2 1 2 2 2 2 1 1 1 
1 1 1 1 1 2 1 2 1 
2 1 1 2 1 2 1 2 2 
1 1 1 2 2 2 1 1 1 
1 1 1 2 2 2 2 2 2 
2 2 1 1 2 1 1 1 1 
1 2 2 1 1 2 1 1 1 
1 1 1 1 1 1 2 1 2 
2 1 2 1 1 2 2 1 1 
2 1 1 2 2 2 2 1 1 
2 2 2 1 1 2 2 2 2 
2 1 1 1 1 1 1 1 2 
1 1 1 1 2 1 1 1 1 
2 1 1 2 1 1 1 2 1 
2 1 1 1 2 2 2 1 1 
2 1 1 2 1 1 1 1 2 
2 2 2 2 1 1 2 1 1 
1 1 2 1 1 1 1 1 1 
2 1 2 1 2 1 2 1 1 
1 2 2 1 2 2 1 1 2 
1 1 1 2 2 1 2 2 2 
2 1 2 1 2 2 1 2 1 
1 2 2 2 1 1 2 2 2 
2 2 1 1 2 1 2 2 1 
1 1 2 1 1 2 1 1 2 
1 1 2 1 1 2 2 2 2 
1 1 2 2 2 1 2 2 2 
2 1 2 2 1 1 1 2 2 
2 1 2 1 2 2 1 1 2 
1 2 1 2 2 2 2 1 2 
1 1 1 1 1 1 2 2 2 
2 1 2 2 1 2 2 1 2 
1 2 1 1 1 1 1 1 2 
1 1 1 1 1 1 1 2 1 
2 2 2 2 1 1 1 2 2 
2 1 1 1 2 2 2 2 1 
1 2 1 2 2 1 1 2 2 
2 2 1 2 1 2 2 1 1 
2 2 2 2 2 1 1 2 2 
1 1 2 1 2 1 2 2 1 
1 1 1 2 2 1 1 1 1 
2 2 2 1 2 1 2 2 1 
2 2 2 2 1 1 1 2 1 
2 1 1 2 1 2 2 2 2 
2 1 2 1 1 2 2 2 1 
2 1 2 1 2 2 2 2 1 
2 2 1 1 1 2 2 2 1 
1 2 2 2 2 2 2 1 1 
1 2 1 1 2 1 2 1 1 
1 1 1 2 1 1 1 1 2 
1 1 2 2 2 2 2 2 2 
1 2 1 2 2 1 1 2 1 
1 1 2 1 2 2 1 1 2 
1 2 1 2 2 2 1 1 1 
2 2 2 1 2 2 2 1 2 
1 1 1 2 1 2 2 2 2 
2 2 2 2 2 1 1 1 2 
2 2 2 1 1 1 1 1 1 
2 1 2 1 1 1 2 2 2 
1 2 1 2 2 1 2 1 1 
1 2 2 1 2 1 2 1 2 
1 1 1 1 2 1 1 2 1 
1 2 2 2 1 1 1 2 2 
2 2 2 1 1 2 2 2 2 
1 2 1 2 1 1 1 2 2 
1 2 2 1 2 1 1 1 2 
2 1 1 1 2 2 2 1 1 
1 1 2 1 1 1 2 1 2 
1 1 2 1 2 2 1 2 1 
2 2 1 2 1 1 1 1 1 
2 1 1 1 1 1 2 2 1 
2 2 2 2 1 2 2 2 1 
2 1 2 1 1 2 2 1 2 
2 1 2 2 2 1 2 2 1 
2 2 1 2 2 1 2 1 1 
1 2 2 1 1 1 1 1 1 
1 2 2 1 2 1 1 2 1 
1 1 1 2 2 1 1 2 1 
2 2 2 2 2 2 1 2 2 
1 2 1 2 2 2 2 1 2 
2 1 1 1 1 2 1 2 1 
2 2 2 1 2 1 2 1 2 
1 2 2 2 1 1 1 2 2 
2 2 2 2 2 1 1 1 1 
1 2 2 1 1 1 1 1 2 
2 1 1 2 1 2 2 1 2 
2 1 1 2 1 1 1 2 1 
1 1 2 1 2 1 1 2 2 
1 2 1 2 1 2 2 1 2 
2 1 1 2 1 1 1 1 1 
2 1 2 1 1 2 1 1 2 
1 2 1 2 1 2 1 1 1 
1 1 1 2 2 2 1 2 1 
2 2 2 1 1 2 1 1 1 
1 1 2 2 1 2 2 2 1 
2 2 1 1 2 2 2 1 2 
2 2 2 1 2 2 2 1 1 
2 1 2 1 1 2 2 2 2 
2 1 2 1 2 2 2 2 2 
1 1 1 2 2 1 2 1 1 
1 1 2 2 1 2 1 1 2 
2 2 1 2 1 2 1 2 1 
1 2 2 1 2 2 1 1 1 
1 2 2 2 2 2 2 2 2 
2 
i 3 1000 int
0 0 0 0 0 0 0 1 0 
1 0 1 0 0 0 0 0 0 
0 0 0 0 0 0 0 0 0 
0 0 0 0 0 0 0 0 1 
0 0 0 0 0 0 0 0 1 
1 0 0 0 0 1 0 0 1 
0 0 0 0 0 0 0 0 0 
0 1 0 0 1 0 0 0 0 
0 0 0 1 0 0 0 0 0 
0 0 0 0 0 0 0 0 0 
0 0 0 0 0 0 0 0 0 
0 0 0 0 0 0 0 0 0 
0 0 0 0 0 0 1 0 0 
0 0 0 0 0 0 0 0 0 
0 0 0 0 0 0 0 0 0 
0 0 0 0 0 0 0 0 0 
0 0 0 0 0 0 1 0 0 
0 0 0 0 0 0 0 0 0 
0 1 0 0 0 0 0 0 0 
0 0 0 0 0 0 0 0 0 
1 0 0 0 0 0 0 0 0 
0 0 0 0 0 0 0 0 0 
0 0 0 0 0 0 0 0 0 
0 0 0 0 0 0 0 1 0 
0 0 0 0 0 0 0 0 0 
0 0 0 0 0 0 0 0 0 
0 0 0 0 0 0 1 0 0 
0 0 0 1 0 0 0 0 0 
0 0 0 0 0 0 0 1 0 
0 0 0 0 1 0 0 0 0 
0 0 0 0 0 0 0 0 0 
0 0 0 0 0 0 0 0 0 
0 0 0 0 0 0 0 0 0 
0 0 0 0 0 0 0 0 0 
0 0 0 0 0 0 0 0 0 
0 0 0 0 0 0 0 0 0 
0 1 0 0 0 0 0 0 0 
0 0 0 0 0 0 1 0 0 
0 0 0 0 0 0 0 0 0 
0 0 0 0 0 0 0 0 0 
1 0 0 0 0 0 0 0 0 
0 1 0 0 0 0 0 0 0 
0 0 0 0 0 0 0 0 0 
0 0 0 0 0 0 0 0 0 
0 0 0 0 0 0 0 0 0 
0 0 0 0 0 0 0 0 0 
0 0 0 0 1 0 0 1 0 
0 0 0 0 0 0 0 0 0 
0 0 0 0 0 0 0 0 0 
0 0 0 0 0 0 0 0 0 
0 0 0 0 0 0 0 0 0 
0 0 0 0 0 0 0 0 0 
0 0 0 0 0 0 0 0 0 
0 0 0 0 0 0 0 0 0 
0 0 0 0 0 0 1 0 0 
0 0 0 0 0 0 0 0 0 
0 0 0 0 0 0 1 0 0 
0 0 0 0 0 0 0 0 0 
0 1 0 0 1 0 0 0 0 
0 0 0 0 0 0 1 0 0 
0 0 0 0 0 0 0 0 0 
0 0 0 0 0 0 0 0 0 
1 0 0 0 0 0 0 0 0 
0 0 0 0 0 0 0 0 0 
0 0 0 0 0 0 0 0 0 
0 0 0 0 0 0 0 0 0 
0 0 0 0 0 0 0 0 0 
0 0 0 0 0 0 0 0 0 
0 0 0 0 0 0 0 0 0 
0 0 0 0 0 0 0 0 0 
0 0 0 0 0 0 0 1 0 
0 1 0 0 0 0 0 0 0 
0 0 0 0 0 0 0 0 0 
0 0 0 0 0 0 0 0 0 
0 0 0 0 0 0 0 0 0 
0 0 0 0 0 0 0 0 0 
0 0 0 0 0 0 0 0 0 
0 0 0 0 0 0 0 0 0 
0 0 0 0 0 0 0 0 0 
1 0 0 0 0 0 0 0 0 
1 0 -1 0 0 0 0 0 0 
0 0 0 0 0 0 0 0 0 
0 1 0 0 0 -1 0 0 0 
0 0 0 0 0 0 0 0 -1 
0 0 0 0 0 0 0 0 -1 
0 0 0 0 0 0 0 0 -1 
0 0 -1 0 0 0 0 0 0 
1 0 0 0 0 0 0 0 0 
0 0 0 0 0 0 0 0 0 
0 0 0 0 0 0 0 0 1 
0 0 1 0 0 0 0 0 0 
0 0 0 0 -1 0 0 0 0 
0 0 0 1 0 0 0 0 0 
0 0 0 0 0 0 0 0 1 
0 0 0 0 0 0 0 0 0 
0 0 0 0 0 0 0 0 0 
0 0 0 0 0 0 0 0 0 
0 -1 0 0 0 0 1 0 0 
0 0 0 0 0 0 0 0 0 
0 0 0 0 0 0 0 0 0 
0 0 0 0 0 0 0 0 0 
0 0 0 0 0 0 0 0 0 
0 0 0 0 0 0 0 0 0 
1 0 0 0 0 0 0 0 0 
0 0 0 1 0 0 0 0 0 
0 0 0 0 0 0 0 0 0 
0 0 0 0 0 0 0 0 0 
0 0 0 0 0 0 0 0 0 
0 0 0 0 0 0 0 0 0 
0 0 0 0 0 0 0 0 0 
0 0 0 0 0 0 0 0 0 
0 0 0 0 0 0 0 0 0 
0 0 0 0 0 0 0 0 0 
1 0 0 0 0 0 0 0 0 
0 0 0 0 0 0 0 0 0 
0 0 0 0 0 0 0 0 0 
0 0 0 0 0 0 0 0 0 
0 0 0 0 0 0 1 0 0 
0 0 0 1 0 0 0 0 0 
0 0 0 0 0 0 0 0 0 
0 0 0 0 0 0 0 0 0 
0 0 0 0 0 0 0 0 0 
0 0 0 0 0 0 0 0 0 
0 0 0 0 0 0 0 0 0 
0 0 0 0 0 0 0 0 0 
0 0 0 1 0 0 0 0 0 
0 0 0 0 0 0 0 0 0 
0 0 0 0 0 0 0 0 0 
0 0 0 0 0 0 0 0 0 
0 0 0 0 0 0 0 0 0 
0 0 0 0 0 0 0 0 0 
0 0 0 0 0 0 0 0 0 
0 0 0 0 0 0 0 0 0 
0 0 0 0 0 0 0 0 0 
0 0 0 0 0 0 0 0 0 
0 0 0 0 0 0 0 0 0 
0 0 0 0 0 0 0 0 0 
0 0 0 0 0 0 0 0 0 
0 0 0 0 0 0 0 0 0 
0 0 0 0 0 0 0 0 0 
0 0 0 0 0 0 0 0 0 
0 0 0 0 0 0 0 0 0 
0 0 0 0 0 0 0 0 0 
0 0 0 0 0 0 0 0 0 
0 0 0 0 0 0 0 0 0 
0 -1 0 0 0 0 0 0 0 
0 0 0 0 0 0 1 0 0 
0 0 0 0 0 0 0 0 0 
0 0 0 0 0 0 0 0 0 
0 0 0 0 0 0 0 0 0 
0 -1 0 0 0 0 0 0 0 
0 0 0 1 0 0 0 0 0 
0 0 0 0 0 0 0 0 0 
0 0 0 0 0 0 0 0 0 
0 0 0 0 0 0 0 0 0 
0 0 0 0 0 0 0 0 0 
0 0 0 0 0 0 0 0 0 
0 0 -1 0 0 -1 0 0 0 
0 0 0 0 0 0 0 0 0 
1 0 0 0 0 0 0 0 0 
0 0 0 0 0 0 0 0 0 
0 0 0 0 0 0 0 0 0 
0 0 0 0 0 -1 0 0 -1 
0 0 -1 1 0 -1 0 0 -1 
0 0 -1 0 0 -1 0 0 0 
0 0 0 0 0 -1 0 0 0 
0 0 0 0 0 0 0 0 0 
0 0 0 0 1 0 0 0 0 
0 0 0 0 0 0 0 0 0 
0 0 0 0 0 0 0 0 0 
0 0 1 0 0 1 0 0 0 
0 0 0 0 0 1 0 1 0 
0 0 0 0 0 0 0 1 0 
0 0 0 0 0 0 0 0 0 
0 0 0 0 0 1 0 0 0 
0 0 0 0 0 0 0 0 0 
0 0 0 0 0 1 0 0 0 
0 0 0 0 1 0 0 1 0 
0 0 0 0 0 0 0 0 0 
0 0 0 0 0 0 0 0 0 
0 0 0 0 0 0 0 0 0 
0 0 0 0 0 0 0 0 0 
0 0 0 0 0 0 0 0 0 
0 0 0 0 0 0 0 0 0 
0 1 0 0 0 0 0 0 0 
0 0 0 0 0 0 0 0 0 
0 0 0 0 0 0 0 0 0 
0 0 0 0 0 0 0 1 0 
0 0 0 0 0 0 0 0 0 
0 0 0 0 0 0 0 0 0 
0 0 0 -1 0 0 0 0 0 
0 0 0 0 0 0 0 0 0 
0 0 0 0 0 0 0 0 0 
0 0 0 0 0 0 0 1 0 
0 0 0 0 0 0 0 0 0 
0 0 0 0 0 0 0 0 0 
0 0 0 0 0 0 0 0 0 
0 0 0 0 0 0 0 0 0 
0 0 0 0 0 0 0 0 0 
0 0 0 0 0 0 0 0 0 
0 0 0 0 0 0 0 0 0 
0 0 0 0 0 0 0 0 0 
0 0 0 0 0 0 0 0 0 
0 0 0 0 0 0 0 0 0 
0 0 0 0 0 0 0 0 0 
0 0 0 0 0 0 0 0 0 
0 0 0 -1 0 0 0 0 0 
0 0 0 0 0 0 0 0 0 
0 0 0 0 0 0 0 0 0 
0 0 0 0 0 0 0 1 0 
0 1 0 0 0 0 0 0 0 
0 0 0 0 0 0 0 0 0 
0 0 0 0 0 0 0 0 0 
0 0 0 0 0 0 0 0 0 
0 0 0 0 0 0 0 0 0 
0 0 0 0 0 0 0 0 0 
0 0 0 0 0 0 0 0 0 
0 0 0 -1 0 0 0 0 0 
0 0 0 0 0 0 0 0 0 
0 0 0 0 0 0 0 0 0 
0 0 0 0 0 0 0 0 0 
0 0 0 0 0 0 0 0 0 
-1 1 0 0 0 0 0 0 0 
0 0 0 0 0 0 0 0 0 
0 0 0 0 0 0 0 0 0 
0 0 0 0 0 0 0 0 0 
0 0 0 0 0 0 0 0 0 
0 0 0 0 0 0 0 1 0 
0 0 0 0 0 0 -1 0 0 
0 0 0 0 0 0 0 0 0 
0 0 0 0 0 0 0 0 0 
0 0 0 0 0 0 0 0 0 
0 0 0 0 0 0 0 0 0 
0 0 0 0 0 0 0 0 0 
0 0 0 0 0 0 0 0 0 
0 0 0 -1 0 0 0 0 0 
0 0 0 0 0 0 0 0 0 
0 0 0 0 0 0 0 1 0 
-1 0 0 0 0 0 0 0 0 
0 0 0 0 0 0 0 0 0 
0 0 0 0 0 -1 0 0 0 
0 0 0 0 0 0 0 0 0 
0 0 0 0 0 0 0 0 0 
0 0 0 0 0 0 0 0 0 
0 0 -1 0 0 -1 0 0 -1 
0 0 0 0 0 0 0 0 0 
0 0 0 0 0 0 0 0 0 
0 0 0 0 0 0 0 0 0 
0 0 -1 0 0 0 0 0 -1 
0 0 0 0 0 0 0 0 0 
0 0 0 0 0 1 0 0 0 
0 0 0 0 0 0 0 0 0 
0 0 0 0 0 1 0 0 0 
0 0 0 0 0 1 0 0 0 
0 0 0 0 0 1 0 0 1 
0 0 0 0 0 0 0 0 0 
0 0 0 0 0 0 0 0 0 
0 0 0 0 0 0 0 0 0 
0 0 0 0 0 0 0 0 0 
-1 0 0 0 0 0 0 0 0 
0 0 0 0 0 0 0 0 0 
0 0 0 0 0 0 0 0 0 
0 0 0 0 0 0 0 0 0 
0 0 0 0 0 0 0 0 0 
0 0 0 0 0 0 0 0 0 
0 0 0 0 0 0 0 0 0 
0 0 0 0 0 0 0 0 0 
0 0 0 0 0 0 0 0 0 
0 0 0 0 0 0 0 0 0 
0 0 0 0 0 0 0 0 0 
0 0 0 0 -1 0 0 0 0 
0 0 0 0 0 0 0 0 0 
0 0 0 0 0 0 0 0 0 
-1 0 0 0 0 0 0 0 0 
0 0 0 0 0 0 0 0 0 
0 -1 0 0 0 0 0 0 0 
0 0 0 0 0 0 0 0 0 
0 0 0 0 0 0 0 0 0 
0 0 0 0 0 0 0 0 0 
0 0 0 0 0 0 0 0 0 
0 0 0 0 0 0 0 0 0 
0 0 0 0 -1 0 0 0 0 
0 0 0 0 0 0 0 0 0 
0 0 0 0 0 0 0 0 0 
0 0 0 0 0 0 0 0 0 
0 0 0 0 0 0 0 0 0 
0 0 0 0 0 0 0 0 0 
0 0 0 0 0 0 0 0 0 
0 -1 0 0 0 0 0 0 0 
0 0 0 0 0 0 0 0 0 
0 0 0 0 0 0 0 0 0 
0 0 0 0 0 0 0 0 0 
0 0 0 -1 0 0 0 0 0 
0 0 0 0 0 0 0 0 0 
0 0 0 0 -1 0 0 0 0 
0 0 0 0 0 0 0 0 0 
0 0 0 0 0 0 0 0 0 
0 0 0 0 0 0 0 0 0 
0 0 0 0 0 0 0 0 0 
0 0 0 0 0 0 0 0 0 
0 0 0 0 0 0 0 0 0 
-1 -1 0 0 0 0 0 0 0 
0 0 0 0 0 0 0 0 0 
-1 0 0 0 0 0 0 0 0 
-1 0 0 0 0 0 0 0 0 
0 0 0 0 0 0 0 0 0 
0 0 0 0 0 0 0 0 0 
0 0 0 0 0 0 0 0 0 
-1 0 0 0 0 0 0 0 0 
0 0 0 0 0 0 0 0 0 
0 0 0 0 0 0 0 -1 0 
0 0 0 0 0 0 0 0 0 
0 0 0 0 0 0 0 0 0 
0 0 0 0 0 0 0 0 0 
0 0 0 0 0 0 0 0 0 
0 0 0 0 0 0 0 0 0 
0 0 0 0 0 0 0 0 0 
0 0 0 0 0 0 0 0 0 
0 0 0 0 0 0 0 0 0 
-1 0 0 0 0 0 0 0 0 
0 0 0 0 0 0 0 0 0 
0 0 0 0 0 0 0 0 0 
0 0 0 0 0 0 0 -1 0 
-1 0 0 0 0 0 0 0 0 
0 0 0 0 0 0 0 0 0 
-1 0 0 0 0 0 0 0 0 
0 0 0 0 0 -1 0 -1 0 
0 0 0 0 0 0 0 0 -1 
0 0 0 0 0 -1 0 0 0 
0 0 -1 0 0 0 0 0 0 
0 0 -1 0 0 0 0 0 0 
0 0 -1 0 0 -1 0 0 0 
0 0 0 0 0 0 0 -1 0 
0 0 0 
v 3 1000 double
-0.293542165 -0.3242607012 -0.55694044125 -0.59429846623 0.37680805778 0.22216959814 -0.40379766768 -0.15651820348 0.43019164513 
0.26808986332 -0.320524737 -0.12067646252 0.11440841492 -0.37969953843 0.12638244465 -0.22099396862 -0.37779536044 -0.20045929571 
-0.88065283933 0.76915632377 -0.52837693984 0.4740072353 -1.3541926211 -0.54883599965 -0.48449043247 -0.4823387978 -0.14951066402 
-0.57158938265 -0.38232403408 -0.22037449677 -0.81967739767 -0.43804327263 0.34212157481 -0.77645270094 -0.22217583448 -0.5226988214 
-0.69387450567 1.072068854 0.89883356502 -0.046130771001 0.50072477103 1.0353161445 -0.13798475681 0.88421371858 0.28526739966 
0.54255666805 -0.86059570164 -0.3127464526 0.34950358789 1.2341413616 0.39065721928 0.14975593237 0.1708661624 1.2220550229 
0.58010805376 0.96989581326 -1.7264299538 1.9250957518 0.45408062427 -1.2213055206 -0.22150451987 -0.4629115163 -0.99232245728 
-0.32344116964 -0.2401104531 -0.59989007271 -0.56968743696 0.64271236304 0.71767870326 -0.018297119525 -0.52205914052 -0.41599812647 
0.5777789254 0.12479970782 -1.101906848 -1.2077019405 -1.1723226433 -0.2332015898 -0.67521955627 -0.19375799256 0.13131563808 
-1.0726623808 -1.9265138369 0.62929279541 -0.67404462804 -1.290737186 -0.20932552736 1.234048119 -0.25882050395 -1.4382147154 
1.7090831541 -1.0169256358 -0.77592809731 -0.92310643195 -1.222125364 -0.16177314008 -0.91251331946 -0.069765182656 0.77099277342 
-1.6066587969 -1.8441208638 0.065199729326 1.3412167056 0.91592980809 -3.0052912271 0.64148904947 -1.2768212953 0.14720011252 
-0.26247817203 -1.0953217037 -1.3528334206 1.689229755 2.4466775422 -1.9851398296 -1.0417853873 -1.0255884326 -0.4489477742 
-0.24890145118 0.17291520593 0.87122358283 -1.448945846 -0.75278680654 -0.62164134537 0.96329042608 -0.37463598904 -1.2099818682 
0.77236953437 -0.50602628716 0.00044802429127 -1.0564513894 -0.23661082196 -0.046018285758 -0.49925179849 -0.88419232674 0.027905247791 
0.55944145377 -0.98167196195 -0.65437696127 1.0054260026 -0.52344047924 -1.6059052467 0.18922992945 -0.36044498116 -1.6596858708 
0.15724883794 0.45338255172 -1.3083906728 0.82498709654 -0.69292568354 0.45940779053 -0.33759577765 -1.0854958078 -0.14918628664 
-0.032858439953 -1.0752804943 -1.6457574014 0.7846156152 0.36755652536 -1.4681180163 -1.2199303236 -0.63997580366 -0.15205866579 
-0.13418034953 -0.47552288639 -0.55721360489 -0.10068750609 -0.48797833521 0.66385688106 2.0795793768 -2.1058869098 -0.76055181631 
0.38254342279 0.60513925992 0.60613533275 -0.82884517747 0.033161762263 -0.3210190594 0.071945651652 0.2169703252 -1.3292352106 
-0.88416250521 -1.0430452982 -0.10809383079 -0.21486332207 -1.9353618568 0.77524486202 -0.083609480272 -0.4922283472 -0.55640825456 
0.80537829354 -0.14287817417 -2.2953806476 -0.76003731759 -1.1632781389 0.10185910169 -0.7724463958 -0.70142496718 -0.052036433097 
-0.36180933184 0.064400122603 -1.458000162 -0.81123970771 -0.026701279475 -0.94626895026 0.3779851606 -0.43871993044 -2.3818055172 
0.55101760744 -0.71058168688 -0.85771881805 2.1548476901 -2.2729928564 -1.3800989641 1.3206137437 0.43953251609 -0.63308229182 
-1.2462187679 -1.1165480022 0.22169193493 -0.17473326199 1.139951785 -2.1127446989 0.22701681646 -1.043293918 -1.1081948199 
-0.93037361568 -0.42826848494 -0.21556745778 -0.48587662791 -0.98607933867 0.24586875979 -0.46645851285 0.30758772412 -1.9701090119 
-0.24223422735 -1.5191612892 -1.3828400398 0.031366481228 -0.81525751094 0.029418849444 0.041028777506 -1.1731740786 0.47041634444 
-0.35915822111 -0.51758664825 -0.73901367836 1.3194491376 -0.57673384667 0.065363780532 1.1316542105 -0.75604342152 -2.1412558857 
-0.56024225488 -0.68974129157 -0.18063340788 -0.40402493536 -0.31689695592 -2.4797203811 0.000594703849 -0.79549369535 0.71972504157 
0.66019986852 -1.2678817514 -0.81440906767 0.096315966354 0.22359898875 -0.29233080625 -0.0040651916962 -1.005802063 1.2410173456 
0.66238239739 0.22376200727 -1.1501289104 -0.036440453547 0.40204423819 -0.60430647813 1.1223045409 -0.18073912332 -1.53381248 
0.41715785344 0.27577382865 -0.41605808962 0.027876377363 -1.2408666532 -0.14177312241 0.026920935208 -0.075660578173 -0.59453205613 
-0.061406147128 -0.69865224339 -0.96154924154 -0.22996807212 -0.61234605856 -2.0180994597 0.071285997414 -0.93807579267 -1.5048331883 
0.59336520474 -1.7577221988 0.4370519177 0.85207575088 -0.087292011985 -2.0372386442 0.031079871554 -0.8919344981 0.18908214231 
0.59587137773 -0.12948282446 -0.40268353058 0.97733552581 -1.0170573112 -1.7909532668 -0.37992990851 -0.83324941618 -1.3251035249 
-0.75933140288 -0.4862784141 -0.44797864906 -0.17152022731 0.77097263572 -1.7067236449 0.51091000945 -0.065112955712 1.4293501482 
0.10164828582 0.1656887831 0.23944686854 0.82270982759 -1.1206102724 1.1258227528 0.53240642917 -0.26567704115 0.63466748774 
-0.74392359751 -0.77516390773 1.4001018952 -0.47414507415 0.52707660043 -0.94001524028 2.2064233795 -0.67133662662 1.3396430263 
-0.45443834542 -1.4253180635 1.3882305251 1.0490527356 0.0085648106306 -1.0085266629 1.0410249012 0.91913462077 0.90326038561 
0.64749402442 -0.21018052145 0.79563738029 0.31381546629 0.11075977083 -0.14966637382 0.44929780038 -1.014283575 -0.66681699227 
0.74195977006 -0.42584533976 0.03903396813 0.93432884132 0.13171266064 -0.79476272737 -0.76988006552 1.1020901026 0.16301626329 
-0.52237535675 0.065388468041 -0.32326214216 -0.83045223234 0.62258909352 -1.2448056259 -0.5547556311 -0.039868856666 0.011045745706 
-0.4013628812 -0.30405319296 0.46056221557 -0.20534138673 0.80849865069 -0.48975891626 -0.30364978048 0.0078021893499 0.23829752798 
0.28071534427 0.092993263978 0.54958678752 -1.0336176633 -1.4223744699 1.481241926 1.1177414676 0.29831664795 -0.012534883565 
0.62777448489 -0.18973057253 -0.47307729283 1.7267840108 0.89055408367 0.82844408519 1.1218642489 0.33087542305 -1.1486852718 
0.95948796834 -0.71718073371 0.99978861259 0.90456449729 -0.526895855 -0.7643330141 -0.93416533971 -0.45734612744 -1.6938430051 
0.34545954415 0.18144193238 1.0441539664 -1.3565475677 0.76769601877 0.01938666826 -1.020188501 -0.16698740255 -0.91817233989 
-0.75763857792 0.49755727731 -1.3138769815 -0.10583345944 0.19903778144 0.48429843392 0.23286510278 -0.21980306377 0.45343487556 
0.74212934809 0.18404869588 0.69683700376 -0.52776860816 -0.29980065008 -0.02616699988 0.15721572743 1.1836253571 -0.47665852706 
1.4344844041 0.29315795732 0.74619782424 1.0983197251 0.13104960467 -1.0110334938 0.23521736303 -0.13756405565 0.43347403828 
-0.68153786985 -0.98026052337 0.84073127621 1.0055440137 -0.094080801584 -0.69190195356 0.64218812967 -0.023739724022 -0.80252360598 
-0.93779142854 -1.3769709576 0.041701342669 0.64171671581 1.239754568 -0.38484910954 0.83701353959 0.16316676658 0.82174482923 
0.8369905262 -0.64078704982 -1.5397319345 -1.7860757545 0.19213517187 0.45761785836 -0.33843970366 0.7362725142 -1.0836457592 
-0.13651227139 -0.85686939952 -1.054551566 -0.41292796118 -0.082307042901 0.97013366681 -0.22656789713 -0.16826487222 1.1948131297 
0.33795755468 0.44335271475 0.40373863717 -0.036483200488 0.21080202121 -0.66639504806 -0.12398698613 1.559729415 0.50906006263 
0.016984626756 0.29130089105 -0.30198363614 0.40814643574 -0.16813113025 -0.33044637078 0.28401230172 0.93520154042 0.61684578076 