# vtk DataFile Version 4.2
Generated by LIGGGHTS
ASCII
DATASET POLYDATA
POINTS 1000 float
1.46679 0.617208 0.499064 2.50467 0.534699 0.0267435 4.51124 0.0740807 0.261833 
3.1385 1.08069 0.575585 4.62729 1.06989 0.193716 0.00701448 1.87741 0.457225 
1.39147 1.56583 0.190776 2.43632 1.8754 0.00637732 4.1302 2.68124 0.0688553 
0.819675 3.30313 0.533541 2.08838 3.17583 0.557158 3.46599 3.46879 0.0648041 
4.82212 3.16842 0.609202 0.0495636 3.94265 0.530447 1.12878 4.33402 0.311176 
3.02282 4.35322 0.220265 2.00296 4.78139 0.100657 4.27782 4.39033 0.178066 
0.0978805 0.537183 1.04129 1.04478 0.228886 1.31871 2.34019 0.368163 0.999159 
3.99479 0.664544 0.882225 0.895113 1.29317 1.12221 1.94999 1.44239 1.05433 
3.64506 1.73198 1.15426 0.879011 2.29103 0.726641 2.75855 2.15314 0.925208 
4.52441 1.95145 0.675698 3.18587 3.07305 1.08798 4.11736 2.71891 1.17107 
2.15359 4.24341 0.932504 3.20694 4.13553 1.27931 0.624855 4.45345 1.17538 
3.8515 4.84154 0.98583 3.24039 0.281217 1.43303 1.83425 0.979599 1.94349 
2.81764 1.19652 1.51772 3.85196 0.993645 1.81588 4.82545 0.875702 1.617 
1.07042 2.07864 1.71904 4.45133 1.92348 1.71566 0.326613 3.52821 1.40986 
1.75076 3.57497 1.55805 4.44546 3.40469 1.82074 4.07536 4.33414 1.82655 
0.872457 0.611475 2.22729 2.71166 0.607686 2.33389 3.55717 0.0734379 2.62425 
4.50185 0.135664 2.29063 4.62156 1.22167 2.55825 0.1408 2.00223 2.44973 
2.05506 2.03441 2.08982 3.24041 1.9262 2.12154 4.14265 2.09939 2.65471 
1.91693 3.07442 2.51989 3.64208 2.91414 2.35615 4.7518 2.91621 2.6381 
0.173753 3.4781 2.65966 1 3.18706 2.09475 0.181023 4.28199 2.05547 
1.14485 4.17641 2.30222 2.37526 4.1393 2.133 3.31726 3.86156 2.32158 
0.404581 0.14548 2.97873 1.42619 0.557544 3.08058 4.1579 0.566202 3.26125 
2.39889 0.661247 3.292 3.52058 1.19182 2.73994 1.15696 1.4504 2.71923 
2.56463 1.49748 2.76722 1.10739 2.44931 2.76135 1.99342 2.33587 3.21155 
2.95049 2.48991 2.94333 3.38523 3.3159 3.30932 0.851836 4.01075 3.24445 
1.82404 4.28686 3.11345 2.84351 4.33982 3.25761 4.26014 3.77319 2.81621 
0.157747 4.88616 2.85202 3.68012 4.72267 2.6794 0.504983 0.576809 3.88269 
3.26949 0.98252 3.68503 1.62974 1.36637 3.65717 2.56305 1.71472 3.79163 
4.26974 1.39636 3.97448 0.0195114 1.99553 3.75404 1.05977 2.18268 3.75608 
3.57771 1.9243 3.47993 0.398637 2.85394 3.40843 2.55147 2.83928 3.907 
1.81138 3.3542 3.47418 4.15262 3.33504 3.95136 3.80903 4.27425 3.94986 
4.43857 4.74976 3.33071 1.502 0.559578 4.26183 4.67948 0.448616 4.10684 
2.50449 0.779308 4.33019 3.75152 0.635763 4.48978 0.458876 1.41776 4.44188 
1.43587 1.48381 4.64465 3.42443 1.58753 4.47357 1.78026 2.39955 4.41517 
4.39337 2.39271 4.21422 0.241148 2.93101 4.56292 3.41785 2.57817 4.33274 
0.983042 3.37018 4.03451 3.34205 3.56586 4.53819 1.552 4.19177 4.07279 
2.49968 3.85598 4.07541 4.91149 4.2492 4.06095 0.590323 4.50363 4.08856 
2.19124 4.95654 4.16015 0.0974033 0.585805 4.86282 1.04731 0.586345 5.18082 
2.07356 0.109311 4.95136 2.1328 1.13355 5.27064 4.5615 1.07753 4.87627 
0.665342 2.17292 5.08185 2.61455 2.04311 4.84815 4.29691 2.00549 5.13873 
4.45622 2.99265 5.11384 1.74375 3.36217 4.68357 0.755237 3.88622 4.86043 
1.92291 4.28802 5.01635 4.25316 3.92006 4.79176 0.186418 4.75102 4.99134 
1.16693 4.90586 4.79981 3.41748 4.47689 4.97636 1.70076 0.505167 5.93551 
2.63409 0.165686 5.80163 3.79739 0.373533 5.45387 4.76265 0.597253 5.73001 
3.13215 1.10974 5.32314 0.0687621 1.38555 5.46739 1.19151 1.44641 5.70197 
3.95918 1.27056 5.86676 1.60182 2.32863 5.41753 2.53565 2.58955 5.71596 
3.36768 3.06176 5.40354 1.87603 3.39548 5.6989 1.11362 4.15716 5.75384 
2.6369 4.05469 5.67961 3.41499 4.60638 5.98565 4.22887 4.98573 5.50343 
1.20544 1.83563 6.64264 2.06028 1.46438 6.25909 3.09057 1.63837 6.34518 
0.433636 2.10392 6.06609 4.09682 2.21422 6.16956 1.43049 2.76231 6.34117 
0.629063 3.28826 6.02672 1.49091 3.73343 6.57733 2.94043 3.46979 6.44727 
4.02035 3.21293 6.1618 4.33059 4.1577 6.05484 0.471396 4.90002 6.16924 
1.69411 4.8856 6.11786 1.54609 0.218554 7.03348 4.59118 0.603493 6.71518 
0.677438 0.994788 6.76197 2.39217 0.769101 6.99583 3.36272 0.736647 6.68231 
4.05689 1.43813 6.85049 3.30638 1.92305 7.29996 4.61223 2.1522 7.27696 
0.33283 2.92836 7.03667 1.88057 2.56986 7.2162 2.7577 2.52333 6.71807 
3.86983 3.00451 7.12823 4.86797 3.0781 6.99792 0.524945 4.07698 6.78495 
2.30361 4.31306 6.67008 3.38315 4.29715 6.93736 4.30227 3.91221 7.02744 
1.08657 4.88754 6.96104 4.84872 4.76524 7.03727 0.467241 0.233552 7.37562 
4.02004 0.38485 7.50637 1.45472 1.17215 7.37715 4.61354 1.16779 7.7263 
0.00572358 1.67451 7.6633 2.31088 1.68974 7.43067 0.901964 2.21674 7.5226 
2.76536 2.60537 7.79995 1.15669 3.33112 7.43561 3.05874 3.49904 7.44539 
0.919242 4.26745 7.72886 2.51795 4.31511 7.65558 4.99771 3.95621 7.74531 
4.20976 4.61177 7.804 0.777719 0.0763214 8.31336 1.718 0.371314 8.00678 
2.7146 0.266644 8.09656 4.92598 0.327634 8.37159 0.690969 1.03348 8.00904 
2.92743 1.24359 8.07937 1.84631 1.32064 8.29941 3.83445 1.66454 8.10886 
4.90589 1.531 8.62384 1.26682 2.31322 8.45175 2.2537 2.19711 8.56394 
3.24767 2.28626 8.6277 0.0171127 2.54582 8.55643 1.84598 3.05864 8.10715 
4.00498 2.64948 8.05327 0.346069 3.65764 8.39145 3.23179 3.2682 8.43913 
2.19771 3.94164 8.52629 3.38485 4.23365 8.22749 4.326 3.76193 8.469 
0.532343 4.77501 8.49963 1.6529 4.78372 8.17249 1.39781 0.536544 8.94916 
3.08962 0.503945 9.0182 4.62495 0.00220093 9.27042 4.15002 0.878874 8.68254 
0.326355 1.32543 8.92608 2.84701 1.47382 9.05243 3.95931 1.76001 9.11931 
4.85812 2.31228 9.28954 2.21433 3.07973 9.03726 4.12208 2.92733 9.00673 
0.666863 3.17357 9.22987 1.18751 4.05665 8.75609 3.55156 3.92984 9.16555 
2.79394 4.57858 9.01874 3.84437 4.89565 9.29412 4.76283 4.70266 8.94341 
0.796027 0.774675 9.7364 1.96751 1.17102 9.47294 3.71677 0.693423 9.80853 
3.43558 1.82779 9.96977 0.193276 2.15852 9.47875 1.41708 2.22403 9.43834 
2.83084 2.75985 9.75682 1.64369 3.63328 9.76814 0.455533 4.15653 9.57027 
4.5703 3.76289 9.4406 0.251 5.27065 0.572002 1.09738 5.34667 0.0376092 
3.95908 5.38986 0.156047 1.3583 6.25091 0.435906 3.34886 6.06721 0.56793 
4.85586 6.06281 0.340157 0.29351 6.33985 0.0788544 2.35442 6.25723 0.523677 
0.866872 7.11566 0.596029 1.94661 7.47116 0.0127405 3.5565 7.01521 0.317029 
4.50432 7.21197 0.0653969 0.661427 7.98486 0.0783574 2.8257 7.68762 0.439552 
3.9822 7.91417 0.561856 0.45692 8.93711 0.363804 2.27413 8.82299 0.441709 
4.26363 8.90163 0.293335 0.759525 9.88956 0.279221 3.5523 9.66781 0.456579 
1.25742 5.21217 1.01616 2.88672 5.16569 0.789619 0.654158 6.01898 1.107 
4.61925 6.00633 1.31074 2.84732 6.85167 1.15906 1.87525 7.08009 0.932654 
4.65565 6.96379 1.0228 0.223811 7.81824 0.974819 2.22099 7.98113 1.21767 
1.39871 8.40347 0.752227 3.39397 8.70036 0.771357 4.50179 8.85343 1.26423 
0.266557 9.56155 1.18162 1.54297 9.42365 0.836749 2.72846 9.44859 1.07738 
4.58978 9.954 1.30344 0.603211 5.17509 1.89981 2.14358 5.54349 1.3419 
3.71657 5.35331 1.83434 4.754 5.02154 1.46142 1.49027 6.38988 1.55111 
2.55754 6.25656 1.90866 3.7152 6.4166 1.43274 0.238055 6.88488 1.39272 
1.10887 7.41221 1.53817 3.49203 7.58847 1.37073 4.49665 7.86672 1.43597 
0.471914 8.6343 1.49681 1.40771 8.34783 1.75103 3.09611 8.44348 1.7063 
3.63906 9.31658 1.52159 1.91846 9.97603 1.87571 1.65832 5.00496 2.07253 
2.8405 5.02196 2.21753 4.53806 5.17239 2.42797 0.607256 6.15581 2.09967 
1.76217 5.94098 2.42616 4.1965 6.10323 2.29628 3.36063 6.64883 2.35732 
0.468443 7.20654 2.31114 1.40961 6.87677 2.42693 2.42147 7.30845 2.00648 
4.19943 7.07347 2.01263 3.32659 7.66048 2.35438 0.705115 8.16943 2.44103 
4.01435 8.36622 2.15579 4.99403 8.12028 2.30058 2.23609 8.82433 2.04655 
3.27848 8.88323 2.64399 4.21431 9.23468 2.61707 0.524436 9.40193 2.13553 
2.85269 9.61184 2.068 1.03823 5.35651 2.79264 2.18246 5.2085 2.9644 
3.27778 5.6091 2.90943 0.86003 6.30541 3.05734 2.45792 6.41625 2.9651 
4.47407 6.39127 3.21382 0.818597 7.28391 3.26302 1.84076 7.49168 3.08991 
3.17113 7.05105 3.26285 4.07208 7.36372 2.96148 1.18408 8.21458 3.31804 
2.60794 8.16539 2.83628 4.41016 8.29554 3.09391 0.0289538 8.82113 2.78721 
1.88707 8.84417 2.98347 1.29329 9.62893 2.7333 2.27493 9.7598 2.87264 
1.29706 5.11927 3.72897 4.64209 5.60507 3.81167 0.176286 5.71574 3.49597 
2.62424 5.72912 3.69511 3.55403 6.09425 3.75008 0.282413 6.64784 3.84304 
1.41053 6.58436 3.84475 2.37029 6.86523 3.86493 4.02231 6.96927 3.89341 
2.38105 7.93638 3.85429 3.4503 8.0276 3.39849 4.58465 7.79621 3.94356 
0.368917 9.14235 3.67118 1.74596 9.05885 3.94991 2.70101 8.9392 3.5698 
3.79936 8.96035 3.52403 1.12524 9.81103 3.70865 2.40576 9.83016 3.96797 
3.34393 9.84996 3.58089 4.6892 9.62291 3.40747 0.119627 5.61843 4.498 
3.19003 5.03144 4.16149 4.15826 5.04303 4.4858 1.09546 5.82915 4.42151 
2.0717 6.04428 4.47022 2.98782 6.47114 4.54637 4.85183 6.37291 4.49907 
0.858374 6.88786 4.62449 3.14998 7.39884 4.20947 0.433022 7.6516 4.13859 
1.43137 7.58731 4.13771 0.938407 8.53896 4.23151 2.40561 8.63995 4.57393 
3.78101 8.14347 4.4276 3.29037 9.06321 4.37864 4.8366 8.80448 4.02086 
4.06358 9.69667 4.34536 2.52209 5.08477 5.09532 3.40493 5.5114 5.29177 
4.90708 5.49368 4.97236 1.66297 5.67879 5.32038 3.91735 6.23643 4.83159 
1.75267 6.96544 5.06528 3.32178 7.20755 5.17737 4.27133 7.17315 4.84603 
0.301452 8.07293 5.31257 1.361 8.08674 5.01704 2.38752 7.73569 5.00067 
4.6762 7.98033 5.27686 0.655374 9.00564 5.24266 4.33148 8.84318 4.88313 
1.23852 9.606 4.68265 3.05223 9.90905 4.87956 0.678114 5.53069 5.42006 
2.46332 5.5132 5.99703 3.84884 6.24147 5.85766 4.82795 5.68588 6.00039 
0.849061 6.52166 5.55498 2.44232 6.30667 5.37005 4.72726 6.53465 5.47985 
0.998875 7.49967 5.7427 2.81041 7.926 5.88686 3.69685 8.10017 5.43985 
1.96181 8.51195 5.69667 2.87941 8.81651 5.43686 0.235612 9.90589 5.58295 
1.53513 9.44882 5.63504 3.63354 9.41767 5.70144 4.53664 9.69177 5.37083 
4.11657 5.21222 6.52044 0.168669 6.21761 6.22179 3.27796 5.76121 6.5247 
1.63123 6.33626 6.14986 0.83177 6.89807 6.53467 1.95013 7.43866 6.06142 
[...]
POINT_DATA 1000
FIELD FieldData 7
id 1 1000 int
24 25 809 32 45 7 909 874 300 
531 20 892 990 116 605 601 117 129 
26 561 62 69 541 626 288 501 130 
939 142 759 109 521 111 147 48 37 
36 43 568 504 927 610 600 175 624 
551 588 59 574 591 17 418 404 776 
255 762 674 251 526 368 841 272 872 
644 562 581 663 61 30 70 508 283 
263 766 767 358 752 419 356 659 545 
87 566 589 235 302 42 50 765 84 
269 408 749 681 197 377 74 598 570 
583 105 294 592 755 79 744 783 769 
286 207 866 262 670 78 82 608 846 
68 584 515 698 276 764 814 215 813 
281 669 833 357 851 838 114 707 104 
268 578 110 571 296 285 322 284 164 
512 554 546 202 12 97 278 580 577 
510 214 307 816 123 868 576 279 782 
277 44 274 72 128 594 532 558 797 
702 630 28 323 703 208 47 557 867 
715 543 506 27 602 529 567 742 658 
511 722 13 552 880 528 556 540 559 
280 505 542 162 236 11 393 120 148 
596 503 139 590 125 544 170 993 747 
735 539 53 656 21 424 604 121 612 
634 229 729 31 67 535 450 514 547 
922 603 599 134 88 86 234 81 635 
855 100 77 593 714 696 491 694 718 
839 243 548 362 5 58 73 242 115 
370 625 716 963 137 22 133 150 654 
640 534 80 52 849 597 646 631 240 
138 144 845 884 140 750 3 29 560 
538 49 365 899 651 378 717 8 141 
108 160 174 633 638 173 502 773 661 
187 46 167 51 380 979 154 375 639 
629 648 636 149 402 682 662 35 905 
684 169 188 261 623 369 415 647 254 
384 171 157 180 172 275 163 182 192 
301 673 582 75 349 781 177 193 788 
791 190 39 917 155 426 920 199 676 
565 342 40 354 292 664 410 902 652 
945 660 446 186 198 637 795 178 291 
195 840 406 789 153 159 919 297 161 
470 474 830 181 347 678 685 858 836 
680 453 211 321 933 948 675 935 456 
335 701 329 666 126 856 85 10 330 
573 737 314 348 807 317 916 709 800 
857 334 689 686 463 200 822 372 827 
332 736 66 219 940 938 831 196 837 
91 971 458 954 203 870 363 988 223 
256 628 103 206 976 691 972 563 224 
996 315 688 961 969 863 708 15 107 
337 999 471 303 210 713 994 861 875 
246 507 555 745 579 586 152 585 237 
225 238 820 99 727 997 231 18 477 
479 63 33 533 486 328 520 132 523 
391 9 92 879 924 252 509 399 616 
683 668 127 146 981 136 490 522 60 
873 1 439 860 655 420 847 364 653 
854 484 995 14 101 405 2 41 575 
881 843 519 194 469 289 650 620 614 
615 316 96 889 385 71 518 102 524 
896 692 311 891 449 815 768 423 862 
83 413 386 23 264 719 929 777 758 
970 345 657 431 290 811 798 812 748 
928 89 952 295 904 757 763 801 774 
468 310 165 304 253 645 877 796 780 
832 257 790 94 258 228 834 775 536 
712 802 56 478 476 425 452 324 461 
333 806 679 779 677 818 106 819 808 
695 743 306 351 184 443 320 427 65 
113 352 55 553 340 325 738 489 985 
829 318 428 312 462 665 338 305 699 
848 326 355 308 220 361 1000 359 564 
4 247 371 343 6 967 667 209 488 
706 191 230 549 859 826 810 38 595 
346 473 957 700 690 218 499 710 704 
241 587 217 513 900 64 57 527 287 
373 741 705 212 496 221 222 201 733 
482 725 54 244 205 271 989 216 95 
642 118 168 270 724 895 227 245 726 
641 119 226 672 122 720 991 379 487 
732 746 721 530 112 572 982 607 248 
606 156 980 632 643 124 299 869 516 
619 93 956 466 968 350 341 233 975 
977 723 852 392 918 617 613 76 740 
794 480 494 493 498 475 844 853 730 
611 761 366 367 267 492 166 249 517 
890 396 401 973 495 912 817 986 621 
383 786 232 395 842 983 145 260 609 
485 265 865 885 569 376 387 282 886 
728 293 360 731 437 987 771 250 770 
400 394 273 756 16 34 151 259 984 
753 143 882 381 754 897 432 500 382 
871 921 901 784 903 914 778 894 403 
907 398 793 390 389 772 876 887 898 
397 185 298 785 878 353 417 436 649 
923 942 430 422 411 883 313 751 906 
414 893 888 438 433 457 189 319 992 
409 435 925 388 787 412 908 926 429 
937 934 792 331 951 442 440 459 309 
915 407 434 943 910 416 950 941 821 
913 448 739 835 447 467 978 421 965 
799 946 944 460 931 803 183 441 949 
176 179 671 451 483 947 454 497 964 
697 455 959 204 693 825 711 537 550 
336 936 974 960 930 444 824 958 864 
804 98 998 687 481 622 911 213 618 
627 158 266 90 805 850 932 472 953 
339 464 966 734 19 135 131 760 465 
955 525 962 445 823 327 828 239 344 
374 
type 1 1000 int
1 1 2 1 1 1 2 2 1 
2 1 2 2 1 2 2 1 1 
1 2 1 1 2 2 1 2 1 
2 1 2 1 2 1 1 1 1 
1 1 2 2 2 2 2 1 2 
2 2 1 2 2 1 1 1 2 
1 2 2 1 2 1 2 1 2 
2 2 2 2 1 1 1 2 1 
1 2 2 1 2 1 1 2 2 
1 2 2 1 1 1 1 2 1 
1 1 2 2 1 1 1 2 2 
2 1 1 2 2 1 2 2 2 
1 1 2 1 2 1 1 2 2 
1 2 2 2 1 2 2 1 2 
1 2 2 1 2 2 1 2 1 
1 2 1 2 1 1 1 1 1 
2 2 2 1 1 1 1 2 2 
2 1 1 2 1 2 2 1 2 
1 1 1 1 1 2 2 2 2 
2 2 1 1 2 1 1 2 2 
2 2 2 1 2 2 2 2 2 
2 2 1 2 2 2 2 2 2 
1 2 2 1 1 1 1 1 1 
2 2 1 2 1 2 1 2 2 
2 2 1 2 1 1 2 1 2 
2 1 2 1 1 2 1 2 2 
2 2 2 1 1 1 1 1 2 
2 1 1 2 2 2 1 2 2 
2 1 2 1 1 1 1 1 1 
1 2 2 2 1 1 1 1 2 
2 2 1 1 2 2 2 2 1 
1 1 2 2 1 2 1 1 2 
2 1 1 2 2 1 2 1 1 
1 1 1 2 2 1 2 2 2 
1 1 1 1 1 2 1 1 2 
2 2 2 1 1 2 2 1 2 
2 1 1 1 2 1 1 2 1 
1 1 1 1 1 1 1 1 1 
1 2 2 1 1 2 1 1 2 
2 1 1 2 1 1 2 1 2 
2 1 1 1 1 2 1 2 2 
2 2 1 1 1 2 2 1 1 
1 2 1 2 1 1 2 1 1 
1 1 2 1 1 2 2 2 2 
2 1 1 1 2 2 2 2 1 
1 2 1 2 1 2 1 1 1 
2 2 1 1 2 1 2 2 2 
2 1 2 2 1 1 2 1 2 
1 2 1 1 2 2 2 1 2 
1 2 1 2 1 2 1 2 1 
1 2 1 1 2 2 2 2 1 
2 1 2 2 2 2 2 1 1 
1 2 1 1 1 2 2 2 2 
1 2 2 2 2 2 1 2 1 
1 1 2 1 2 2 1 1 1 
1 1 1 2 1 1 2 1 2 
1 1 1 2 2 1 2 1 2 
2 2 1 1 2 1 1 2 1 
2 1 1 2 2 1 2 1 2 
2 1 2 1 1 1 1 1 2 
2 2 2 1 1 1 2 2 2 
2 1 1 2 1 1 2 1 2 
2 2 1 2 1 2 2 1 2 
1 1 1 1 1 2 2 2 2 
2 1 2 1 1 2 2 2 2 
2 1 2 1 2 2 2 2 2 
1 1 1 1 1 2 2 2 2 
2 1 2 1 1 1 2 2 2 
2 2 1 1 1 1 1 1 1 
1 2 2 2 2 2 1 2 2 
2 2 1 1 1 1 1 1 1 
1 1 1 2 1 1 2 1 2 
2 1 1 1 1 2 1 1 2 
2 1 1 1 1 1 2 1 2 
1 1 1 1 1 2 2 1 1 
2 1 1 2 2 2 2 1 2 
1 1 2 2 2 1 1 2 2 
1 2 1 2 2 1 1 2 1 
1 2 2 1 1 1 1 1 2 
1 2 1 1 1 1 2 1 1 
2 1 1 1 2 2 1 1 2 
2 1 1 2 1 2 2 1 1 
2 2 2 2 1 2 2 2 1 
2 1 2 2 2 1 1 2 2 
2 1 2 1 2 1 1 1 2 
2 2 2 1 2 2 2 1 2 
2 1 1 1 1 1 2 2 2 
2 2 1 1 1 1 1 1 2 
2 1 1 2 1 2 2 2 2 
1 2 1 1 2 2 1 1 2 
1 1 2 2 2 1 1 1 2 
2 1 1 2 1 2 2 1 2 
1 1 1 2 1 1 1 1 2 
2 1 2 1 2 2 1 1 1 
2 2 2 2 2 2 2 2 1 
2 1 2 1 1 2 2 2 2 
1 1 1 2 2 1 1 1 2 
2 2 1 1 1 2 1 2 2 
1 2 2 1 1 1 1 1 2 
1 1 2 1 2 1 2 2 1 
2 2 2 1 2 1 1 1 1 
2 1 1 2 2 1 2 2 2 
2 1 2 2 1 1 2 1 2 
2 2 2 1 2 2 1 1 2 
1 1 2 1 1 2 1 1 2 
2 1 2 1 2 2 2 2 2 
1 2 2 2 2 1 2 2 2 
2 1 2 2 1 2 2 1 2 
2 1 1 1 2 2 2 1 2 
1 1 2 2 1 1 1 2 1 
2 2 2 1 2 1 2 1 1 
1 
i 3 1000 int
0 0 0 0 0 0 0 0 0 
0 0 0 0 0 0 0 0 0 
1 0 0 1 0 0 1 0 0 
0 0 0 0 0 0 1 0 0 
1 0 1 0 0 1 0 0 1 
0 0 1 0 0 1 0 0 0 
0 0 0 0 0 0 0 0 0 
0 0 0 0 0 0 0 0 0 
1 0 0 0 0 0 0 0 0 
1 0 0 0 0 0 1 0 0 
0 0 1 0 0 0 0 0 1 
0 0 0 0 0 0 0 0 0 
0 0 0 0 0 0 0 0 0 
0 0 0 1 0 0 0 0 1 
0 0 1 0 0 0 0 0 0 
0 0 0 0 0 0 0 0 0 
0 0 0 0 0 0 0 0 0 
1 0 0 1 0 0 1 0 0 
1 0 0 1 0 0 0 0 0 
1 0 0 0 0 0 1 0 1 
1 0 1 1 0 0 1 0 0 
0 1 0 0 0 0 0 0 0 
0 1 0 0 0 0 0 0 0 
0 0 0 0 0 0 1 0 0 
1 0 0 1 0 0 1 0 0 
1 0 1 1 0 0 1 0 0 
1 0 1 0 0 0 0 0 0 
0 0 0 0 0 0 0 0 0 
0 0 0 1 0 0 0 0 0 
0 0 0 1 0 0 0 0 0 
1 0 0 1 0 0 1 0 0 
0 0 0 0 1 0 0 0 0 
0 0 0 0 0 0 0 0 0 
0 0 0 0 0 0 1 0 0 
0 0 0 1 0 0 0 0 0 
1 0 0 1 0 0 1 0 0 
1 0 0 0 0 0 1 0 1 
1 0 0 0 1 0 0 0 0 
0 0 0 0 0 0 0 0 0 
0 0 0 0 0 0 0 0 -1 
0 0 0 1 0 0 1 0 0 
1 0 0 0 0 0 1 0 0 
1 0 0 0 0 0 0 0 0 
0 0 0 0 0 0 0 0 0 
0 0 0 0 1 0 0 0 0 
0 0 -1 0 0 0 0 0 0 
0 0 0 1 0 0 1 0 0 
1 0 0 1 0 0 0 0 0 
0 0 -1 0 0 -1 0 0 -1 
0 1 0 0 0 -1 0 0 0 
1 0 0 0 0 0 0 0 0 
0 0 -1 0 0 0 1 0 0 
1 0 0 0 0 0 0 0 0 
0 0 0 0 0 -1 0 0 -1 
0 0 -1 0 0 -1 0 0 -1 
0 0 0 0 0 0 0 0 0 
0 0 -1 0 0 -1 1 0 0 
0 0 0 0 0 -1 0 0 -1 
1 0 0 0 0 0 0 1 0 
0 0 -1 0 0 -1 0 0 0 
0 1 0 0 0 -1 0 0 -1 
0 0 -1 0 0 0 0 0 -1 
0 0 0 0 0 0 0 0 -1 
0 0 -1 0 1 0 0 0 -1 
0 0 -1 0 1 -1 0 0 -1 
0 0 -1 0 0 -1 0 0 -1 
0 0 -1 0 0 -1 0 0 -1 
0 0 -1 0 1 0 0 0 -1 
1 0 -1 0 0 0 0 0 -1 
0 0 0 0 0 -1 0 0 -1 
0 0 0 0 0 0 0 0 -1 
0 1 -1 0 1 0 0 0 -1 
0 1 0 0 0 -1 0 0 -1 
0 0 -1 0 0 -1 1 0 -1 
0 0 0 0 0 0 0 0 -1 
0 0 -1 0 0 0 0 0 0 
0 0 -1 0 0 -1 0 0 -1 
1 0 -1 0 0 -1 0 0 -1 
1 0 -1 0 0 0 0 0 0 
0 0 -1 0 0 1 0 0 1 
0 0 1 0 0 1 0 0 0 
0 -1 1 0 0 1 0 0 1 
0 0 1 0 0 1 0 0 1 
0 0 1 0 0 1 0 0 1 
0 -1 1 0 0 1 0 -1 0 
0 -1 1 0 -1 0 0 -1 0 
0 0 1 0 0 1 0 0 1 
0 -1 1 0 0 0 0 0 1 
0 0 1 0 0 0 0 -1 0 
0 0 0 0 0 0 0 0 0 
0 0 0 0 -1 0 0 -1 0 
0 -1 0 1 0 1 0 0 1 
0 0 0 0 0 0 0 0 1 
0 0 0 0 0 0 1 0 1 
1 0 0 0 0 0 0 -1 0 
0 -1 0 0 -1 0 0 -1 0 
0 -1 0 0 -1 0 1 0 1 
1 0 0 0 0 0 1 0 1 
0 0 1 0 -1 0 0 0 0 
0 0 1 0 0 0 0 0 0 
0 0 0 0 0 0 0 0 0 
0 -1 0 0 -1 0 0 0 0 
0 0 0 0 -1 0 0 0 0 
0 -1 0 1 0 1 1 0 1 
0 0 0 1 0 1 0 0 0 
0 0 0 0 0 0 0 0 0 
0 0 0 0 0 0 0 0 0 
0 0 0 0 -1 0 1 0 0 
0 0 0 0 0 0 0 0 0 
1 0 0 0 0 0 1 0 1 
1 0 0 0 0 0 1 0 0 
1 0 0 0 0 0 0 0 0 
0 0 0 0 0 0 0 -1 0 
0 0 0 0 0 0 0 0 0 
0 -1 0 0 0 0 0 -1 0 
0 -1 0 0 -1 0 1 0 0 
0 0 0 0 0 0 1 0 0 
1 0 0 0 0 0 0 -1 0 
1 0 0 0 0 0 1 0 0 
1 0 0 0 0 0 0 0 0 
0 -1 0 0 -1 0 0 -1 0 
0 -1 0 1 0 0 0 0 0 
0 0 0 1 0 0 0 0 0 
1 0 0 0 0 0 0 0 0 
0 0 0 0 0 0 0 0 0 
0 -1 0 0 0 0 0 -1 0 
0 0 0 0 -1 0 1 0 0 
1 0 0 0 0 0 0 0 0 
1 0 0 1 0 0 0 0 0 
1 0 0 0 0 0 0 -1 0 
0 0 0 0 -1 0 0 0 0 
0 0 0 0 -1 0 0 -1 0 
0 0 0 1 0 0 0 0 0 
1 0 0 1 0 0 1 0 0 
0 0 0 0 0 0 0 0 0 
0 -1 0 0 0 0 0 -1 0 
0 0 0 0 -1 0 0 -1 0 
0 -1 0 0 -1 -1 0 -1 0 
0 0 0 0 0 0 1 0 0 
1 0 0 1 0 0 1 0 0 
0 0 0 0 0 0 1 0 0 
0 -1 0 0 -1 0 0 0 0 
0 0 0 0 0 0 0 0 0 
0 -1 0 0 -1 0 0 -1 0 
1 0 0 0 0 0 0 0 0 
0 0 0 0 0 0 0 0 0 
1 0 0 0 0 0 1 0 0 
0 0 0 0 0 0 0 0 0 
0 0 0 0 0 0 0 -1 0 
0 -1 0 0 0 0 0 0 0 
0 -1 -1 0 0 -1 0 0 0 
0 0 0 0 0 0 0 0 0 
0 0 0 0 0 0 0 0 0 
0 0 0 1 0 0 0 0 0 
0 0 0 0 0 0 0 -1 0 
0 0 0 0 -1 -1 0 0 0 
1 0 0 0 0 0 0 0 0 
1 0 0 0 0 0 0 0 0 
0 0 0 0 -1 0 0 0 -1 
0 0 0 0 -1 -1 0 -1 -1 
0 -1 -1 0 0 0 0 0 0 
0 0 -1 0 0 0 0 0 0 
0 0 0 0 0 0 0 -1 0 
0 0 0 0 0 0 0 0 0 
0 0 0 0 -1 -1 0 0 0 
0 0 0 0 -1 -1 0 -1 -1 
0 -1 -1 0 1 1 0 1 1 
-1 0 0 -1 1 0 -1 0 0 
0 1 0 -1 0 0 0 0 0 
0 1 0 1 0 0 0 0 0 
-1 0 0 0 1 0 0 0 0 
0 0 0 0 0 0 -1 0 1 
-1 1 0 0 1 1 -1 1 0 
0 1 1 -1 0 0 0 0 0 
0 1 0 -1 0 0 0 0 0 
0 0 1 0 0 0 0 0 0 
0 0 1 0 0 1 0 0 0 
0 0 1 0 1 1 0 1 1 
-1 0 0 0 0 0 0 1 0 
-1 0 0 -1 0 0 0 0 0 
0 1 0 0 0 1 -1 0 0 
0 0 0 0 0 0 0 0 0 
0 0 0 0 0 0 0 0 0 
0 0 0 0 0 0 0 0 0 
0 1 0 0 1 0 -1 0 0 
-1 0 0 0 0 0 0 0 0 
0 1 0 0 0 0 0 0 0 
0 1 0 0 0 0 0 0 0 
0 0 0 0 0 0 0 0 1 
0 0 0 0 1 0 0 1 0 
-1 0 0 0 0 0 0 0 0 
0 0 0 0 0 0 0 0 0 
0 0 0 0 0 0 0 0 0 
0 0 0 0 0 0 0 0 0 
0 0 0 0 0 0 0 0 0 
0 1 0 0 0 0 0 0 0 
0 0 0 0 1 0 0 0 0 
0 0 0 0 0 0 0 0 0 
0 0 0 0 0 0 0 0 0 
0 0 0 0 0 0 0 0 0 
0 0 0 0 0 0 0 0 0 
0 0 0 0 0 0 0 0 0 
0 0 0 0 0 0 0 0 0 
0 0 0 0 0 0 -1 0 0 
0 0 0 0 0 0 0 0 0 
0 0 0 0 0 0 0 0 0 
0 0 0 0 0 0 0 0 0 
0 0 0 0 0 0 -1 1 0 
0 0 0 -1 1 0 0 0 0 
0 0 0 0 0 0 0 0 0 
0 0 0 0 0 0 0 0 0 
0 0 0 0 0 0 0 0 0 
0 0 0 0 1 0 -1 0 0 
0 0 0 0 0 0 -1 0 0 
-1 0 0 0 0 0 0 0 0 
0 0 0 0 0 0 0 0 0 
0 0 0 0 0 0 0 0 0 
0 0 0 0 1 0 -1 1 0 
0 0 0 0 0 0 -1 1 0 
0 0 0 0 0 0 0 0 0 
0 0 0 -1 1 0 0 0 0 
0 0 0 0 0 0 -1 0 0 
0 0 -1 0 0 0 0 0 0 
0 0 0 0 0 -1 0 0 0 
-1 1 0 -1 1 0 0 1 0 
-1 1 0 -1 1 0 -1 1 0 
-1 0 0 0 0 0 0 0 0 
0 0 0 0 0 -1 0 0 0 
0 0 0 0 1 0 0 1 0 
-1 1 0 -1 1 0 -1 1 0 
0 1 0 -1 1 0 -1 1 0 
-1 1 0 -1 0 0 -1 1 0 
0 0 -1 0 0 -1 -1 0 0 
-1 0 0 0 0 -1 0 0 -1 
0 0 0 -1 1 0 -1 1 0 
-1 1 0 0 1 0 -1 1 0 
-1 1 0 -1 1 0 -1 1 0 
0 1 0 -1 1 0 0 0 -1 
-1 1 0 -1 1 0 0 0 -1 
0 1 0 -1 1 0 -1 0 0 
0 0 -1 -1 0 0 0 0 -1 
0 0 -1 -1 1 0 0 1 -1 
-1 1 0 -1 1 0 -1 1 0 
0 0 -1 -1 0 0 -1 1 0 
0 0 -1 -1 0 0 -1 1 0 
0 1 0 0 1 0 0 1 0 
-1 1 0 0 0 -1 -1 1 0 
-1 0 -1 -1 0 0 0 0 -1 
0 1 0 -1 0 0 -1 1 0 
-1 0 0 0 0 -1 0 1 0 
0 0 -1 0 0 -1 -1 0 0 
0 0 0 0 0 1 0 0 0 
0 0 0 -1 0 1 0 0 1 
0 0 1 0 0 1 0 0 1 
0 0 1 -1 0 1 0 0 1 
0 0 1 0 0 1 0 0 1 
0 0 0 0 0 0 0 0 0 
0 0 0 -1 0 1 0 0 1 
0 0 0 0 0 1 0 0 1 
0 0 1 0 0 1 0 0 1 
0 0 1 0 0 1 -1 0 1 
-1 0 0 0 0 0 0 0 1 
0 0 1 0 0 0 0 0 1 
0 0 0 0 0 0 0 0 0 
0 0 0 0 0 0 0 0 0 
0 0 1 0 0 1 0 0 0 
0 -1 0 0 0 1 -1 0 0 
0 0 0 0 0 0 0 0 1 
0 0 0 0 0 1 0 0 1 
0 0 0 0 0 0 0 0 1 
0 0 1 0 0 0 0 0 1 
0 0 0 0 -1 0 0 0 1 
0 0 0 0 0 0 0 0 0 
0 0 1 0 0 0 0 0 1 
0 0 1 0 0 0 0 0 1 
0 0 0 0 -1 0 0 0 0 
0 0 0 0 0 0 0 0 0 
0 -1 0 -1 -1 0 -1 -1 0 
0 0 0 0 0 0 0 0 1 
0 0 0 0 0 0 0 0 0 
0 0 0 0 0 0 0 0 0 
0 0 0 0 0 1 0 0 0 
0 0 0 0 0 0 0 0 0 
0 -1 0 0 0 0 0 0 0 
0 0 0 0 0 0 0 0 0 
0 0 0 0 0 0 0 0 0 
0 0 0 0 0 0 0 0 0 
0 0 0 0 0 0 0 0 0 
0 0 0 -1 0 0 0 -1 0 
0 -1 0 0 0 0 0 -1 0 
0 0 0 0 0 0 -1 0 0 
0 0 0 0 0 0 0 0 0 
0 0 0 0 0 0 0 0 0 
0 0 0 0 -1 0 0 0 0 
0 0 0 0 0 0 0 0 0 
0 0 0 0 0 0 0 0 0 
-1 0 0 0 -1 0 0 0 0 
0 0 0 0 0 0 0 0 0 
0 0 0 0 -1 0 0 0 0 
0 0 0 0 0 0 0 0 0 
0 0 0 0 0 0 0 -1 0 
0 -1 0 0 0 0 0 0 0 
0 0 0 0 0 0 0 0 0 
0 0 0 0 0 0 0 0 0 
0 0 0 0 0 0 0 0 0 
0 0 0 0 0 0 0 -1 0 
0 0 0 0 0 0 0 0 0 
0 0 0 0 0 0 0 0 0 
0 0 0 0 0 0 0 0 0 
0 0 0 0 0 0 0 0 0 
0 0 0 0 0 0 0 -1 0 
-1 0 0 0 0 0 0 0 0 
-1 0 0 -1 0 0 -1 0 0 
0 0 0 0 0 0 0 0 0 
0 0 0 0 0 0 0 0 0 
-1 0 0 0 0 0 0 0 0 
-1 0 0 -1 0 0 0 0 0 
0 0 0 0 0 -1 0 0 -1 
0 0 0 0 0 0 0 0 0 
0 0 0 0 0 0 0 0 0 
0 0 0 0 0 0 0 0 0 
0 0 0 -1 0 0 0 0 0 
-1 0 0 0 0 0 0 0 -1 
0 0 -1 -1 1 0 0 0 -1 
0 0 -1 0 0 -1 0 0 -1 
-1 0 0 0 0 0 0 0 0 
0 0 0 0 0 0 0 0 0 
0 0 0 0 0 0 0 0 0 
-1 0 0 0 0 -1 0 0 -1 
0 0 -1 0 0 -1 0 0 0 
0 0 0 0 0 -1 0 0 0 
0 0 0 0 0 0 0 0 0 
0 0 0 -1 0 0 0 0 0 
0 0 0 
v 3 1000 double
-0.034354420977 0.012991748044 -0.062837557913 -0.031304979442 -0.012904204983 -0.080003172305 -0.019803771151 -0.088571497733 -0.062560422252 
-0.0038670298328 -0.030353677468 -0.097586474102 -0.031100220661 -0.078007816841 -0.088070325915 0.0033138666449 0.04523166252 -0.003868559154 
-0.045608408006 0.007369682199 -0.052168716899 -0.015150192481 0.0045172386459 -0.038794484721 0.062406302205 -0.032283803955 -0.11308901842 
0.024768866952 0.045854714805 0.031501236831 0.04438625308 -0.016032829226 0.0052843838768 0.060287806768 -0.05867251227 -0.031161992366 
0.064645804024 -0.073134322717 -0.067660339609 0.040342636546 0.063992483749 0.01630295191 0.035606308084 0.033837958969 0.009285340755 
0.041965801508 -0.074028607684 0.034048786794 0.06162912958 0.0088452212017 0.04847854034 0.034954658113 -0.094842127945 -0.030584658716 
-0.050337399593 0.054765482999 0.048014948679 -0.021585541439 0.029820013268 -0.046621141854 -0.031625069142 -0.038034602335 -0.085460943736 
-0.0047638523357 -0.035798985878 -0.098379027165 0.00072613136606 0.044363553067 -0.066729067551 0.033170544063 -0.0034134042036 -0.086114907338 
0.043530602967 -0.070272376434 -0.096066407647 0.011498174337 0.040303374936 -0.022418425878 0.061905655276 -0.010497458776 -0.05587345422 
0.055096108993 -0.046241822576 -0.10073860909 0.047242582311 -0.083913866542 -0.044602300715 0.050786036845 -0.083006956727 -0.075325472829 
0.05788352782 0.0064603266339 0.051420259803 0.058077813507 -0.10612411633 -0.00261977515 0.051225866875 0.052429939689 0.023256820694 
0.05939833297 -0.1071826488 -0.0023205847634 -0.018650287709 -0.064811062558 -0.10236177052 -0.010230840321 -0.014868440552 -0.090441671892 
0.024665124904 -0.037148765462 -0.084469575999 -0.0032184586968 -0.077522971838 -0.083155466057 -0.0062626327341 -0.059892147116 -0.099570656875 
0.010556360706 0.0077297551499 -0.0050462141203 0.040604121244 -0.098015383604 -0.075510555169 0.046219134734 0.055865068082 0.030668871577 
0.093361952633 -0.020999505041 0.046371404015 0.074574394002 -0.080159137315 -0.090115508148 0.057682662174 -0.084108093918 0.006956093508 
-0.025130946755 0.014825220254 -0.04592074454 -0.00060937769298 -0.020242885002 -0.069746232206 -0.036515259253 -0.041783477201 -0.10485927858 
0.0096818324539 -0.06242423935 -0.019893603751 0.029477645718 -0.10034772988 -0.087787362621 0.028940956261 0.028548804964 0.021493862897 
0.042323044752 -0.007364442702 -0.071597670837 0.082731345334 -0.070159319989 -0.097002947503 0.060402193393 -0.080860914014 -0.072633966662 
0.056028578332 0.016756582548 -0.0052010578489 0.061195458877 -0.076664307601 -0.069718865251 0.031928503176 -0.060353682108 -0.060540688674 
0.06719422734 0.042663802317 -0.004473611216 0.044851101526 0.018200028066 0.012662849617 0.076583626523 0.063813322266 0.036834856623 
0.069428194199 0.026267276226 0.0354922796 0.052188558181 -0.070772463488 -0.0045179338393 0.052165911482 -0.077536274414 -0.013722685626 
0.014509311899 0.022868370115 -0.013806633752 -0.011785963153 0.0012500868485 -0.04503023913 -0.023538450248 -0.050270449725 -0.088918737255 
-0.0047321756371 0.0072617028656 -0.081776546024 0.043709130171 -0.061138281667 -0.066755079612 0.011595907262 0.0056714159022 -0.052821111657 
0.022311522005 -0.017737479353 -0.0637791202 0.039312403143 0.0068194171891 0.0013711291748 0.031633239674 -0.018753625407 -0.016331152063 
0.018800588901 -0.048992694213 -0.093151726192 0.025293742043 -0.054832531924 -0.074913814081 0.06176281178 0.028022837256 0.034033931905 
0.04613090186 0.011946433424 0.0079937885631 0.066278979878 0.02068622153 -0.0039789175433 0.028227828844 -0.061817715784 -0.059794333529 
0.037090857785 0.030462885819 0.051412126421 0.043191200053 -0.072861149643 -0.01335340289 -0.01235082685 0.010082966917 -0.0013085694021 
0.013731171153 -0.057278582084 -0.073376486673 0.047663393959 -0.0045686429589 -0.04168933386 0.062619793901 -0.033905895147 -0.041149289165 
-0.0085102979451 -0.058489226056 -0.097262969312 -0.0084080107557 0.049142779207 -0.011660780595 0.033875057613 -0.01785997854 -0.0036314053574 
0.020727069745 -0.029881246686 -0.075512342706 0.059653308923 0.014694398389 -0.021684337162 0.044688432118 -0.04039183643 -0.077393871626 
0.033292191792 0.0068177664902 -0.0044855353484 0.01545768152 -0.072210399338 -0.061020693834 0.053163478103 -0.057844409416 -0.048020621384 
0.041579816321 -0.067826267807 -0.030171453862 -0.0083453123058 0.021742516428 -0.055790934898 -0.00077878692902 -0.076175654038 -0.11166813619 
0.038916786328 0.0033537576354 -0.074261411374 0.005095639843 -0.07581269167 -0.073729967974 -0.0262615351 0.032583068052 -0.016629779996 
-0.01928327732 0.015045590311 -0.045576804165 -0.0049916545234 -0.06968358058 -0.081164766853 0.054224347116 -0.0096719409238 -0.028234796659 
0.019888013217 -0.059016573834 -0.10929687901 0.039650988755 0.024679395138 0.0071893170559 0.025490242046 -0.06338696731 -0.051764723596 
0.047404366165 -0.019953563666 0.01995152205 0.024374249621 -0.059983953785 -0.044578709217 0.022763365015 -0.0033791796351 0.0057622882261 
0.028712476919 -0.015726155204 -0.032650925719 0.076535874647 -0.026220143422 -0.0084666545166 0.03576355654 0.031379168106 0.019500045717 
0.048675810187 -0.025507848267 0.033521190385 -0.015617148526 0.03791175751 0.0053623414954 0.0027462778401 0.0077110358922 -0.048840185634 
-0.0030874347655 0.002209396036 -0.053057313378 -0.04014809938 -0.038816056642 -0.051132245183 0.021661896884 -0.06050569019 -0.10525113739 
0.034153896585 0.014151071835 -0.011814282561 0.027567239383 -0.032688954356 -0.045985541511 -0.00069126787055 -0.071772395444 -0.095843699119 
0.035775223067 -0.074881584843 -0.079006702106 0.054084627868 -0.026622425989 0.012956898161 0.069016998217 0.015428133467 0.0033667625302 
0.02739734829 -0.022741386591 0.017629435406 0.031573411819 -0.072276909413 -0.023468258803 0.06856653363 0.0051045723915 0.050269256193 
0.037549507951 -0.0028740794232 0.038909868751 0.025306207057 -0.080170265151 0.0052729729221 -0.034405735228 -0.012789686306 -0.014832685647 
-0.04641901583 -0.041225677032 -0.048892066196 -0.052570061584 -0.031133415439 -0.074623188066 -0.0084254029465 -0.01796861214 -0.071923924504 
-0.041138048077 -0.023507998288 -0.098399893121 -0.020756040748 0.033971878432 0.011114713503 -0.043882968887 0.01886384877 -0.04080130004 
-0.035763025589 -0.018914358956 -0.10538291156 0.041958936203 0.0025675581185 -0.017135692562 -0.020939671412 -0.050824807856 -0.040861175852 
0.0030378030233 -0.090314498572 -0.058620278898 0.05896842251 0.026487946936 0.016918608705 0.031529993236 0.020010397454 0.01728693605 
0.059272447559 -0.027935431495 -0.024117671084 0.03727741276 -0.010811720069 0.0094211684977 0.028373448487 -0.014158957387 0.0075271110779 
-0.001389078195 0.015230083569 -0.02111556659 -0.088447237623 0.020640826207 -0.05476985514 -0.04777568294 -0.032727360135 -0.11890383509 
-0.014569358724 0.040528780874 0.0015244815657 -0.052564752649 -0.019871397114 -0.092403139247 -0.0043289162158 0.016936088645 -0.031750364322 