# vtk DataFile Version 4.2
Generated by LIGGGHTS
ASCII
DATASET POLYDATA
POINTS 1000 float
0.546606 0.136429 0.307751 2.19925 0.173374 0.573085 3.8929 0.374152 0.472087 
1.41095 0.725327 0.248884 3.03615 0.990652 0.167168 2.10617 1.41418 0.638859 
4.72148 1.63015 0.188781 0.0189703 2.08942 0.483314 1.02666 2.44395 0.582071 
2.97795 1.90417 0.607615 2.31032 3.09566 0.58358 4.98721 2.87567 0.331923 
0.264693 4.21127 0.659215 3.20342 3.97943 0.291 4.39344 3.94455 0.0139634 
1.30193 4.49437 0.358341 2.25372 4.80685 0.36967 4.15769 4.92773 0.10615 
1.01007 0.370974 1.16245 3.11883 0.0707904 1.02813 4.78775 0.550733 1.31259 
2.9081 1.04243 1.1577 0.863185 1.49587 0.868715 3.87097 1.37399 0.649242 
4.33133 2.3086 0.832972 0.252599 2.94936 1.00117 3.4369 2.75494 0.864703 
1.01784 3.52662 0.674806 3.44331 3.69061 1.21815 2.4216 4.25938 1.1944 
4.15316 4.32651 0.906387 0.901087 4.65691 1.2918 3.26269 4.77385 0.989806 
1.78654 0.907655 1.49278 3.80167 0.685896 1.43856 3.61133 1.67973 1.57608 
4.63211 1.53742 1.39416 1.1232 2.11729 1.69381 2.25355 2.01161 1.71413 
0.139233 2.96372 1.9986 4.7852 3.03538 1.36571 0.562508 3.74753 1.5373 
2.06783 3.36303 1.53065 4.37767 3.92572 1.79485 3.97882 4.88648 1.73325 
2.71012 0.487822 1.9764 0.755405 0.706162 2.07007 3.6094 1.02196 2.3806 
4.66069 0.817408 2.26816 1.23973 1.48339 2.47425 2.66457 1.39603 2.3954 
4.39549 1.77871 2.34388 0.347279 2.09396 2.51468 3.03509 2.3273 2.44223 
2.19653 3.05927 2.50573 3.9102 2.58221 1.98033 4.82942 2.67645 2.42017 
1.22334 3.24598 2.09566 3.56111 3.50133 2.19303 1.42442 4.17083 2.41875 
2.62576 3.91535 2.21789 0.522267 4.55935 2.22967 2.01175 4.94462 2.18149 
3.07593 4.80737 2.17731 3.8943 4.36004 2.58343 4.84357 4.71965 2.20694 
0.399292 0.32588 2.93555 1.37283 0.570135 2.86073 4.14719 0.268476 2.92778 
2.36654 0.62404 2.9595 3.31078 0.682596 3.29367 3.68187 1.80604 3.06732 
1.25828 2.45828 2.71074 2.17226 2.20856 3.03075 3.49758 2.99814 3.05495 
0.471505 3.67076 2.68689 4.47235 3.55749 2.73195 2.09606 4.32707 3.17069 
3.12373 4.3991 3.25808 4.68779 4.44458 3.18989 4.66165 0.0532964 3.76958 
0.433319 0.637691 3.88579 4.21891 1.07438 3.51988 1.82041 1.3438 3.40217 
2.80668 1.59743 3.50397 1.17613 2.1317 3.65466 4.44599 2.036 3.67802 
0.686027 2.95838 3.36147 2.76079 2.70915 3.66757 4.25742 3.01792 3.70484 
1.96648 3.36807 3.43132 0.108138 4.11891 3.50376 1.09746 4.08272 3.35969 
2.68293 3.831 3.95324 4.00732 3.98436 3.76428 3.76752 0.333541 4.12044 
1.46378 0.657431 4.04063 2.61721 0.756724 4.01145 4.58181 0.824425 4.44707 
0.350108 1.52978 4.33054 1.34029 1.55889 4.46736 3.48855 1.29272 4.1689 
2.01576 2.33357 4.24091 2.80778 1.86613 4.63922 3.57083 2.28712 4.09695 
0.394242 3.15009 4.67388 1.24021 3.27493 4.13437 3.47942 3.29695 4.26979 
4.43258 3.611 4.63317 1.71478 4.15758 4.14283 0.803848 4.68757 4.18339 
2.45698 4.78635 4.38134 3.4522 4.76045 4.13366 4.48857 4.59269 4.44981 
1.01777 0.608286 4.94769 1.95625 0.0545323 4.67827 3.59795 0.163058 5.13704 
0.0313608 0.781317 4.9142 1.93047 1.00273 5.05629 2.92436 0.903131 4.95186 
4.22518 1.72774 4.69363 0.646948 2.21576 4.99575 1.62815 2.27089 5.28203 
3.48186 2.64271 5.02808 4.6461 2.63464 4.67072 2.02032 3.20595 4.75671 
1.076 3.94947 4.88597 2.04161 4.17063 5.08885 3.63916 4.15541 4.90844 
0.483111 4.81324 5.18737 1.44147 4.96287 4.94402 1.50763 0.495209 5.81974 
4.66769 0.495918 5.39898 3.81069 1.11399 5.36563 0.958433 1.43008 5.54124 
1.88268 1.47045 5.94193 2.88719 1.50997 5.7485 4.76949 1.3461 5.91798 
2.60137 2.42271 5.45552 3.88443 2.04827 5.73976 4.82115 2.40157 5.65025 
4.05717 3.03669 5.77017 2.0625 3.4361 5.76716 0.22207 3.87073 5.40103 
1.29281 4.24075 5.81851 2.9011 3.93543 5.54901 4.34209 3.99346 5.90058 
4.34482 4.91287 5.49571 4.44204 0.389928 6.37884 0.457505 1.16412 6.55919 
2.13241 0.706633 6.57191 3.07517 0.66004 6.24098 3.87116 1.25595 6.35366 
0.348069 2.2495 6.13956 1.19076 1.89016 6.55407 2.46991 2.38331 6.46922 
1.42027 2.78651 6.1745 4.72599 2.98523 6.52199 0.628682 3.40223 6.18611 
1.5742 3.73177 6.63273 2.93514 3.24891 6.27671 2.4088 4.28539 6.57672 
0.638146 4.86352 6.26289 1.75302 5.00244 6.27502 3.50051 4.58822 6.01898 
0.0692985 0.519328 7.2877 1.32679 0.240021 6.96676 3.76518 0.1031 7.05725 
1.18706 1.19048 7.27026 4.30306 1.05242 7.23233 2.08651 1.61637 6.98858 
3.07547 1.63639 6.82547 4.45699 2.02847 6.6736 0.3222 3.03334 7.06416 
1.63234 2.60855 7.1553 3.75071 2.87245 6.71634 2.86999 3.3391 7.29113 
0.562203 4.07019 6.93226 3.3307 4.2387 6.9731 4.22172 3.78067 6.8731 
1.18127 4.84937 7.10283 4.98117 4.51654 6.84155 1.44959 0.354916 7.95282 
2.43758 0.164205 7.82531 2.62112 1.14412 7.73157 3.54133 1.53653 7.70474 
0.659211 2.15151 7.39976 2.5695 2.35663 7.4639 3.79398 2.50225 7.6445 
4.78876 2.61741 7.70516 1.10807 3.47613 7.52482 2.55248 4.25642 7.61356 
1.05009 4.41168 7.99234 4.20022 4.59848 7.65601 0.474956 0.290429 8.18272 
4.53097 0.236629 8.02502 3.77347 0.805346 8.34628 0.41301 1.27653 8.02586 
1.5303 1.32002 8.20223 4.54293 1.42401 8.12922 0.999001 2.37622 8.31389 
2.03179 2.13896 8.48555 3.03937 2.1619 8.32519 0.136364 2.79763 8.59517 
1.82366 3.02084 8.05914 3.86389 2.70126 8.62254 3.05422 3.16398 8.25862 
4.33374 3.48308 8.13312 0.385788 3.83043 8.4623 2.14689 3.88361 8.44836 
3.43791 4.11559 8.10393 1.81878 4.86104 8.44834 1.1193 0.583653 8.8908 
2.88394 0.399001 8.68894 0.0779823 1.70762 8.89318 1.77185 1.25828 9.23726 
2.66991 1.36931 8.81108 3.82649 1.71208 8.7651 1.29518 2.39461 9.26887 
4.73785 2.21617 8.70929 2.04193 3.02738 9.04097 3.66715 3.62026 8.96581 
4.63492 3.4453 9.18155 1.2218 4.18532 9.0081 2.86652 4.21535 9.08205 
0.569666 4.95828 8.74055 3.89506 4.56237 9.21291 4.82869 4.39817 8.88479 
2.33017 0.503196 9.63112 0.486797 0.926682 9.65301 3.55544 0.625477 9.39451 
4.49392 0.710352 9.72983 1.16927 1.65497 9.93003 3.35503 1.79825 9.64304 
2.36299 1.90256 9.79668 2.89595 2.71199 9.5499 4.37438 2.51732 9.60231 
0.666122 3.4236 9.36401 1.70221 3.59868 9.89328 3.72198 3.20832 9.91358 
0.368127 4.48853 9.64523 3.16235 4.91851 9.94912 1.34845 5.4952 0.297454 
3.59491 5.63168 0.558453 0.332893 6.65393 0.490378 1.5061 6.43772 0.60242 
3.66435 6.75205 0.554105 2.96167 7.46138 0.611584 4.58667 6.96101 0.228619 
2.00328 7.57386 0.213343 3.93187 7.82807 0.575041 0.451077 8.31536 0.265301 
2.08764 8.56834 0.276875 3.09948 8.46843 0.52496 0.145375 9.24031 0.50074 
4.09083 8.7612 0.22662 3.36227 9.4526 0.239587 0.442065 5.39988 0.715207 
1.60012 5.37244 1.25904 4.80125 5.54684 1.33772 0.806564 6.1623 1.26182 
2.40986 6.00853 0.74181 3.01498 6.58585 1.29638 4.60659 6.52634 1.13933 
0.934944 7.38637 0.812824 2.16236 7.05039 1.05041 0.0947089 7.94714 1.34271 
2.18252 8.04633 1.15049 1.27001 8.33282 0.843848 4.45694 8.46011 1.14523 
1.4246 9.32214 0.737793 2.55929 9.27052 0.810626 3.56084 8.96961 1.30335 
0.0299488 9.78334 1.33249 4.32251 9.60172 1.14989 2.59858 5.34194 1.4759 
3.88043 5.91615 1.49028 1.83122 6.28361 1.60063 0.251653 6.9794 1.57703 
1.1965 7.39628 1.78136 3.64279 7.35629 1.40914 4.63318 7.49261 1.43209 
1.23247 8.40644 1.84548 2.22686 8.67659 1.92603 3.07046 8.15236 1.6098 
0.400864 8.87956 1.55377 1.88433 9.89441 1.48409 2.76082 9.50912 1.77578 
0.914542 5.45973 2.04123 1.92245 5.88517 2.51334 2.83857 6.06104 2.1292 
4.44082 5.62674 2.33143 0.745423 6.42395 2.24733 1.61451 6.85178 2.51282 
4.2987 6.75739 2.06398 0.492615 7.38242 2.49337 2.48453 7.09156 2.05497 
3.39075 7.33445 2.42314 2.54549 7.96312 2.5507 4.02237 8.02926 2.07575 
4.99226 7.77414 2.34366 0.65876 8.35369 2.66471 3.10258 8.79787 2.44694 
4.09056 8.96795 2.41385 0.424146 9.5663 2.28043 3.55672 9.96516 2.17583 
4.55152 9.80742 2.12577 0.321918 5.02443 3.10448 1.27158 5.32868 3.02979 
2.54372 5.20279 2.98901 3.57487 5.26176 2.97596 2.66802 6.18827 3.10695 
4.45618 6.13388 3.22406 0.0453422 6.8714 3.26545 0.928181 6.28949 3.22392 
3.62055 6.3065 2.70208 4.15405 7.14568 3.04565 1.87621 7.51111 3.22017 
3.37727 7.88412 3.28078 1.84666 8.72482 2.85357 4.36896 8.12282 3.06369 
4.635 9.16224 3.24735 1.34688 9.58348 2.66661 2.34536 9.65067 2.67431 
3.24225 9.70071 3.11489 1.55414 5.32065 3.99041 2.85054 5.5564 3.87878 
4.84177 5.27888 3.77522 0.356413 5.71194 3.88375 3.84704 5.69283 3.9215 
2.40796 6.74788 3.97662 4.0825 6.6811 3.99302 0.934482 7.28211 3.46828 
3.26522 6.90712 3.46289 4.71718 7.44479 3.87272 2.56947 7.79579 3.88347 
1.23377 8.23645 3.4749 4.72076 8.44428 3.99578 0.309634 9.24413 3.86114 
1.65458 9.11339 3.75558 2.65095 8.84269 3.44023 3.69377 8.83185 3.32166 
1.03302 9.87813 3.58526 2.3826 9.84811 3.66588 2.15682 5.94767 4.52882 
3.16944 6.18553 4.58867 0.40436 6.6672 4.17616 1.41929 6.5886 4.04431 
3.1902 7.18798 4.41972 0.514439 7.7101 4.28117 1.56713 7.59715 4.17827 
3.84912 7.95803 4.2201 0.924613 8.62071 4.34521 2.2078 8.61711 4.42795 
3.18281 8.8085 4.28778 4.97556 9.33405 4.38954 1.06532 9.5865 4.56328 
2.90494 9.77044 4.53238 4.01732 9.36517 4.10328 0.173941 5.71098 4.86947 
1.1647 5.9219 4.75338 4.09 5.95443 4.90457 0.989185 7.05031 4.89113 
1.89363 6.94784 5.31287 4.27756 6.94015 4.93898 1.26529 7.99826 5.05024 
2.39656 7.74767 4.97968 2.72778 8.63798 5.29288 4.2478 8.60005 4.88366 
4.41001 9.55342 5.18485 2.5168 5.00833 5.35865 3.44434 5.37942 5.40814 
0.818453 5.6489 5.66897 1.8068 5.69542 5.5187 3.90137 6.13612 5.87588 
0.0660566 6.46359 5.52178 1.04612 6.65696 5.80943 2.62578 6.26831 5.48606 
4.84872 6.36967 5.53085 3.37329 6.92168 5.36661 0.963403 7.65615 5.96944 
3.57021 7.9042 5.35166 4.5744 7.77583 5.4011 0.253563 8.14775 5.45298 
1.68492 8.55079 5.77057 0.531795 9.16347 5.35082 3.51372 9.22629 5.48647 
0.0116297 9.99782 5.53578 1.44535 9.55123 5.49538 2.41573 9.95941 5.57978 
2.59874 5.53282 6.21039 4.18779 5.06623 6.56942 4.92535 5.51421 6.04482 
0.343083 6.39507 6.48024 1.74146 6.30558 6.45444 1.90339 7.29199 6.25177 
2.8394 6.91656 6.27122 4.28004 7.0341 6.10193 2.6863 7.87335 6.01385 
3.60493 7.72639 6.47425 4.83042 7.815 6.39814 0.753021 8.60982 6.18771 
4.11489 8.44447 6.00008 1.40512 9.27183 6.56166 2.49131 8.85238 6.28035 
[...]
POINT_DATA 1000
FIELD FieldData 7
id 1 1000 int
5 62 69 24 32 626 939 7 501 
130 20 990 116 601 129 605 117 234 
561 48 568 36 541 288 759 1 142 
531 521 109 147 111 242 37 43 404 
927 504 418 519 175 610 600 624 646 
588 551 61 591 30 70 776 17 263 
255 762 674 526 872 841 272 368 365 
899 659 651 644 562 581 663 87 50 
508 283 766 251 419 358 752 681 377 
545 235 566 589 42 592 765 84 408 
269 253 767 286 749 598 197 74 846 
570 583 105 294 584 79 755 744 783 
215 769 866 262 177 193 78 82 851 
670 608 114 515 68 578 571 698 276 
764 814 669 813 281 833 838 268 104 
554 546 848 110 12 361 510 296 318 
285 322 214 164 868 576 279 782 277 
202 512 594 97 558 278 580 577 702 
307 816 284 208 123 47 557 867 543 
44 274 72 128 532 529 797 630 28 
323 703 13 552 556 559 506 27 393 
54 602 742 567 511 722 880 747 528 
540 280 505 542 162 236 11 424 148 
139 120 596 503 125 544 170 735 67 
539 53 547 656 21 612 134 121 634 
590 229 729 25 31 535 45 909 450 
874 922 300 604 603 892 599 152 86 
635 100 81 696 718 491 714 839 694 
548 150 243 362 58 88 73 370 115 
77 625 963 593 716 137 22 133 654 
534 80 538 640 52 597 144 240 845 
884 140 750 29 661 560 3 49 51 
849 717 138 8 378 160 633 108 174 
638 662 502 773 173 187 46 167 59 
574 356 380 979 154 639 629 360 375 
141 402 636 172 684 35 349 169 188 
75 261 415 623 369 647 171 157 648 
149 275 180 682 40 163 182 192 301 
673 582 791 190 254 384 155 426 920 
565 199 676 342 353 195 840 354 781 
788 652 917 945 446 198 637 347 291 
836 292 664 406 902 153 313 919 297 
161 660 470 830 795 186 181 178 858 
678 685 357 789 680 159 453 321 948 
675 456 474 335 943 701 329 126 856 
85 10 330 835 573 737 314 317 211 
916 935 933 709 334 800 689 686 363 
822 463 200 372 827 332 66 219 940 
938 348 807 196 971 91 857 870 223 
988 256 736 206 831 691 458 837 224 
996 688 954 315 961 969 863 958 875 
745 15 628 999 976 337 103 972 471 
563 210 994 861 507 555 533 993 579 
107 586 237 585 225 238 820 99 727 
997 477 231 18 479 713 246 63 33 
809 486 328 520 490 132 391 523 9 
924 252 879 509 399 607 616 683 980 
653 127 730 981 136 146 26 522 60 
873 439 860 655 420 364 631 847 484 
995 101 14 405 2 692 575 881 41 
194 843 469 289 650 768 614 615 620 
316 854 96 889 71 102 385 524 896 
518 929 311 449 891 657 423 431 815 
383 413 928 386 295 23 719 264 970 
777 758 468 345 877 811 290 798 903 
748 89 952 904 757 302 56 712 801 
763 310 774 207 165 304 645 796 333 
780 94 832 257 790 258 228 834 775 
802 476 478 425 452 324 461 806 679 
113 779 818 106 819 536 695 743 306 
351 184 489 923 443 320 427 65 677 
352 55 707 808 553 1000 359 325 4 
340 738 985 829 6 428 338 462 305 
665 699 230 326 355 308 220 859 564 
247 371 343 473 179 671 667 209 710 
488 499 706 191 513 241 826 549 810 
38 595 957 700 218 690 482 715 704 
587 217 900 989 658 64 527 373 57 
496 212 222 201 221 733 725 244 205 
271 95 642 216 168 270 118 705 741 
724 746 895 227 245 112 641 572 726 
226 672 119 622 122 379 991 487 720 
732 92 721 530 514 982 248 156 606 
632 643 124 723 668 855 135 299 869 
131 760 962 619 956 93 968 350 975 
828 977 341 233 852 617 392 918 613 
76 740 516 494 480 466 493 475 853 
817 844 611 761 395 366 367 492 794 
517 890 396 973 498 569 621 912 862 
232 786 983 145 267 485 249 166 401 
885 986 376 495 387 282 886 728 842 
731 260 437 609 265 771 250 400 770 
865 394 273 905 83 756 16 34 151 
259 984 753 381 143 293 754 987 897 
432 500 921 871 784 812 894 914 39 
398 403 907 882 793 390 389 772 876 
887 382 785 417 878 901 436 649 410 
942 778 422 883 751 906 414 893 898 
298 438 397 185 457 319 992 312 411 
430 925 412 388 908 926 888 934 429 
792 433 951 189 331 442 967 409 915 
459 309 787 435 407 910 434 416 937 
821 913 666 448 739 447 440 421 467 
946 965 799 931 944 803 950 441 941 
183 949 176 451 287 346 978 947 454 
497 455 460 204 203 693 483 825 711 
537 550 336 960 974 964 959 444 697 
998 687 481 98 708 911 213 936 627 
158 266 850 932 930 472 953 824 464 
864 804 339 966 734 618 19 90 465 
955 525 805 445 823 303 327 239 344 
374 
type 1 1000 int
1 1 1 1 1 2 2 1 2 
1 1 2 1 2 1 2 1 1 
2 1 2 1 2 1 2 1 1 
2 2 1 1 1 1 1 1 1 
2 2 1 2 1 2 2 2 2 
2 2 1 2 1 1 2 1 1 
1 2 2 2 2 2 1 1 1 
2 2 2 2 2 2 2 1 1 
2 1 2 1 1 1 2 2 1 
2 1 2 2 1 2 2 1 1 
1 1 2 1 2 2 1 1 2 
2 2 1 1 2 1 2 2 2 
1 2 2 1 1 1 1 1 2 
2 2 1 2 1 2 2 2 1 
2 2 2 2 1 2 2 1 1 
2 2 2 1 1 1 2 1 1 
1 1 1 1 2 2 1 2 1 
1 2 2 1 2 1 2 2 2 
1 2 1 1 1 1 2 2 2 
1 1 1 1 2 2 2 2 1 
1 2 1 2 2 2 2 1 1 
1 2 2 2 2 2 2 2 2 
2 1 2 2 1 1 1 1 1 
1 1 2 2 1 2 1 2 1 
2 1 2 2 1 2 1 1 2 
2 1 2 1 1 2 1 2 1 
2 2 1 2 2 2 2 1 1 
2 1 1 2 2 1 2 2 2 
2 1 1 1 1 1 1 1 1 
1 2 2 2 2 1 1 1 2 
2 1 2 2 1 2 1 1 2 
2 1 2 1 2 2 1 1 1 
2 2 1 1 1 1 2 1 1 
2 2 2 2 1 1 1 1 1 
2 1 1 2 1 2 2 1 1 
1 1 2 1 2 1 1 1 1 
1 1 1 2 1 2 1 1 2 
1 1 1 2 1 1 1 1 1 
2 2 2 1 1 1 1 1 2 
2 1 2 1 1 1 2 1 2 
2 2 2 2 1 1 2 1 1 
2 1 2 1 2 1 1 2 1 
1 2 1 2 2 1 1 1 2 
2 2 1 2 2 1 1 1 2 
2 1 1 1 2 2 1 1 2 
1 1 1 2 2 2 1 1 1 
2 2 2 2 1 2 2 2 1 
2 1 1 1 2 1 1 1 2 
2 1 2 1 2 1 2 2 1 
2 1 2 1 2 2 1 2 1 
2 2 2 1 2 2 2 2 2 
2 1 2 2 2 1 1 2 1 
2 1 2 2 2 2 2 2 2 
1 2 1 2 1 1 2 1 2 
2 1 1 1 1 2 1 1 1 
2 1 1 2 1 1 1 2 1 
2 1 2 2 1 2 2 2 2 
2 1 2 2 1 1 1 2 1 
2 1 2 2 1 1 2 2 1 
2 1 1 1 1 2 2 2 1 
1 2 1 1 2 2 2 2 2 
1 2 1 2 1 1 1 2 2 
2 2 1 1 2 2 1 1 2 
1 1 2 1 1 1 2 1 2 
2 2 1 1 2 2 1 2 2 
2 1 2 2 2 1 1 2 2 
2 1 2 1 1 1 2 2 1 
2 1 2 1 2 1 1 2 2 
2 1 1 1 1 1 1 2 2 
1 2 2 1 2 2 2 2 1 
1 1 1 2 1 1 1 1 2 
1 1 2 2 2 2 1 1 1 
1 2 2 2 1 1 1 1 1 
2 2 1 1 1 1 1 2 2 
1 1 1 1 1 2 2 1 2 
1 1 2 1 2 1 2 2 2 
1 2 2 2 1 2 1 2 2 
2 1 2 2 2 1 2 1 1 
1 1 1 1 1 2 2 1 1 
1 1 2 1 1 1 1 2 2 
2 2 2 1 1 1 2 2 2 
1 2 1 2 1 1 2 1 2 
2 1 2 2 2 2 1 1 2 
2 2 1 2 2 2 1 1 2 
1 2 2 2 2 1 2 1 2 
2 2 1 1 2 2 1 2 2 
1 2 2 1 1 1 1 1 2 
2 2 2 2 1 1 1 1 2 
2 2 1 2 1 2 2 2 2 
1 2 2 1 1 1 1 1 1 
2 2 1 1 1 1 2 2 2 
2 1 1 2 1 2 1 1 2 
2 1 1 2 1 2 1 1 1 
1 2 2 1 1 1 2 2 2 
1 1 2 2 2 2 2 2 1 
1 1 2 2 2 1 1 2 2 
2 1 2 1 2 2 1 2 1 
2 2 1 2 2 2 1 2 2 
1 1 1 1 1 1 2 1 1 
1 2 1 1 2 2 2 2 1 
2 1 2 1 1 1 2 1 2 
1 1 2 1 1 2 1 1 2 
2 2 2 1 2 1 1 1 1 
2 2 2 2 2 2 2 1 2 
1 2 1 1 1 1 2 2 1 
1 1 1 1 1 2 1 2 2 
2 2 1 2 2 2 2 1 2 
2 2 1 1 2 2 1 2 2 
1 1 2 2 2 1 2 2 1 
2 2 1 2 2 2 1 1 1 
2 2 2 1 2 1 1 1 1 
1 
i 3 1000 int
0 0 0 0 0 0 0 0 0 
0 0 0 0 0 0 0 0 0 
1 0 0 0 0 0 0 0 0 
0 0 0 0 0 0 1 0 1 
0 0 1 0 0 1 0 0 0 
0 0 1 0 0 1 0 0 1 
0 0 0 0 0 0 0 0 0 
0 0 0 0 0 0 1 0 0 
1 0 0 0 0 0 0 0 0 
0 0 0 0 0 0 0 0 1 
0 0 0 0 0 1 0 0 1 
0 0 0 0 0 0 1 0 0 
1 0 0 0 0 0 1 0 0 
0 0 0 0 0 0 0 0 1 
0 0 1 0 0 0 0 0 0 
0 0 0 0 0 0 0 0 0 
0 0 0 0 0 0 0 0 0 
1 0 0 0 0 0 1 0 0 
1 0 0 1 0 0 0 0 0 
0 0 0 1 0 0 1 0 1 
1 0 0 1 0 1 1 0 1 
1 0 0 0 0 0 0 0 0 
0 1 0 0 0 0 0 0 0 
0 1 0 0 0 0 0 0 0 
0 0 0 1 0 0 1 0 0 
1 0 0 1 0 0 1 0 1 
1 0 0 0 0 0 0 0 0 
0 0 0 0 0 0 0 0 0 
0 0 0 0 0 0 0 0 0 
1 0 0 0 0 0 1 0 0 
1 0 0 1 0 0 1 0 0 
1 0 0 1 0 0 0 0 0 
0 1 0 0 0 0 0 0 0 
0 0 0 0 0 0 0 0 0 
1 0 0 0 0 0 0 0 0 
1 0 0 1 0 0 1 0 0 
0 0 0 1 0 0 1 0 1 
1 0 0 0 0 0 0 0 0 
0 0 0 0 0 0 0 0 0 
0 1 0 0 0 0 0 0 0 
0 0 -1 0 0 0 0 0 0 
0 0 0 0 0 0 1 0 0 
1 0 0 1 0 0 0 0 0 
1 0 0 1 0 0 0 0 0 
0 0 0 0 0 -1 0 0 0 
0 0 -1 0 0 -1 0 0 0 
0 0 0 0 0 -1 0 0 0 
0 0 -1 1 0 0 1 0 0 
1 0 0 1 0 0 0 0 0 
0 0 0 0 0 0 0 0 0 
0 0 -1 0 0 -1 0 0 -1 
0 1 0 0 0 -1 0 0 0 
0 0 0 0 0 -1 1 0 0 
0 0 0 0 0 0 0 0 0 
1 0 0 1 0 0 1 0 0 
0 1 0 0 0 0 0 0 -1 
0 0 -1 0 0 0 0 0 -1 
0 0 -1 0 0 -1 0 0 0 
0 0 0 0 0 -1 0 0 -1 
1 0 0 0 0 -1 0 0 -1 
1 0 0 0 0 0 0 0 -1 
0 0 -1 0 0 -1 0 0 -1 
0 0 -1 0 0 -1 1 0 -1 
0 0 -1 0 0 0 0 0 0 
0 0 0 0 0 -1 0 1 0 
0 1 -1 0 0 -1 0 0 -1 
0 0 -1 0 0 -1 0 0 -1 
0 0 -1 0 0 -1 0 1 0 
0 0 -1 1 0 -1 0 0 -1 
0 0 -1 0 0 0 0 0 0 
0 0 -1 0 0 0 0 0 -1 
0 1 -1 0 1 0 0 0 -1 
0 0 -1 0 0 -1 0 0 -1 
0 0 -1 0 0 -1 0 0 -1 
0 0 -1 0 0 0 0 0 -1 
0 0 0 0 0 0 0 0 0 
0 0 -1 0 0 -1 0 0 -1 
0 0 -1 1 0 -1 1 0 -1 
1 0 -1 1 0 -1 1 0 -1 
0 0 0 0 0 0 1 0 -1 
0 0 0 0 0 -1 0 0 1 
0 0 0 0 0 1 0 0 1 
0 0 1 0 0 1 0 0 1 
0 0 1 0 -1 1 0 0 1 
0 -1 0 0 0 0 0 0 1 
0 -1 1 0 -1 0 0 0 1 
0 0 1 0 -1 1 0 0 1 
0 0 1 0 0 0 0 0 1 
0 0 1 0 0 1 0 0 0 
0 -1 0 0 0 0 0 0 0 
0 -1 0 0 -1 0 0 -1 0 
0 0 0 0 -1 0 0 0 1 
0 0 0 0 0 1 1 0 1 
1 0 0 0 0 0 0 -1 0 
0 -1 0 0 0 0 0 -1 0 
0 -1 0 0 -1 0 0 -1 0 
1 0 1 0 0 1 0 0 0 
0 -1 0 1 0 1 0 0 0 
0 0 0 0 0 1 0 0 0 
0 0 0 0 0 0 0 -1 0 
0 -1 0 0 0 0 0 0 0 
0 -1 0 0 0 0 0 -1 0 
0 -1 0 1 0 1 1 0 1 
1 0 1 0 0 0 0 0 0 
0 0 0 1 0 1 1 0 1 
0 0 0 0 0 0 0 0 0 
0 0 0 0 0 0 0 -1 0 
0 -1 0 0 0 0 0 0 0 
0 -1 0 1 0 0 1 0 0 
0 0 0 1 0 1 0 0 0 
0 0 0 0 0 0 0 0 0 
0 0 0 0 -1 0 0 0 0 
0 0 0 0 -1 0 0 0 0 
0 0 0 0 0 0 0 -1 0 
0 0 0 0 -1 0 1 0 0 
0 0 0 1 0 0 1 0 0 
0 0 0 1 0 0 1 0 0 
0 -1 0 0 0 0 0 0 0 
0 -1 0 0 -1 0 0 0 0 
0 -1 0 0 -1 0 1 0 0 
1 0 0 0 0 0 1 0 0 
1 0 0 0 0 0 0 0 0 
0 0 0 0 -1 0 0 -1 0 
0 -1 0 1 0 0 0 0 0 
1 0 0 1 0 0 0 0 0 
1 0 0 1 0 0 1 0 0 
0 0 0 0 0 0 1 0 0 
0 -1 0 0 -1 0 0 0 0 
0 0 0 0 0 0 0 -1 0 
0 0 0 0 0 0 0 -1 0 
1 0 0 0 0 0 0 0 0 
1 0 0 1 0 0 1 0 0 
0 0 0 0 0 0 0 0 0 
0 -1 0 0 0 0 0 0 0 
0 -1 0 0 -1 0 0 -1 0 
0 -1 0 0 -1 -1 0 -1 0 
1 0 0 0 0 0 0 0 0 
1 0 0 1 0 0 0 0 0 
0 0 0 0 0 0 1 0 0 
0 0 0 0 -1 0 1 0 0 
0 0 0 0 0 0 0 -1 0 
0 -1 0 0 0 0 0 0 0 
0 -1 0 0 -1 0 1 0 0 
0 0 0 0 0 0 0 0 0 
0 0 0 1 0 0 1 0 0 
0 0 0 0 0 0 0 0 0 
0 -1 0 0 -1 0 0 0 0 
0 0 0 0 -1 -1 0 0 0 
0 0 0 1 0 0 0 0 0 
0 0 0 1 0 0 0 0 0 
0 0 0 0 0 0 0 0 0 
1 0 0 0 0 0 0 0 0 
0 -1 0 0 0 0 0 0 -1 
0 -1 -1 0 -1 -1 0 0 -1 
0 0 0 0 0 0 1 0 0 
0 0 0 0 0 0 0 0 0 
0 0 0 0 0 0 0 0 0 
0 -1 0 0 -1 -1 0 -1 -1 
0 -1 -1 0 0 0 0 0 0 
0 0 0 0 0 0 0 0 0 
0 0 0 0 0 0 0 0 0 
0 -1 0 0 0 0 0 0 0 
0 0 0 0 0 0 0 0 0 
0 -1 -1 0 0 0 0 0 0 
0 0 0 0 -1 -1 0 -1 -1 
0 -1 -1 0 1 1 0 1 1 
-1 0 0 0 1 1 -1 1 0 
0 1 0 -1 0 0 -1 0 0 
1 0 0 0 0 0 0 1 0 
-1 0 0 0 1 0 -1 0 1 
0 0 0 0 0 0 0 1 1 
0 0 0 -1 0 1 -1 1 1 
0 1 1 -1 1 0 -1 1 0 
-1 0 0 -1 0 0 0 0 0 
0 1 0 0 0 0 0 0 1 
0 0 0 0 0 0 0 0 1 
0 0 0 0 0 1 0 1 1 
0 1 1 0 0 0 -1 0 0 
0 1 0 -1 0 0 0 0 0 
0 0 0 0 1 0 -1 0 0 
0 0 0 0 0 1 0 0 0 
0 0 0 0 0 0 0 0 0 
0 0 0 0 0 0 0 0 0 
0 0 0 0 0 1 0 0 0 
0 1 0 -1 0 0 0 0 0 
0 1 0 0 0 0 0 1 0 
-1 0 0 0 0 0 0 0 0 
0 0 0 0 1 0 0 0 0 
0 0 0 0 0 0 0 0 0 
0 0 0 0 1 0 0 1 0 
0 1 0 0 0 0 -1 0 0 
0 0 0 0 0 0 0 0 0 
0 0 0 0 0 0 0 0 0 
0 0 0 0 0 0 0 0 0 
0 0 0 0 0 0 0 1 0 
0 0 0 0 0 0 0 0 0 
0 1 0 0 0 0 0 0 0 
0 0 0 0 0 0 0 0 0 
0 0 0 0 0 0 0 0 0 
0 0 0 0 0 0 0 0 0 
0 0 0 0 0 0 0 0 0 
0 0 0 0 0 0 0 0 0 
0 0 0 0 0 0 0 0 0 
0 0 0 0 0 0 0 0 0 
0 0 0 0 0 0 0 0 0 
0 0 0 0 0 0 0 0 0 
0 0 0 0 0 0 -1 1 0 
0 0 0 0 0 0 0 0 0 
0 0 0 0 0 0 -1 0 0 
0 0 0 0 0 0 0 0 0 
0 0 0 0 0 0 0 0 0 
0 0 0 0 0 0 0 0 0 
0 1 0 -1 0 0 -1 1 0 
0 0 0 -1 0 0 -1 1 0 
0 0 0 -1 0 0 0 0 0 
0 0 0 0 0 0 0 0 -1 
0 0 0 0 0 0 0 0 0 
0 0 0 0 0 -1 0 0 0 
0 0 0 0 1 0 0 0 0 
-1 1 0 -1 1 0 -1 1 0 
0 0 0 0 0 0 0 0 0 
-1 1 0 0 0 0 -1 0 0 
0 0 0 0 0 0 0 0 0 
0 1 0 -1 1 0 -1 1 0 
-1 1 0 -1 1 0 -1 1 0 
0 1 0 0 1 0 -1 1 0 
-1 1 0 0 0 -1 -1 1 0 
0 0 0 -1 0 0 0 0 0 
0 0 -1 0 0 0 0 1 0 
-1 1 0 -1 1 0 -1 1 0 
0 1 0 -1 1 0 -1 1 0 
-1 0 0 -1 1 0 0 0 -1 
0 1 0 0 0 -1 -1 0 0 
0 0 -1 0 0 0 -1 0 0 
0 1 0 -1 1 0 -1 1 0 
-1 1 0 -1 1 0 -1 1 0 
-1 1 0 -1 1 0 -1 1 0 
0 0 -1 -1 0 0 0 0 -1 
-1 1 0 0 0 -1 0 0 -1 
-1 0 0 -1 1 0 -1 1 0 
-1 1 0 0 0 -1 0 1 -1 
-1 1 0 -1 1 0 -1 0 0 
0 0 -1 0 0 -1 -1 1 0 
-1 1 0 0 0 -1 -1 0 0 
0 0 -1 -1 0 0 0 1 0 
0 1 0 0 1 0 -1 1 0 
-1 1 0 0 0 -1 -1 1 0 
-1 0 -1 -1 0 -1 0 1 0 
-1 1 0 0 0 -1 -1 0 0 
0 0 -1 0 0 -1 -1 0 0 
0 0 1 0 0 0 0 -1 1 
0 0 0 0 0 0 0 0 1 
0 0 0 0 0 0 0 0 1 
0 0 0 0 0 1 -1 0 1 
0 0 1 0 0 1 0 0 1 
0 0 1 0 0 1 0 0 1 
-1 0 1 0 0 1 0 0 0 
0 0 0 0 0 0 0 0 0 
-1 0 1 0 0 1 0 0 0 
0 0 1 0 0 1 0 0 1 
0 0 1 0 0 1 0 0 1 
0 -1 0 0 0 1 -1 0 0 
0 0 0 0 0 0 0 0 1 
0 0 1 0 0 1 0 0 0 
0 0 0 0 0 0 0 0 0 
0 0 1 0 0 1 0 -1 0 
-1 0 0 0 0 0 0 0 1 
0 0 1 0 0 0 0 0 1 
0 0 0 0 0 0 0 0 1 
0 0 0 0 0 0 0 0 0 
0 0 0 0 0 1 0 0 1 
0 0 1 0 0 0 0 0 0 
0 0 0 0 0 1 0 0 1 
0 0 1 0 0 0 0 0 0 
0 0 1 0 0 0 0 0 0 
0 -1 0 0 0 0 0 0 0 
0 0 1 0 0 0 0 0 0 
0 0 0 0 -1 0 0 -1 0 
-1 -1 0 -1 -1 0 0 0 0 
0 0 0 0 0 1 0 0 0 
0 0 0 0 0 0 0 0 0 
0 0 0 0 0 1 0 0 0 
0 0 0 0 0 1 0 0 0 
0 0 0 0 -1 0 0 -1 0 
0 0 0 0 0 0 0 -1 0 
0 0 0 0 0 0 0 0 0 
0 0 0 0 0 0 0 0 0 
0 0 0 0 0 0 0 0 0 
0 0 0 0 0 0 0 -1 0 
0 0 0 0 0 0 0 0 0 
0 0 0 -1 0 0 0 0 0 
0 0 0 0 0 0 0 0 0 
0 0 0 0 -1 0 0 0 0 
0 0 0 0 0 0 0 0 0 
0 -1 0 0 0 0 0 0 0 
-1 0 0 0 0 0 0 -1 0 
0 0 0 0 0 0 0 0 0 
0 0 0 0 0 0 0 0 0 
0 0 0 0 0 0 0 0 0 
0 0 0 0 0 0 0 0 0 
0 -1 0 0 0 0 0 0 0 
-1 0 0 0 -1 0 0 0 0 
0 0 0 0 0 0 0 0 0 
0 0 0 0 0 0 0 -1 0 
0 0 0 0 0 0 0 0 0 
0 0 0 0 0 0 0 0 0 
0 -1 0 0 0 0 -1 0 0 
0 0 0 0 0 0 0 0 0 
0 0 0 0 0 0 0 0 0 
0 0 0 0 0 0 0 0 0 
0 0 0 0 0 0 0 -1 0 
0 0 0 0 0 0 0 0 0 
-1 0 0 0 0 0 -1 0 0 
0 0 0 0 0 -1 0 0 0 
0 0 0 0 0 0 0 0 0 
0 0 0 0 0 0 0 0 0 
-1 0 0 -1 0 0 -1 0 0 
0 0 0 0 0 0 0 0 0 
0 0 -1 0 0 -1 0 0 0 
0 0 0 0 0 0 0 0 0 
0 0 0 0 0 0 -1 0 0 
0 0 0 -1 0 0 0 0 0 
-1 0 0 -1 0 0 0 0 -1 
-1 1 0 0 0 0 0 0 -1 
0 0 -1 0 0 -1 0 0 0 
0 0 0 0 0 0 0 0 0 
0 0 0 0 0 0 0 0 0 
0 0 0 0 0 0 0 0 0 
0 0 0 -1 0 0 0 0 -1 
0 0 -1 -1 0 0 0 0 0 
0 0 0 0 0 -1 0 0 0 
0 0 0 0 0 0 0 0 0 
0 0 0 -1 0 0 0 0 0 
0 0 0 
v 3 1000 double
-0.016470833668 0.03940036364 -0.026941202033 -0.022506271407 -0.039163206844 -0.088280433075 -0.011415126416 -0.057936507886 -0.083140794358 
-0.0094758255624 0.02584008236 -0.049402056009 -0.032624847842 -0.0095356476503 -0.07120245142 0.017870443972 -0.020930731592 -0.062515800119 
0.0065898825683 -0.065265267431 -0.096890129502 0.002060946554 0.041387776668 0.0084695425858 0.040388742941 0.02471115911 -0.032847159672 
0.042452986204 -0.061751002267 -0.067501641398 0.04438625308 -0.016032829226 0.0052843838768 0.0028418079555 -0.025760962425 -0.053926468508 
0.041940962454 0.049408791148 0.027923218618 0.022899383791 -0.074988720106 -0.018198235353 0.033996524337 -0.068837678002 -0.041728066278 
0.027889219477 0.020221121362 0.010421576188 0.037454457498 0.0017918723208 0.06142554036 0.04692667094 -0.082265253979 -0.010561810863 
-0.015246057045 0.014547748484 -0.019269728681 -0.02322703525 -0.013359598611 -0.07252679906 -0.014557426897 -0.074474242897 -0.025095053035 
0.001157651589 -0.018882571824 -0.065850060744 -0.013118235862 0.036956124443 -0.034276556544 0.047562830959 -0.073510510426 -0.10812224556 
0.033127693384 -0.078593025431 -0.06613575068 0.054948701979 0.033011050059 0.0076408944168 0.039915522385 -0.065391933792 -0.048630188235 
0.059927627828 0.051163919692 0.014858974371 0.037338007858 -0.074512642169 -0.023069227513 0.041207196226 -0.0062599981778 0.055155161121 
0.063139928023 -0.10110535086 -0.020169973935 0.067057236444 0.026503110379 0.022268829374 0.082449965203 -0.070664626924 0.028652816818 
0.01803072441 0.0048142291524 -0.078114753244 -0.006226958128 -0.054742414281 -0.070309487558 0.070869319077 -0.044737512463 -0.10427672875 
0.034872663176 -0.062335247847 -0.044282852368 0.010556360706 0.0077297551499 -0.0050462141203 0.039473343632 -0.0043211560564 -0.075440983735 
0.067082815939 0.018168973291 -0.0019502486787 0.0017704377072 -0.058774337981 -0.10483543719 0.04554161992 0.03139211089 0.014755690118 
0.059865452112 -0.039900059611 -0.018894612497 0.065611125438 -0.089422118263 -0.013925437913 0.033301335737 -0.080819267113 -0.042423523629 
0.00016984611955 -0.029917183357 -0.074292082236 -0.022388840353 0.019250676691 -0.027313762775 0.012669691697 -0.024193282323 -0.067072954546 
-0.0098194835077 -0.060914670435 -0.027701749455 0.020249151343 0.0054683644843 -0.047681142401 0.014240439008 -0.027042676354 -0.076951350251 
0.030421210222 -0.047400531527 -0.050562755857 0.027847937799 0.030244474684 0.010130704165 0.018060667125 -0.024581757528 -0.10345780477 
0.03705432242 -0.014387607112 -0.012737391266 0.043629330198 -0.050166716664 -0.081155473183 0.021285526144 -0.043149393647 -0.046770013335 
0.052029676422 0.0031746395263 -0.018867772161 0.044375347392 -0.064415116513 -0.021782043953 0.046861020571 -0.0043331167834 0.0079364932167 
0.056222260915 -0.018503917949 0.0027208884753 0.064698263246 0.050103939833 0.03702337573 0.055979253519 -0.010005165585 0.011898211583 
0.057145129008 -0.019184953192 -0.0093860053008 0.038583434214 -0.062893273173 -0.018032269761 0.05291319759 -0.051503141908 -0.066507728659 
-0.02321050563 0.046953950029 -0.010371857487 -0.0083949730595 0.0026795671784 -0.042802583304 -0.0050255007483 -0.088783088448 -0.046749399032 
-0.0051333512267 -0.010946593397 -0.063138435135 0.0085655075308 -0.026097140941 -0.069926250339 0.040057339888 -0.018605907857 -0.091826806045 
0.042709491469 0.01325166789 -0.0049373223972 0.033821170986 -0.031498571874 -0.040070526455 0.028952701815 -0.074582394785 -0.028500481973 
0.057422215545 0.033591708884 0.0065411845536 0.053244956818 -0.047827028307 0.0087805097262 0.049628193073 -0.01151599021 0.018213993083 
0.03838381249 -0.015703588948 -0.015071387066 0.033676547492 -0.050143557649 -0.017198782581 -0.008570531192 -0.081002869117 -0.052873709531 
-0.012372423347 0.0057161576035 0.0049949465412 -0.011929894445 -0.06166309859 -0.075319412943 0.03098755757 -0.010922250457 -0.05570631106 
0.056271228101 -0.025648799792 -0.058018480051 0.01650132057 0.0052089679997 -0.039631494908 -0.0042524621985 -0.06008471485 -0.10900509352 
0.059175850932 0.024296829388 -0.00064314630572 0.020822544268 -0.031971444502 -0.015844084577 0.032683174136 -0.054392051661 -0.034836752945 
0.027882489234 0.00060839326887 -0.009111981507 0.034127258505 -0.00083363988605 0.016909775613 0.035078300241 0.0024461954646 0.0045405700783 
0.033323372432 -0.0094318583762 -0.006538442158 0.037540368352 -0.052879784533 -0.036157123997 -0.0067634238933 -0.053545148207 -0.063115981696 
-0.0062854902403 0.017811937974 -0.039584231133 -0.0025714191627 -0.022788781027 -0.073677131727 -0.0098621939346 -0.044729909789 -0.079840317962 
-0.0095471328853 0.014626138919 -0.012270353641 -0.0082195610748 0.011877568974 -0.019891790687 0.025577312643 -0.058143804318 -0.035184801319 
0.043277900979 -0.011495375962 -0.037494001794 0.04118390949 -0.030273297219 -0.049842115304 0.029576009287 -0.060595914478 -0.067216418423 
0.031037663675 0.053737402961 0.027145528095 0.053945924816 -0.018850449227 0.025201846233 0.021964065594 -0.049820103349 -0.049516267087 
0.033578251573 -0.072675978859 -0.041175422462 0.045749675076 -0.01143154985 -0.0023564250882 0.046607014238 0.039216697982 0.018538409503 
0.059279584435 -0.042306682587 0.051034291345 0.054511985763 -0.035309482442 -0.003705672871 0.067171525029 -0.067379762268 -0.011611540488 
-0.033996648289 -0.00690258455 -0.042363413772 -0.026402568157 -0.021255211706 -0.053049049934 -0.036208425544 -0.040016625902 -0.059785462696 
-0.0062734301517 0.035745320007 0.020274389954 -0.029152871428 -0.01796340188 -0.03854948416 -0.0252622642 -0.071295040787 -0.057605646267 
-0.018475505073 -0.045787719638 -0.098698397248 -0.0093604671295 0.010857636108 -0.018213094225 -0.00085080544423 -0.013177576202 -0.028411610697 
0.025723060836 -0.07485088309 -0.055185849079 0.044214856033 -0.074080743213 -0.10985199733 0.05930281506 -0.033795087602 0.017551334701 
0.054486273737 0.005622857485 0.0084088107669 0.012633259963 -0.020106997719 0.011026035407 0.055371105167 -0.053224182164 -0.016560426294 
0.056995975184 0.021400108012 0.036296101938 0.053118718723 0.017690138833 0.016575492699 -0.055277155749 0.01817267455 -0.0507744669 
-0.023058759987 -0.021993536134 -0.067176756252 -0.01711054059 -0.041665927753 -0.093561941406 -0.049311872303 -0.016367173855 -0.027464061797 
-0.032608830643 0.0043638543527 -0.047256994607 -0.025401509567 -0.018993268924 -0.092775449526 -0.02911423737 -0.017917472827 -0.070927391152 
0.0048443674175 -0.00021617435191 -0.067437435975 -0.042710466198 -0.024655240957 -0.093242130693 -0.020721351617 -0.050922298371 -0.07471173615 
-0.0037713386868 -0.023152531783 -0.075058424326 0.038730548209 -0.0083211061814 0.023474774696 0.051674205201 0.013295765303 0.0087163808969 
0.039375289677 0.013347596867 0.012258753451 0.03643321345 -0.029852399233 -0.030285879145 0.0041045276748 -0.032460865993 -0.030476901207 
0.022070049117 -0.017575397986 -0.0047993033484 -0.021526243988 -0.041529638852 -0.070647135278 -0.04052673872 0.034645602395 -0.041024907719 