# vtk DataFile Version 4.2
Generated by LIGGGHTS
ASCII
DATASET POLYDATA
POINTS 1000 float
2.26389 0.251078 0.31292 4.2999 0.200003 0.272377 1.40207 0.759319 0.284348 
2.27141 1.21571 0.00552775 4.0132 1.11877 0.544296 0.225014 1.56213 0.330575 
4.48806 1.88262 0.10482 0.805434 2.79294 0.153787 2.86169 2.94898 0.232142 
4.81944 2.69762 0.621717 1.66398 3.31505 0.507787 4.13468 3.40095 0.427645 
0.851807 3.94589 0.112107 1.88414 4.30722 0.438507 3.09621 3.89988 0.453192 
1.00361 4.91523 0.325166 3.99457 4.39316 0.418566 0.592762 0.308346 0.85479 
4.06392 0.117963 1.24536 1.8072 0.678391 1.19539 2.94142 0.80435 0.939544 
4.98176 0.814902 0.727019 0.149221 1.32883 1.30299 1.75126 1.58643 0.777007 
4.75446 1.70335 1.12868 0.847759 2.03269 0.958973 2.5873 2.13638 0.747154 
3.57531 1.98515 0.7917 0.107468 2.81973 0.870333 3.42426 2.93552 1.08366 
0.968797 3.67212 1.13397 4.71289 3.70795 1.28512 0.0570588 3.80431 0.702686 
4.96122 4.47757 0.6827 0.921149 0.802695 1.66018 2.54041 0.775119 1.8689 
4.80808 0.736729 1.76934 1.58291 1.48329 1.97636 3.11475 1.64113 1.61764 
4.11201 1.44759 1.90369 0.904019 2.2524 1.97246 2.07935 2.47027 1.67898 
4.26867 2.41308 1.64251 0.2057 3.08788 1.93886 3.20753 3.49043 1.90465 
0.61771 4.08486 1.97527 2.45972 3.99316 1.46692 3.80115 4.17575 1.43092 
0.952443 4.8894 1.4193 1.0261 0.487061 2.65453 2.0355 0.16676 2.50928 
3.03255 0.0867547 2.54487 4.02539 0.363549 2.31081 3.30428 1.04506 2.45513 
0.0149427 1.73364 2.56226 2.55555 1.75031 2.51683 1.65837 2.27734 2.63483 
4.81433 1.97226 2.50214 2.26854 3.05317 2.47176 3.13402 2.53311 2.19156 
4.07922 2.85002 2.5226 1.33384 3.23427 2.10391 5.00055 3.20181 2.2408 
3.59367 4.21756 2.47346 4.56949 4.03161 2.59646 1.75279 4.74365 2.02584 
2.71664 4.65632 2.2776 4.25528 4.84764 2.06672 1.88497 1.09143 2.85911 
2.71437 0.689658 3.27744 4.28116 1.04894 3.03159 1.08091 1.46991 3.31801 
0.717446 2.3367 2.97171 3.7146 1.91519 2.72822 0.271556 3.55134 2.86384 
2.96717 3.5936 2.9407 1.15048 4.03268 2.8231 2.25718 4.27899 3.14309 
0.575874 4.74852 3.28797 4.64998 4.95167 2.98842 0.479873 0.448579 3.79276 
3.60745 0.335418 3.62556 4.83826 0.467553 3.78205 1.49034 0.624813 3.66795 
2.44209 1.61534 3.54101 3.41108 1.41296 3.70503 0.678376 2.34622 3.97579 
1.70222 2.27752 3.66211 4.43224 2.04572 3.47504 2.40009 3.04251 3.68266 
3.49673 2.99214 3.53891 0.439263 3.32641 3.85359 1.35295 3.16816 3.34176 
4.38125 3.45141 3.45386 1.21454 4.18596 3.81367 2.97437 4.00223 3.87079 
3.91881 4.33787 3.41624 2.60288 -0.00332585 4.62889 0.513038 1.22067 4.44596 
2.31359 0.860637 4.19744 3.48258 0.621285 4.57835 1.46991 1.49962 4.27741 
4.31565 1.25285 4.11426 2.30855 2.01688 4.48156 3.55504 2.40521 4.3467 
4.76207 2.77909 4.13383 1.25977 3.36326 4.42717 2.07492 4.0545 4.30662 
3.73041 3.794 4.49161 0.554144 4.88353 4.27907 4.16147 4.86926 4.31751 
4.33588 0.346442 5.02708 1.26991 0.624402 4.71771 2.58009 0.842869 5.16124 
4.83632 1.21909 5.12056 1.84041 1.51541 5.21119 3.16709 1.56035 4.71524 
0.502931 2.09206 5.14562 1.35979 2.40274 4.70575 4.13749 2.0189 5.06303 
2.18248 3.03173 4.66608 4.09683 3.02397 5.16918 3.11661 3.18005 4.99217 
1.16349 4.28566 4.81413 2.89671 4.20918 4.85562 4.71154 3.78412 4.68547 
4.04607 4.50269 5.24297 1.61121 0.536977 5.65489 3.33611 0.261825 5.53392 
0.324565 1.14344 5.43011 3.76671 1.15538 5.40574 2.69972 1.5798 5.8267 
4.52455 1.77325 5.95198 1.42681 2.39481 5.70354 2.40134 2.46131 5.45962 
3.39709 2.3797 5.66096 1.39074 3.36105 5.42036 4.93898 3.38198 5.58861 
0.481368 3.92278 5.47882 1.88688 4.17853 5.8378 3.12292 3.83483 5.75514 
4.10285 3.79615 5.95141 0.03318 4.76296 6.00697 1.04086 4.7065 5.74903 
2.84434 4.92764 5.93449 0.523417 0.43403 6.10741 2.22397 0.616746 6.44129 
3.3753 0.668444 6.44697 4.34097 0.790865 6.15189 0.727491 1.79077 6.08611 
1.64102 1.38905 6.18595 3.57316 1.63976 6.31367 1.73723 2.44851 6.65275 
0.701941 2.98461 6.08058 2.58051 2.99768 6.29687 4.14861 2.6787 6.30907 
1.51623 3.41337 6.47889 0.250318 3.8089 6.44509 4.59944 4.59605 6.59578 
0.492411 0.283261 7.27118 2.31808 0.116155 7.30252 3.79614 0.0767543 7.23842 
4.7654 0.169657 6.8597 0.36714 1.15322 6.79021 1.34228 0.723703 6.91756 
2.76521 1.19747 7.05278 1.80599 1.58031 7.15368 4.37041 1.54394 6.91314 
0.743631 2.44427 7.04968 3.07107 2.91094 7.26706 4.59562 2.58658 7.20052 
4.09153 3.51768 6.91229 0.835955 3.88673 7.25195 3.12036 3.76896 6.75412 
0.747868 4.7193 6.70507 2.34025 4.39287 6.70476 3.72031 4.54152 7.09062 
3.0881 0.192147 7.93658 3.15559 1.18929 7.97353 4.07098 0.943515 7.65469 
0.017118 1.8774 7.53378 0.832334 1.29647 7.66733 4.5514 1.80694 7.86127 
1.27706 2.16336 7.91115 3.65997 2.1039 7.3486 1.37262 3.07943 7.49801 
2.19544 2.51192 7.5395 3.93184 3.10355 7.81016 3.33393 3.90952 7.76236 
4.40129 4.08819 7.68202 1.49819 4.44766 7.74885 2.49891 4.45968 7.71759 
0.326263 0.578015 8.2125 1.38986 0.551974 8.03649 2.26877 0.388322 8.48596 
4.30824 0.0376013 8.11053 4.43223 1.0767 8.57782 0.33412 1.67188 8.49485 
2.10415 1.27773 8.05926 2.82314 2.10417 8.20263 3.79933 2.26761 8.34556 
0.576501 2.94816 8.20495 2.17848 3.06102 8.41171 4.7695 2.63803 8.54843 
1.36399 3.64229 8.32824 3.17686 3.18166 8.48586 0.423333 3.93844 8.1623 
4.78908 3.9531 8.61576 0.0913351 4.88197 8.1637 3.16383 4.66186 8.43878 
4.15449 4.96921 8.08674 3.4955 0.576135 8.77043 4.38095 0.256053 9.14799 
0.936288 0.659101 9.00181 2.40056 1.27835 9.0149 3.35382 1.55817 8.89743 
1.69129 2.27839 8.84246 2.6361 2.2438 9.17502 4.32366 1.91096 9.1188 
0.749789 2.51068 9.08949 4.24517 3.05067 9.29368 0.706987 3.50964 9.07407 
2.56297 3.23057 9.31978 3.46069 3.67157 9.31017 2.42835 4.20554 9.03184 
1.03609 4.5681 8.68244 4.04207 4.51807 8.97296 1.8133 0.42844 9.42521 
0.474531 0.658713 9.92466 3.55086 0.670551 9.7645 4.87499 1.11111 9.59771 
0.91666 1.48969 9.57739 3.1661 1.64958 9.87606 1.68542 2.1317 9.91551 
3.69784 2.49598 9.92108 0.0375736 3.33414 9.80466 1.63164 3.63489 9.4341 
4.81893 3.939 9.79773 0.476626 4.6833 9.50748 1.57159 4.63882 9.53175 
3.29699 4.60116 9.64255 0.352934 5.62787 0.60896 3.7393 5.41456 0.345581 
2.3162 5.94347 0.444972 2.90457 6.75207 0.445584 0.477412 7.41407 0.479611 
1.4905 7.04708 0.496398 4.48205 6.9309 0.207867 4.86571 7.78607 0.582189 
0.958359 8.18879 0.0644492 2.63358 8.34422 0.31007 3.93026 8.13043 0.492661 
0.274644 9.05908 0.0923156 2.58472 9.32114 0.528219 3.61721 9.05383 0.270244 
4.59369 9.21583 0.12248 1.3984 9.55897 0.0284689 3.33738 9.986 0.520164 
1.53977 5.52119 0.912865 4.31673 5.1149 1.10506 3.121 5.77522 1.04409 
4.56629 6.07102 0.874835 0.95103 6.33551 0.985182 3.1433 7.19193 1.31139 
4.16464 7.09546 1.19048 2.3373 7.50895 0.773277 0.891589 8.22656 1.08956 
1.79854 8.6556 0.954011 4.58041 8.63946 1.05814 0.853994 9.33047 0.860934 
3.73657 9.13675 1.25966 1.77684 9.69478 0.98621 0.0813533 5.54969 1.56931 
2.54307 5.02056 1.35537 3.41122 5.38083 1.98104 1.25044 5.84475 1.81376 
3.99339 6.20765 1.77095 0.167719 6.63524 1.56796 1.84878 6.61893 1.57606 
2.97352 6.36095 1.84109 0.936547 7.26384 1.35679 1.90358 7.61881 1.67196 
4.34122 8.02607 1.81494 1.72461 8.58844 1.95551 2.63145 8.68665 1.545 
3.45215 8.14115 1.3709 0.807718 9.05131 1.82013 1.32638 9.90675 1.85383 
2.69256 9.89748 1.41069 0.617929 5.07417 2.34341 0.405118 6.05075 2.37569 
2.33581 5.69043 2.27741 1.06594 6.78628 2.2259 1.97901 6.85364 2.62873 
4.91936 6.49567 2.08093 2.74407 7.34971 2.21476 3.76254 7.13838 2.12449 
4.79822 7.42917 2.47446 0.94478 7.9716 2.07089 0.158072 8.44367 2.47011 
3.14131 8.24715 2.40698 2.31601 9.20176 2.48235 3.26394 9.20286 2.13845 
4.25296 9.0632 2.19638 0.340189 9.97819 2.0173 1.46171 5.47904 2.72026 
3.07772 5.49485 2.91975 3.9429 6.06016 2.76424 2.88623 6.4835 2.82976 
0.581827 7.42427 2.8252 3.23054 7.41156 3.12805 4.22733 6.94691 3.13954 
2.11942 7.79916 2.92525 4.0422 7.94669 2.89042 1.18363 8.17397 3.10377 
2.7485 8.68309 3.21988 0.491527 8.87414 3.31839 1.78847 8.94839 3.31524 
3.48824 9.35574 3.10199 4.48005 8.83973 3.14579 0.275124 9.84897 3.01908 
1.12789 9.38707 2.70598 4.3592 9.86284 3.14543 1.50931 5.12854 3.6562 
2.92188 5.00795 3.81184 3.88603 5.37016 3.49606 0.623202 5.76092 3.76855 
1.85578 6.15953 3.33967 2.67938 5.97779 3.87784 4.4397 6.1698 3.73875 
0.979985 6.66398 3.48841 3.45303 6.5716 3.64905 2.35713 7.14655 3.69046 
0.0726135 7.58512 3.88516 1.23846 7.53344 3.9985 3.94701 7.58476 3.86176 
3.64811 8.50811 3.62014 2.96116 9.33948 3.95448 1.15836 9.68153 3.66173 
2.2272 9.83463 3.46539 4.01512 9.37832 3.9523 2.11607 5.11707 4.45193 
1.48288 5.94144 4.24671 3.57297 5.94939 4.42272 0.241946 6.67431 4.26222 
2.8694 6.77703 4.46682 3.84505 6.88399 4.65891 4.88214 7.18652 4.19526 
3.00261 7.87737 4.05388 0.0863738 8.54264 4.18186 2.02946 8.14698 4.01349 
4.57746 8.37912 4.0303 1.06105 8.80465 4.13872 2.02817 9.1494 4.26571 
1.2027 5.28306 4.94795 3.04387 5.19758 4.8175 3.89918 5.51189 5.26635 
0.445815 6.19186 5.11415 2.15604 6.2289 4.92908 4.5041 6.13584 4.73799 
1.39784 6.84026 4.70236 4.63546 6.96937 5.29642 0.412737 7.78859 4.80482 
1.38663 7.79266 5.03587 2.37002 7.58872 4.77263 3.33656 7.736 5.13433 
4.30888 7.7632 4.77731 3.76663 8.60308 4.80285 4.85873 8.53062 5.10918 
0.211562 9.06303 5.02844 1.24063 8.82327 5.12841 2.66874 9.08721 5.04131 
0.517474 9.95936 4.70034 1.69737 9.75441 4.98995 3.64666 9.59457 4.85672 
4.76003 9.47284 4.78754 2.07528 5.3782 5.45136 4.68481 5.11304 5.74313 
0.562984 5.63296 5.97796 1.35467 6.17974 5.53174 3.04752 6.04757 5.34431 
4.56056 6.1175 5.84582 3.75279 6.67908 5.66649 0.759978 7.08628 5.43247 
1.80414 7.21014 5.75399 2.84579 7.09714 5.87696 4.56568 7.95132 5.88481 
0.431728 8.38268 5.74075 2.14114 8.22072 5.54001 3.04692 8.2906 5.95985 
1.84741 9.11889 5.86696 3.24347 9.30361 5.83224 4.12588 8.84865 5.71059 
0.87473 9.64823 5.58101 2.41116 9.93281 5.72487 2.06023 5.40497 6.60349 
3.94145 5.40334 6.63013 1.26581 6.11129 6.52722 2.21692 6.23043 6.03756 
3.0893 5.82406 6.31815 0.379167 6.62975 6.28793 4.58801 6.97317 6.4363 
[...]
POINT_DATA 1000
FIELD FieldData 7
id 1 1000 int
63 533 31 67 535 7 53 531 922 
656 20 424 605 109 892 73 134 26 
58 24 25 809 41 909 45 501 874 
450 610 300 600 924 111 156 541 62 
52 626 32 69 504 130 939 526 759 
841 142 990 365 551 49 51 538 48 
17 36 418 568 404 288 927 255 60 
175 194 272 872 650 37 588 574 30 
508 43 767 762 358 752 261 657 545 
59 349 562 70 61 42 283 591 263 
776 744 269 674 769 766 419 582 570 
663 75 566 581 589 50 719 276 286 
408 281 207 354 197 74 377 583 87 
68 294 235 84 592 79 814 783 56 
215 78 840 707 598 608 846 578 584 
105 296 695 285 322 571 698 307 816 
284 699 833 357 851 202 104 114 97 
278 110 515 580 797 214 710 123 10 
330 230 576 554 512 268 72 594 12 
510 567 577 323 702 630 372 279 782 
217 715 277 506 546 602 128 532 529 
28 125 742 733 528 13 256 47 236 
557 543 44 120 11 274 121 27 590 
658 337 503 511 552 15 735 540 556 
505 542 559 604 393 599 21 148 596 
107 139 544 523 170 747 514 539 547 
162 116 603 641 86 117 612 115 129 
242 635 137 716 855 963 243 718 839 
520 548 18 362 5 33 597 616 147 
723 240 144 370 625 3 133 750 640 
150 534 378 521 624 717 631 108 138 
646 884 174 633 29 22 140 167 561 
80 380 375 899 160 639 232 141 8 
731 173 905 638 661 560 502 71 979 
659 651 154 648 149 629 636 402 682 
662 163 684 187 35 644 169 46 262 
749 681 788 415 177 623 384 647 171 
426 920 157 172 192 673 188 301 292 
791 193 917 190 652 39 155 185 180 
275 199 182 902 669 164 919 297 410 
945 161 186 198 637 660 446 565 795 
189 178 676 670 195 342 291 789 184 
314 321 664 159 153 470 948 675 456 
666 181 474 685 347 830 678 82 573 
680 807 317 211 933 916 800 935 701 
335 671 329 85 858 66 737 703 219 
837 940 938 91 709 196 971 203 689 
686 200 126 822 856 831 103 736 691 
206 315 224 972 870 857 954 363 208 
585 628 976 563 713 210 688 996 471 
708 969 863 212 223 100 586 634 729 
303 99 225 999 237 238 820 727 961 
246 479 722 507 745 81 601 229 632 
152 593 77 234 694 491 714 696 997 
239 231 861 724 555 486 981 9 721 
879 509 746 572 399 854 643 668 852 
88 136 490 522 873 1 252 847 364 
683 420 761 849 817 484 2 405 101 
524 881 843 575 92 289 860 439 316 
368 862 655 889 386 96 518 896 264 
311 891 519 469 768 251 356 620 811 
282 756 928 748 413 23 757 102 777 
758 692 449 815 253 423 290 259 784 
785 257 790 812 83 952 904 302 295 
763 929 345 765 970 310 431 304 866 
796 778 806 798 780 89 775 258 802 
774 755 468 801 764 324 165 877 461 
813 353 319 427 818 677 94 832 536 
228 306 834 712 478 476 452 425 836 
65 665 333 779 55 819 808 553 351 
340 325 743 318 489 829 428 312 331 
838 320 305 113 352 308 355 220 106 
359 1000 810 738 985 343 967 835 667 
209 499 706 191 338 848 326 549 361 
564 4 247 595 371 346 6 332 473 
957 868 201 704 488 205 241 587 826 
95 558 859 64 57 38 483 221 496 
222 867 725 244 513 989 216 900 118 
287 373 825 168 487 227 732 880 482 
726 119 271 122 226 54 270 642 213 
579 911 266 993 379 391 245 895 112 
530 280 982 248 607 980 606 124 127 
672 19 869 135 76 794 845 740 890 
493 494 480 844 611 730 975 146 918 
367 392 267 617 613 249 166 517 973 
498 853 475 621 995 614 653 786 366 
842 260 145 609 983 865 492 265 885 
401 376 495 912 654 396 986 385 14 
615 395 728 293 753 360 437 754 143 
771 485 770 273 773 400 394 34 569 
16 369 383 886 882 254 432 897 500 
871 987 878 250 903 645 151 781 387 
907 793 894 984 389 898 772 381 390 
397 887 40 921 901 382 436 649 914 
403 313 398 883 414 751 888 906 876 
893 457 433 438 298 417 443 942 430 
406 923 925 422 411 388 412 908 926 
429 951 679 309 453 409 915 435 407 
434 416 787 910 950 937 943 934 792 
913 448 992 442 348 447 459 799 440 
421 946 944 460 941 183 803 821 176 
179 462 739 978 467 947 965 458 454 
444 697 455 334 931 204 693 463 441 
827 949 700 537 550 336 451 497 824 
964 930 98 958 959 687 481 988 690 
218 527 711 974 850 805 960 472 936 
932 864 804 339 994 464 705 734 998 
741 622 158 90 627 618 955 525 823 
465 445 327 344 374 953 875 966 720 
131 299 516 760 93 619 956 466 350 
962 341 477 828 233 968 328 991 977 
132 
type 1 1000 int
1 2 1 1 2 1 1 2 2 
2 1 1 2 1 2 1 1 1 
1 1 1 2 1 2 1 2 2 
1 2 1 2 2 1 1 2 1 
1 2 1 1 2 1 2 2 2 
2 1 2 1 2 1 1 2 1 
1 1 1 2 1 1 2 1 1 
1 1 1 2 2 1 2 2 1 
2 1 2 2 1 2 1 2 2 
1 1 2 1 1 1 1 2 1 
2 2 1 2 2 2 1 2 2 
2 1 2 2 2 1 2 1 1 
1 1 1 1 1 1 1 2 1 
1 1 1 1 2 1 2 2 1 
1 1 2 2 2 2 2 2 2 
1 1 2 1 1 2 2 1 2 
1 2 2 1 2 1 1 1 1 
1 1 2 2 2 1 2 1 1 
1 1 2 2 2 1 1 2 1 
2 2 2 1 2 2 1 1 2 
1 2 1 2 2 2 1 2 2 
1 1 2 2 2 1 1 1 1 
2 2 1 1 1 1 1 1 2 
2 1 2 2 2 1 2 2 2 
2 2 2 2 1 2 1 1 2 
1 1 2 2 1 2 2 2 2 
1 1 2 2 1 1 2 1 1 
1 2 1 2 2 2 1 2 2 
2 2 1 1 1 1 2 2 1 
2 1 1 1 2 1 1 2 2 
1 2 1 2 2 2 2 1 1 
2 2 1 2 1 1 1 1 2 
1 1 1 2 1 2 1 1 1 
2 1 2 2 2 2 2 1 2 
2 2 1 2 1 2 2 1 2 
2 1 2 1 1 2 1 1 1 
2 2 2 1 1 2 1 2 1 
1 2 1 1 1 2 1 1 1 
2 1 2 1 2 1 1 1 1 
1 1 1 2 2 1 2 1 1 
2 1 1 1 2 2 1 2 2 
1 1 2 2 1 1 1 2 1 
1 1 2 1 1 1 2 2 1 
2 1 1 2 1 2 2 1 2 
2 2 1 1 2 2 2 2 2 
1 2 1 1 2 1 2 2 1 
2 2 2 1 2 1 2 1 2 
2 1 1 2 2 2 1 2 2 
1 1 1 2 2 2 2 1 1 
2 2 2 2 2 1 2 2 1 
2 2 2 1 1 1 2 2 2 
1 1 1 2 1 1 2 2 2 
1 1 2 2 2 1 2 1 2 
1 2 1 1 2 1 2 2 2 
1 1 2 2 2 1 2 1 2 
2 2 2 2 1 2 2 2 2 
1 1 1 2 2 1 1 2 1 
2 1 2 2 2 1 1 1 1 
2 2 2 2 1 1 2 1 1 
1 2 2 2 1 1 2 2 1 
1 2 2 1 2 1 1 2 2 
1 2 2 2 1 1 2 1 2 
2 2 1 2 1 1 1 1 2 
2 1 2 2 1 2 2 1 1 
2 2 1 2 2 1 1 1 2 
2 2 2 2 2 1 2 1 2 
2 2 1 2 2 1 1 2 1 
2 1 1 1 2 2 1 2 2 
1 1 2 2 1 1 1 1 2 
1 2 1 2 1 2 2 2 1 
1 1 2 1 1 2 1 1 1 
2 1 1 1 1 1 1 1 1 
1 2 2 2 2 1 2 2 2 
1 1 2 1 1 2 1 2 1 
2 1 1 2 1 1 1 1 1 
2 2 1 2 1 1 1 2 2 
1 2 2 1 1 1 1 1 1 
1 2 2 1 2 2 1 2 1 
1 1 2 1 1 1 2 2 1 
2 1 1 1 1 1 1 2 1 
2 2 1 2 1 1 1 2 1 
2 1 2 1 2 2 2 1 1 
2 1 2 1 1 2 2 2 2 
1 1 1 2 2 2 2 1 2 
1 1 1 2 2 1 1 2 2 
1 2 1 2 2 2 2 2 1 
2 1 1 2 2 2 1 1 2 
1 1 1 2 2 1 2 1 1 
2 1 2 1 2 1 1 2 1 
2 1 2 1 2 1 1 1 2 
1 1 1 2 2 1 1 2 1 
2 2 2 1 2 2 1 2 1 
2 2 2 2 1 2 2 1 1 
1 2 1 2 2 1 1 2 2 
1 1 1 2 1 2 2 2 2 
2 1 1 1 1 1 1 2 1 
1 2 2 1 1 1 1 2 2 
1 2 2 1 1 1 2 1 1 
1 1 2 2 2 2 2 2 2 
2 1 2 1 1 1 1 2 1 
1 2 2 1 2 1 2 2 1 
1 1 2 2 1 2 2 1 1 
1 2 1 1 2 1 2 1 1 
2 2 2 2 2 1 1 1 2 
2 2 1 2 2 2 1 2 2 
1 2 2 2 2 2 2 1 2 
2 2 2 1 2 1 2 2 2 
2 2 1 1 2 2 2 2 2 
1 1 1 1 1 2 2 2 2 
1 1 2 2 1 2 2 1 1 
2 1 1 2 1 2 1 2 2 
1 
i 3 1000 int
0 0 0 0 0 0 0 0 0 
0 0 0 0 0 0 0 0 0 
0 0 0 0 0 0 1 0 0 
0 0 0 0 0 0 1 0 0 
0 0 1 0 0 1 1 0 0 
0 0 1 0 0 0 0 0 0 
0 0 0 0 0 0 0 0 0 
0 0 0 0 0 0 1 0 0 
0 0 0 0 0 0 1 0 0 
1 0 0 0 0 1 1 0 0 
0 0 1 1 0 0 0 0 1 
0 0 0 0 0 0 0 0 0 
0 0 0 0 0 0 0 0 0 
0 0 0 0 0 0 0 0 0 
1 0 0 0 0 0 1 0 0 
1 0 1 0 0 0 1 0 1 
1 0 1 0 0 0 0 0 0 
0 0 0 0 0 0 0 0 0 
0 0 0 0 0 0 1 0 0 
0 0 0 1 0 0 1 0 0 
1 0 0 1 0 0 0 0 0 
0 0 0 0 0 0 1 0 0 
1 0 0 0 0 0 0 0 0 
0 0 0 0 0 0 0 0 0 
0 0 0 0 0 0 1 0 0 
1 0 0 1 0 1 1 0 0 
1 0 0 0 0 0 0 0 0 
0 0 0 0 0 0 0 0 0 
0 0 0 0 0 0 0 0 0 
1 0 0 0 0 0 1 0 0 
1 0 0 1 0 0 1 0 0 
0 0 0 1 0 0 1 0 0 
1 0 0 0 0 0 0 0 0 
0 1 0 0 0 0 0 0 0 
0 0 0 0 0 0 0 0 0 
0 0 0 1 0 0 1 0 0 
1 0 0 1 0 0 0 0 0 
0 0 0 0 1 0 0 0 0 
0 0 0 0 0 0 0 0 0 
0 0 0 1 0 0 0 0 0 
0 0 0 0 0 0 0 0 0 
1 0 0 1 0 0 0 0 0 
0 0 0 0 0 0 0 0 0 
0 1 0 0 0 0 0 0 0 
0 0 0 0 0 0 0 0 0 
0 0 0 1 0 0 0 0 0 
1 0 0 1 0 0 0 0 0 
0 0 0 1 0 0 1 0 0 
1 0 0 0 1 0 0 0 0 
0 0 0 0 0 0 0 1 0 
0 0 0 0 0 0 0 0 0 
1 0 0 0 0 0 0 0 -1 
0 0 0 1 0 0 0 0 0 
0 1 0 0 0 0 0 0 -1 
0 0 0 0 1 0 0 0 0 
0 0 -1 0 0 -1 0 0 -1 
0 0 0 0 0 0 0 0 -1 
0 0 -1 0 0 0 0 0 0 
1 0 0 0 0 0 0 0 -1 
0 0 0 0 0 -1 0 0 -1 
0 1 0 0 1 0 0 0 -1 
0 0 -1 0 0 -1 0 0 0 
0 0 0 0 0 -1 0 0 -1 
0 0 -1 0 0 0 0 0 0 
0 1 0 0 0 -1 0 0 -1 
0 0 -1 0 0 -1 0 1 0 
0 0 -1 0 0 -1 0 0 -1 
0 0 0 0 0 -1 0 0 -1 
0 0 0 0 0 -1 0 0 0 
0 0 -1 1 0 0 0 0 -1 
0 0 -1 0 0 -1 0 0 -1 
0 1 0 0 0 -1 0 0 -1 
0 0 -1 0 0 -1 0 0 -1 
0 0 0 1 0 -1 0 0 0 
0 0 -1 0 0 -1 0 0 0 
0 0 0 0 0 -1 0 0 -1 
0 0 -1 0 1 -1 0 0 -1 
0 0 -1 0 0 -1 0 0 -1 
0 0 -1 0 0 0 0 0 0 
0 0 -1 0 0 0 0 0 0 
0 0 -1 0 0 1 0 0 0 
0 0 1 0 0 0 0 0 0 
0 0 1 0 -1 1 0 0 1 
0 0 1 0 0 1 0 -1 1 
0 -1 0 0 -1 0 0 -1 0 
0 -1 1 0 -1 0 0 -1 0 
0 0 1 0 0 0 0 0 0 
0 0 1 0 0 1 0 0 0 
0 -1 1 0 0 0 0 -1 0 
0 0 0 0 -1 0 0 0 0 
0 0 0 0 -1 0 1 0 1 
0 0 0 0 0 0 0 0 1 
0 0 0 0 0 1 0 0 0 
0 0 0 1 0 0 0 0 0 
0 0 0 0 -1 0 0 -1 0 
0 0 0 0 0 0 0 -1 0 
0 -1 0 1 0 1 1 0 1 
1 0 0 0 0 0 0 0 0 
0 0 1 0 0 0 0 -1 0 
0 0 1 0 0 0 1 0 0 
0 0 0 0 0 0 0 -1 0 
0 -1 0 0 -1 0 1 0 1 
0 0 0 0 0 0 0 0 0 
0 0 0 0 0 0 0 0 0 
0 0 0 0 0 0 0 0 0 
0 0 0 0 0 0 0 0 0 
0 0 0 0 -1 0 0 0 0 
0 0 0 0 -1 0 1 0 0 
1 0 0 0 0 0 1 0 0 
1 0 0 0 0 0 0 0 0 
1 0 0 0 0 0 0 0 0 
1 0 0 1 0 0 0 0 0 
0 0 0 0 0 0 0 0 0 
0 0 0 0 -1 0 1 0 0 
1 0 0 0 0 0 1 0 0 
0 0 0 0 0 0 0 -1 0 
0 0 0 0 0 0 0 0 0 
0 -1 0 0 0 0 0 0 0 
1 0 0 0 0 0 0 0 0 
1 0 0 1 0 0 0 0 0 
1 0 0 0 0 0 0 0 0 
0 0 0 0 0 0 0 0 0 
0 0 0 0 -1 0 0 -1 0 
0 0 0 0 0 0 0 0 0 
0 0 0 0 0 0 0 -1 0 
0 -1 0 1 0 0 0 0 0 
1 0 0 1 0 0 0 0 0 
0 0 0 0 0 0 1 0 0 
1 0 0 0 0 0 0 0 0 
0 0 0 0 0 0 0 0 0 
0 0 0 0 -1 0 0 -1 0 
0 0 0 0 -1 0 0 0 0 
0 0 0 1 0 0 1 0 0 
0 0 0 1 0 0 0 0 0 
1 0 0 0 0 0 0 0 0 
0 -1 0 0 0 0 0 -1 0 
0 -1 0 0 -1 0 0 0 0 
0 0 0 0 0 0 0 0 0 
1 0 0 0 0 0 0 0 0 
0 0 0 0 0 0 0 0 0 
0 0 0 0 0 0 0 0 0 
0 0 0 0 0 0 0 -1 0 
0 -1 0 0 -1 0 1 0 0 
0 0 0 0 0 0 0 0 0 
0 0 0 1 0 0 0 0 0 
0 0 0 0 -1 0 0 -1 0 
0 0 0 0 -1 0 0 0 0 
0 0 0 0 0 -1 0 0 0 
0 0 0 0 0 0 0 0 0 
0 0 0 0 0 0 0 0 0 
0 0 0 0 0 0 0 -1 0 
0 0 0 0 0 0 0 0 0 
0 0 0 0 0 -1 0 0 0 
1 0 0 0 0 0 0 0 0 
0 0 0 0 0 0 0 0 0 
0 -1 0 0 0 0 0 0 0 
0 0 0 0 0 0 0 0 0 
0 -1 -1 0 -1 -1 0 0 0 
0 0 0 0 0 0 0 0 -1 
0 0 -1 0 0 0 0 0 0 
0 0 0 0 0 0 0 0 0 
0 0 0 0 0 0 0 0 0 
0 0 0 0 0 0 0 -1 0 
0 0 0 0 -1 -1 0 1 1 
0 1 1 -1 0 0 -1 1 1 
0 1 0 -1 0 0 0 0 0 
0 0 0 0 1 0 0 0 1 
0 0 0 0 0 0 0 0 1 
-1 0 1 -1 1 0 0 1 1 
-1 0 0 0 1 0 -1 0 0 
0 0 0 0 0 1 0 0 1 
0 0 0 0 0 0 0 0 0 
0 0 1 0 0 0 0 1 1 
-1 0 0 0 1 0 0 0 0 
0 0 0 0 1 0 0 0 1 
0 0 0 0 0 0 0 0 0 
0 0 1 0 0 0 0 0 0 
0 0 1 0 0 1 0 0 0 
0 1 0 0 1 0 0 0 0 
-1 0 0 0 1 0 0 0 0 
0 0 0 0 1 0 -1 0 0 
0 0 0 0 0 0 0 0 0 
0 0 1 0 0 0 0 0 0 
0 0 0 0 0 0 0 1 0 
0 0 0 0 1 0 -1 0 0 
0 0 0 0 0 0 0 0 0 
0 0 0 0 0 0 0 0 0 
0 0 0 0 0 0 0 0 0 
0 0 0 0 0 0 0 0 0 
0 0 0 0 0 0 0 0 0 
0 0 0 0 0 0 0 0 0 
0 1 0 0 0 0 0 0 0 
0 0 0 0 0 0 0 0 0 
0 0 0 0 0 0 0 0 0 
0 0 0 0 0 0 0 0 1 
0 0 0 0 0 0 0 0 0 
0 0 0 0 0 0 0 0 0 
0 0 0 0 0 0 0 0 0 
0 0 0 0 0 0 0 0 0 
0 0 0 0 0 0 0 0 0 
0 0 0 0 0 0 0 0 0 
0 0 0 0 0 0 0 0 0 
0 1 0 0 0 0 -1 1 0 
0 0 0 0 0 0 -1 0 0 
0 0 0 0 0 0 0 0 0 
0 0 0 0 0 0 0 0 0 
0 0 0 0 0 0 0 0 0 
-1 0 0 -1 1 0 0 0 0 
0 0 0 -1 0 0 0 0 0 
0 0 0 -1 0 0 0 0 0 
0 0 0 0 0 0 0 0 0 
0 0 0 0 0 0 0 0 0 
0 0 0 0 0 0 0 0 0 
0 0 0 0 0 0 0 0 0 
0 0 0 0 0 0 0 0 0 
0 0 0 -1 1 0 0 0 0 
0 0 0 0 0 0 0 0 0 
0 0 0 0 0 0 0 0 0 
0 0 0 0 0 0 -1 1 0 
-1 1 0 0 1 0 -1 1 0 
-1 1 0 0 0 0 0 0 0 
0 0 0 -1 0 0 0 0 0 
-1 0 0 0 0 -1 0 0 0 
0 0 0 0 0 0 0 0 0 
0 0 -1 0 0 0 0 1 0 
0 1 0 0 0 0 -1 1 0 
-1 1 0 0 1 0 -1 1 0 
-1 1 0 -1 0 0 0 0 0 
-1 0 0 0 0 -1 0 0 0 
-1 0 0 -1 0 0 0 0 -1 
0 0 0 -1 1 0 0 1 0 
-1 1 0 0 0 0 -1 1 0 
-1 1 0 0 0 -1 0 1 0 
-1 1 0 0 0 -1 -1 0 0 
0 0 -1 0 0 0 0 0 0 
0 0 -1 0 1 0 -1 1 0 
-1 1 0 0 1 -1 0 1 0 
-1 1 0 -1 0 0 0 0 -1 
-1 0 0 -1 1 0 0 0 -1 
0 0 -1 0 0 -1 -1 1 0 
-1 0 0 0 0 -1 0 0 -1 
0 1 0 0 1 0 0 1 -1 
-1 1 0 0 1 -1 -1 0 0 
-1 0 -1 0 0 -1 0 1 0 
-1 1 0 -1 0 0 0 1 0 
-1 0 0 -1 0 0 -1 0 0 
0 0 -1 0 0 -1 0 0 0 
0 0 0 -1 0 1 0 0 0 
0 0 1 0 0 1 0 0 0 
0 0 1 0 0 1 0 0 1 
0 0 1 -1 0 0 -1 0 1 
0 0 1 -1 0 0 0 0 0 
0 0 1 0 0 0 0 0 0 
0 0 0 0 0 0 0 0 0 
0 0 0 0 0 0 0 0 1 
0 0 1 0 0 1 0 0 1 
-1 0 0 0 0 1 0 0 0 
0 0 0 0 0 0 0 0 1 
0 0 1 0 0 0 0 0 0 
0 0 1 0 0 1 0 0 1 
0 0 1 0 0 0 0 0 0 
0 0 0 0 0 1 0 0 1 
0 0 0 0 0 0 0 0 0 
0 0 1 0 0 0 -1 -1 0 
0 0 0 0 0 0 0 0 1 
0 0 0 0 0 0 0 0 1 
0 0 0 0 0 0 0 0 0 
0 0 0 0 0 1 0 0 0 
0 0 0 0 -1 0 0 0 0 
0 0 0 -1 -1 0 0 -1 0 
-1 -1 0 0 0 1 0 0 0 
0 0 0 0 0 0 0 0 0 
0 0 0 0 0 0 0 0 1 
0 0 0 0 0 1 0 0 0 
0 -1 0 0 0 0 0 0 0 
0 0 0 0 0 0 0 0 0 
0 0 0 0 0 0 0 0 0 
0 0 1 0 0 0 0 0 0 
0 0 0 0 0 0 0 0 0 
0 0 0 0 0 0 0 -1 0 
0 0 0 0 0 0 0 0 0 
0 0 0 -1 0 0 0 0 0 
0 0 0 0 0 0 0 0 0 
0 0 0 0 0 0 0 -1 0 
0 0 0 0 0 0 0 0 0 
0 0 0 0 0 0 0 0 0 
0 0 0 0 -1 0 0 0 0 
0 0 0 0 0 0 0 0 0 
0 0 0 0 0 0 0 0 0 
0 0 0 0 0 0 0 0 0 
0 0 0 0 0 0 0 0 0 
0 0 0 0 0 0 -1 0 0 
0 0 0 0 0 0 0 0 0 
0 0 0 0 0 0 0 0 0 
0 0 0 0 0 0 0 -1 0 
0 0 0 0 0 0 0 0 0 
0 0 0 0 0 0 0 -1 0 
0 0 0 0 0 0 0 0 0 
0 0 0 0 0 0 0 0 0 
0 0 0 0 0 0 0 0 0 
0 0 0 0 0 0 0 0 0 
0 0 0 0 0 0 -1 0 0 
0 -1 0 0 -1 0 -1 0 0 
-1 0 0 0 0 0 0 0 0 
0 0 0 0 0 0 0 0 0 
0 0 0 0 0 0 0 0 0 
0 0 0 -1 0 0 0 0 0 
0 -1 0 0 0 0 -1 0 0 
-1 0 0 0 0 0 0 0 0 
0 -1 0 0 0 0 -1 0 0 
0 0 -1 0 0 -1 0 0 0 
0 0 0 0 0 0 0 0 0 
0 0 0 0 0 0 -1 0 0 
0 0 0 0 0 0 -1 0 0 
0 0 0 0 0 0 -1 0 0 
-1 0 0 0 0 -1 0 0 0 
0 0 0 0 0 0 0 0 0 
0 0 0 0 0 0 0 0 0 
0 0 0 0 0 0 0 0 0 
0 0 0 0 0 0 0 0 0 
-1 0 0 -1 0 0 0 0 0 
-1 0 0 0 0 -1 0 0 -1 
-1 0 0 0 0 -1 0 0 -1 
0 0 0 0 0 -1 0 0 0 
0 0 0 0 0 0 0 0 0 
0 0 0 0 0 0 0 0 0 
0 0 -1 0 0 0 -1 0 0 
0 0 -1 0 0 -1 0 0 -1 
0 0 -1 -1 0 0 0 0 -1 
0 0 0 0 0 0 0 0 0 
0 0 0 0 0 0 0 0 0 
0 0 0 -1 0 0 0 0 0 
0 0 0 0 0 0 0 0 0 
-1 0 -1 
v 3 1000 double
-0.063869434323 -0.043973014833 -0.052669665006 -0.11850718485 -0.093174738539 -0.088623107984 -0.051897621929 -0.004768819349 -0.068869103123 
-0.058298179463 -0.056435415844 -0.11084007431 -0.023659467129 -0.064821318043 -0.083672784184 -0.04989084741 0.045082269174 0.032025872244 
-0.080640561816 -0.048368821736 -0.11692809198 -0.0018207997941 0.035101716598 0.057786578888 -0.017989885892 -0.02446008674 -0.068112675506 
0.054542031834 -0.02193356218 -0.13102475903 0.05158419554 0.018413077995 0.003095308827 -0.018521362132 -0.09989663207 -0.18470422792 
0.013620650661 0.038274375187 0.043739724918 0.0091132994289 -0.023407400549 0.022028957027 0.074571421801 -0.034170715865 -0.085977115754 
0.015284552117 0.026081116839 0.1071288918 0.13621866552 -0.067330277389 -0.12559522565 -0.057921109097 -0.0096136418997 -0.021879516627 
-0.037531684136 -0.043971250171 -0.071167278949 -0.0078228675148 -0.008438218044 -0.086092082956 -0.087594465068 -0.068120329461 -0.14915773854 
-0.012771189707 -0.13686118933 -0.10687742461 -0.041420945511 0.021383970891 0.029820233959 -0.030246533007 0.0045049600282 -0.11641329233 
-0.036277271 -0.14449047302 -0.092807269123 0.012063128051 0.0046831877331 0.0090988364059 0.012681095977 -0.052870912564 -0.09817250206 
0.019269416106 -0.02280464421 -0.13507892949 0.027646666886 0.087552082636 0.085420148162 0.098004907462 -0.036572759399 -0.12665740855 
0.080479879839 -0.00035265288013 0.048521963444 0.13367777839 -0.11602109152 -0.17494589029 0.049991736024 0.094596737213 0.11502404381 
0.055679629728 -0.1210468635 -0.12691269019 0.0014569747221 0.019519090753 -0.060010380064 -0.035425283231 -0.033617782547 -0.11159448706 
-0.028778864858 -0.10640095608 -0.070857307292 0.03766020899 0.016077776812 -0.12657373718 0.03122850695 -0.069888528357 -0.13640601085 
-0.041985773705 -0.10209472359 -0.10389773134 0.048554575713 -0.039625167945 -0.06931898049 0.080452781446 -0.05473364997 -0.074686436431 
0.006749003985 -0.09800015416 -0.12320205014 0.090321770479 -0.018490351201 0.030645638935 0.11869529806 -0.086882286293 -0.067694513915 
0.062454290261 0.0058568778657 0.039166350784 0.087208421762 -0.10177341451 -0.037926952727 0.12771182913 -0.10838705655 -0.093553467003 
0.08292527129 -0.016815423106 0.079841005762 0.0072934950586 -0.019655976726 -0.080106593471 -0.031441756889 -0.044335303485 -0.058221984346 
-0.034453453172 -0.082263529 -0.066736075172 -0.038184985085 -0.14712695796 -0.12819302316 -0.0028338729946 -0.093569430839 -0.12451989146 
0.0045930017091 0.020399222185 -0.021074736452 -0.0040064800991 -0.074341731511 -0.13842963947 0.026908289006 -0.05388131101 -0.034345056155 
0.01317299292 -0.072695031557 -0.13565226591 0.10508258757 -0.11563464834 -0.028096943773 0.088839397762 -0.10702311013 -0.12836779028 
0.11724569596 -0.21076037497 -0.11761641338 0.064204881858 -0.032490760787 0.057009991016 0.10575224367 -0.079762472077 -0.10747380975 
0.079737538547 -0.071169283174 -0.070791656808 0.082984105456 -0.10420943105 -0.074709937079 0.047831614948 -0.070901094504 0.075488424402 
0.064103869339 -0.063142132762 0.012190455838 0.15657771167 -0.12064349781 -0.027556758581 -0.023466372249 -0.023145982851 -0.11044038221 
0.0057260920806 -0.0048995680193 -0.10159097362 0.047981679643 -0.15639238605 -0.11901234936 0.022453273128 -0.0032751273862 -0.042981618037 
0.021670410222 0.0073135999828 -0.03877985449 0.053775704953 -0.12495848013 -0.10817128553 0.1237809368 0.08997844395 0.026899728916 
0.08216133368 -0.072807973489 -0.063304457746 0.1342375312 0.076271142637 0.0070769931011 0.13219196023 -0.059175880215 0.11471513809 
0.082835105095 0.074975471637 0.071986579901 0.028774040189 -0.074861718936 -0.026262397306 0.026394902941 0.026425201444 0.011215052653 
-0.0031358306794 -0.037127554997 -0.12046542048 -0.0036328083838 -0.075694972995 -0.051986543791 -0.0057300865324 -0.0054026835661 -0.077587239067 
-0.014266512092 -0.0062181677554 -0.10720851634 0.015389189663 -0.0064596907572 -0.14465260872 0.055952827848 -0.011089504741 -0.041612875931 
0.046472911439 0.001909007766 -0.045813293072 -0.0088453051068 -0.082368414374 -0.12461784101 0.10910248405 -0.034616146895 -0.048799878875 
0.098760644012 -0.10376685821 -0.10810572692 0.039306534507 0.0066885177551 0.033971342361 0.043654639006 0.031166041091 0.014271906381 
0.082223278237 -0.06408811165 -0.081605242976 0.044336613875 -0.006480350739 0.03914797873 0.044825735319 -0.07183594232 -0.064308666029 
0.071225604812 -0.06685262016 -0.088926994213 -0.078710227664 -0.057995790206 -0.081333472311 -0.027033658725 0.015102880952 0.01724242734 
0.020514561328 -0.040239794307 -0.11597902276 -0.045308463144 -0.076178188751 -0.11487665139 -0.011216409103 -0.013706285913 -0.087398766845 
-0.013488358472 -0.068336102124 -0.082907845665 -0.043545674951 -0.062264092345 -0.10985463151 -0.020153551066 -0.088610042105 -0.088404802578 
0.028141918295 -0.021370951965 -0.17098078186 0.041436228247 -0.0017358368805 0.036687007781 0.071326592457 -0.021445489546 -0.0079874892012 
0.045652668282 -0.04656640299 -0.053422280755 0.076201857606 0.0010125563488 0.073989800548 0.077727588052 -0.094286956991 -0.047931768676 
-0.074662566355 -0.059304129996 -0.034922957282 0.0063082227437 -0.013173875414 -0.093779602644 -0.046890822925 -0.051964049585 -0.091199372913 
-0.015009772428 -0.065441390248 -0.12917863678 -0.030612271236 -0.022151862615 -0.071016941294 -0.052903819511 -0.07976384591 -0.1085009744 
0.044289004542 0.025577369249 -0.0051332498401 0.070766662403 -0.031106696774 -0.052897309217 0.054549767793 -0.089587553436 -0.14608576199 
0.069362903079 -0.027599535931 -0.049743799345 0.097707929152 -0.089046671786 -0.11940803666 0.076156762779 -0.073839577724 -0.043758283138 
0.12024903563 0.012802882641 0.046247696083 0.11303716535 -0.090178756179 -0.048620890249 0.05050173645 -0.056343725769 -0.085678713522 
0.0093009979446 -0.070012039919 -0.041942571177 -0.10352375942 -0.02633294939 -0.053807434576 -0.012551266517 -0.052173088261 -0.088118029522 
-0.037495776344 0.035649043845 0.013982934125 -0.011061684825 -0.05867469918 -0.13527891727 -0.046087967023 -0.061794046974 -0.076819267804 
-0.0049786338634 -0.076187185286 -0.11755265202 -0.042087942354 -0.012420137283 -0.046381661754 -0.038304659263 -0.05460762138 -0.074681364037 
0.013914105546 -0.067567302696 -0.16676764354 0.042801823929 -0.067439447164 0.040596677281 0.067508289588 -0.044228343366 -0.079555794915 
0.080589846451 0.031994296979 0.033835766319 0.052343529613 -0.012040591543 -0.032411141171 0.014257461597 -0.093037424282 -0.0230833518 
0.026808100619 -0.11591220401 -0.084586686849 0.023313076891 0.051148046256 0.053624264732 0.065629754004 0.03521512319 0.058087605376 
0.11187070362 -0.0034893400565 0.020104709898 -0.069685602126 0.02848703151 0.017770726133 -0.10271512048 -0.0066477488082 -0.054276456203 
-0.089482980524 -0.044872187105 -0.086041494239 -0.071109686232 -0.062892082325 -0.079480142914 -0.032807321609 0.018373701061 0.021527908939 
-0.033471734908 0.0025044617561 -0.06555027427 -0.04760928409 -0.058801936162 -0.13449543239 -0.063503399119 0.040309508856 -0.040732076181 