# vtk DataFile Version 4.2
Generated by LIGGGHTS
ASCII
DATASET POLYDATA
POINTS 1000 float
0.588459 0.113653 0.0824613 2.13959 0.211247 0.486101 1.90581 0.922848 0.315496 
3.74312 0.888325 0.146112 3.78003 0.862135 0.202451 0.38268 1.59637 0.421241 
3.15414 1.65585 0.125176 3.98892 1.52379 0.107846 2.23908 2.20031 0.578906 
3.1369 1.93911 0.337572 0.385711 2.61024 0.0319154 3.30478 3.43905 0.101246 
4.92434 3.51049 0.63591 2.23743 4.36723 0.112191 1.93458 4.75698 0.547061 
2.17142 4.98426 0.196316 3.72431 4.44818 0.634754 0.384378 0.202948 0.767579 
2.6513 0.373726 1.05836 4.31372 0.721799 1.25756 1.56192 1.28939 0.928953 
1.57443 1.55179 0.676028 4.86947 1.32987 0.951279 2.18015 2.004 1.22339 
2.47829 2.66325 1.25854 2.80972 3.04878 0.82609 3.28569 2.60611 1.06015 
3.87771 2.69597 1.2514 4.65774 2.96548 1.12721 3.32859 3.44862 0.906757 
4.66072 3.14641 1.17111 0.544049 3.76634 0.94573 2.81515 4.22449 1.06579 
2.11782 4.57671 1.26905 2.22079 4.67432 1.29288 3.00322 4.99442 1.33038 
3.60059 4.96646 1.19568 1.22569 0.198821 1.58231 3.56222 0.370167 1.41947 
4.30538 0.491565 1.89247 3.82466 1.11513 1.95697 2.48182 1.82254 1.45298 
2.88578 1.28944 1.6593 4.70293 2.19977 1.70131 2.6812 2.93877 1.99366 
4.76842 2.82864 1.33964 4.99635 3.12141 1.3434 2.35516 3.38023 1.34194 
3.18579 3.62655 1.41498 3.8379 3.92467 1.77063 4.14911 3.82469 1.70342 
1.51334 4.90164 1.98015 2.2277 1.06933 2.32417 4.71834 1.23414 2.05967 
0.0940946 1.40017 2.55648 2.81022 1.31389 2.62265 0.341072 2.39497 2.2895 
1.99692 2.24803 2.53437 3.51116 2.14984 2.47003 4.16032 2.49554 2.36985 
4.30318 3.58138 2.58368 4.3996 3.72952 2.15235 2.97103 3.96457 2.42004 
3.85993 4.15021 2.3696 4.42163 4.13298 2.60525 4.28514 0.598152 3.09137 
4.59214 0.148902 2.73098 4.62547 0.344681 3.21534 2.1563 1.09556 3.30291 
4.97062 1.16876 3.00171 2.05163 1.82325 3.28936 1.88264 1.65364 2.76278 
2.62046 1.80123 3.25423 4.10554 1.87439 2.90488 4.55947 1.27109 2.98823 
0.286323 2.40393 2.93187 0.941434 2.49019 2.76519 2.82753 2.35098 2.83513 
0.934309 2.91268 3.20772 1.79348 3.42789 2.78829 2.35817 3.63318 2.84886 
2.1969 3.58855 2.72609 2.60213 3.704 3.02504 4.68339 3.57131 3.13097 
1.05991 3.95627 2.97731 2.18331 4.89992 3.04136 1.32029 0.176927 3.50074 
0.545663 0.815368 3.95683 2.7031 0.898655 3.71833 3.7586 0.807611 3.48219 
0.250003 1.82684 3.72088 1.17406 2.35222 3.78421 3.41479 2.33497 3.78036 
0.190026 3.65703 3.88876 3.35476 3.38989 3.81493 1.8096 3.8742 3.65705 
0.389418 4.67984 3.86824 3.69101 4.57093 3.73841 3.31497 4.81666 3.5556 
0.0321624 0.60237 4.31633 2.42103 0.0556061 4.4446 2.35139 0.0187138 4.56293 
4.99021 0.53218 4.28574 0.293406 1.22952 4.33864 0.913357 0.764227 4.64568 
0.435666 2.18328 4.41657 1.46681 2.68844 4.62168 2.75261 3.33813 4.03985 
3.87121 3.25781 4.15996 0.243626 4.2937 4.24247 0.024054 4.16935 4.4553 
3.37382 3.7505 4.55053 4.86725 4.01584 4.29262 1.52582 4.62987 4.27319 
2.82826 4.50196 4.45885 0.114246 0.04966 4.74153 0.482596 1.03082 5.04269 
1.14543 0.892772 4.74833 2.0611 0.860079 5.3286 0.313631 1.25811 4.79736 
1.23827 1.72875 5.18956 4.76894 1.50622 5.17759 0.25194 4.29852 5.31929 
0.674402 4.58052 4.88248 0.895757 4.86316 5.01326 1.59486 4.80069 4.98843 
1.77454 4.55492 4.75548 2.39155 4.67217 5.21449 2.81163 4.84114 4.94448 
4.14141 4.72928 5.09566 0.0487991 0.112786 5.67444 1.46075 0.559646 5.93209 
3.19571 0.221079 5.5501 0.791952 0.717328 5.97509 4.13765 1.56696 5.95334 
4.70052 1.72759 5.59901 0.0215333 1.8787 5.5479 0.140561 2.29761 5.78201 
1.41977 1.92572 5.38345 4.89333 2.07567 5.51653 2.14275 3.38822 5.82604 
2.60092 3.40012 5.85662 4.68632 3.27634 5.67732 1.96787 4.01532 5.43513 
4.54179 4.01713 5.73374 2.09051 4.97327 5.97572 1.18166 0.37102 6.05385 
3.08564 0.329416 6.31821 1.40304 0.697119 6.21936 1.1996 1.62826 6.20234 
2.60734 1.60147 6.03138 2.92925 1.85972 6.39968 0.127503 2.85693 6.40923 
3.30484 4.36522 6.2831 0.244257 4.99946 6.09825 1.09445 4.44019 6.23909 
0.0589733 1.06009 7.18122 0.714043 0.87385 6.86876 3.46826 1.1059 6.84075 
4.85396 0.62574 7.00583 0.0869874 1.8336 7.15191 1.38582 1.32962 6.96321 
4.90515 1.29213 6.77557 2.40508 2.165 7.24057 1.93683 2.40181 7.30801 
2.55384 2.10252 7.32595 2.5586 2.42262 6.76119 3.40467 2.25364 6.92985 
2.03623 2.85999 7.29409 3.53619 2.76179 7.29519 4.99272 2.5119 7.19679 
2.1856 3.52572 6.74869 3.04001 3.46801 6.90806 4.68695 3.61498 7.09545 
2.54146 4.23198 6.84228 3.31908 3.80838 7.30405 4.79526 4.17131 7.18219 
1.20633 4.81807 7.2479 1.53508 0.189051 7.49629 3.67884 0.147439 7.75814 
1.15197 1.01613 7.9731 1.93436 0.644229 7.43939 2.91015 0.982181 7.59319 
2.98042 1.77351 7.49572 4.11862 1.79137 7.66742 1.09431 2.26499 7.94161 
1.7363 2.3917 7.44686 4.54525 2.22512 7.51004 0.0352689 2.7505 7.69865 
2.03919 2.60296 7.79877 2.64731 3.44128 7.53274 3.98546 3.63643 7.43473 
0.523285 4.91032 7.70041 2.9211 4.99124 7.77609 3.94091 4.85857 7.92249 
0.515858 0.0849721 8.10984 2.38592 0.190288 8.15157 1.02402 0.722808 8.30372 
3.38381 1.83484 8.21899 3.8128 1.74502 8.61115 4.15433 1.62779 8.36408 
1.20142 2.11508 8.5023 1.14133 2.38403 8.19681 1.19668 2.44175 8.03443 
4.07645 3.05103 8.64875 2.77167 3.44548 8.21261 0.049625 3.84351 8.20072 
3.54224 4.23089 8.66459 2.13867 4.65273 8.62479 2.79494 4.65274 8.46779 
3.96589 4.642 8.15741 0.0470436 0.425947 9.1672 0.944263 0.142149 9.0036 
2.64774 0.396815 9.11119 4.60585 0.591344 8.71869 0.0655131 1.10426 9.24356 
0.497512 1.46361 8.79496 2.6698 1.29463 8.80615 3.5421 2.12882 8.93009 
0.888491 3.05105 8.78649 1.17647 2.78747 9.02815 3.57373 3.67343 9.30269 
4.41621 3.20753 8.94401 3.1668 4.39333 8.69778 2.56148 0.854378 9.42483 
0.19465 1.41665 9.42127 1.0098 1.62551 9.93762 2.97267 1.82362 9.59222 
3.88001 1.38571 9.62244 0.420195 2.16218 9.77387 1.11697 2.8345 9.40444 
4.8291 2.76845 9.53597 1.99104 3.33727 9.55253 4.5864 3.71151 9.63634 
2 4.08816 9.90471 4.67627 3.91741 9.76468 2.70392 4.65875 9.5113 
4.43829 4.4041 9.43634 4.10813 5.40668 0.282365 3.09667 5.99632 0.150784 
3.75653 6.10581 0.191076 4.25156 5.98799 0.0330108 4.83762 5.76845 0.124288 
1.41587 6.43364 0.0723556 2.38635 7.33686 0.567437 4.77584 7.56533 0.60705 
1.98362 8.69639 0.307632 0.228464 9.60673 0.494674 2.75181 9.67039 0.392759 
4.17023 9.58531 0.216218 4.73908 9.59961 0.51644 4.61532 9.60197 0.106347 
0.738106 5.35078 0.759121 2.22497 5.0248 1.31671 4.82625 5.24433 1.30965 
0.79229 5.9797 0.668459 2.70337 5.63283 0.926362 1.36115 6.8347 0.757879 
1.64969 6.47893 1.26244 3.94993 6.41761 0.866684 3.2699 7.23037 0.893575 
4.09276 6.9436 0.867146 1.16188 7.67066 1.00307 1.12263 7.99972 1.03162 
4.40996 8.34537 0.681925 4.67831 8.32814 1.16545 1.48861 9.08735 1.1345 
3.25572 8.83267 0.690372 4.44094 9.10103 0.952082 4.85865 9.14505 0.91142 
3.24686 9.80013 0.774946 1.76684 5.28898 1.9393 0.540012 5.96783 1.44846 
0.0354646 6.04462 1.95368 1.9549 6.06902 1.88762 2.95685 5.7007 1.51303 
3.84996 6.1725 1.56117 0.69296 6.41173 1.79041 2.12629 6.31769 1.37339 
3.74881 6.4379 1.5941 0.25152 7.31192 1.53579 0.300358 8.07055 1.70851 
2.01214 8.04257 1.50995 4.00652 7.5785 1.82705 2.57326 8.73754 1.90625 
0.00827432 8.87915 1.99672 2.41266 9.83468 1.60947 2.60547 9.94954 1.70093 
2.05308 5.92681 2.0539 0.532918 6.76934 2.26607 1.94362 6.41354 2.45209 
3.32519 6.52719 2.62746 3.90948 6.51173 2.57474 4.69605 6.51767 2.44711 
0.533621 8.5686 2.5816 1.88067 8.41685 2.03023 2.06631 8.70427 2.56262 
3.03556 8.59179 2.52749 3.70788 8.31273 2.31703 3.99469 8.47816 2.58878 
1.48858 8.76851 2.28501 2.72857 9.02079 2.20498 3.51632 8.8917 2.60661 
3.67342 9.11776 2.01358 2.66375 9.63361 2.13019 3.7928 5.5782 2.84325 
4.69961 6.22377 3.18681 1.50214 6.75627 2.76082 2.58444 6.6129 3.0719 
0.535317 7.06568 2.71429 1.54561 7.1371 2.97137 2.03529 6.93777 2.87177 
3.23659 7.32331 2.83825 0.795437 8.73522 2.69851 2.16923 8.26634 2.77099 
1.62844 9.20767 3.3258 2.47748 8.82804 2.7028 2.15915 8.83103 3.04953 
4.33029 9.09817 2.79017 1.31136 9.97817 3.13948 3.56635 9.48671 3.19562 
0.935694 6.15362 3.87725 1.74485 5.65559 3.4894 3.84873 5.78412 3.78464 
4.06178 6.60281 3.41515 4.5378 6.54153 3.48562 4.42655 6.91522 3.82866 
2.75526 7.7696 3.7938 3.69594 7.66608 3.84257 2.50898 8.58236 3.80636 
4.29811 8.25926 3.40187 0.636568 8.80785 3.4394 3.20694 9.02205 3.68993 
3.24802 9.75449 3.46573 3.71987 9.73368 3.82488 2.6701 6.21851 4.49018 
4.3646 5.65324 4.0823 0.590609 6.47614 4.37685 4.07189 6.34166 4.17206 
3.40972 7.42691 4.26292 0.79418 8.00465 4.0899 1.37431 8.00288 4.46663 
1.4576 7.76842 4.08973 3.81376 7.79168 4.4843 3.16765 8.5794 4.09256 
4.41177 8.62762 4.58408 1.34284 9.21667 4.58743 2.37813 9.15002 4.40344 
1.93307 9.13752 4.22832 3.02725 8.97987 4.64765 4.71408 9.4945 4.07843 
0.134166 5.02916 4.91158 4.64065 5.41052 4.70746 1.08086 5.80321 4.70375 
0.693509 5.95019 4.7851 2.08046 6.28756 4.9436 0.43421 7.49539 5.04076 
0.0640953 7.46979 4.85403 0.647174 6.96049 5.21081 2.33102 7.43051 4.67059 
3.62153 7.05804 4.79338 0.128386 7.83575 5.2666 2.1579 7.60012 5.23011 
3.00099 7.76134 4.77244 3.89409 7.64947 4.73236 1.33386 8.19272 4.88184 
2.246 8.57709 5.12718 3.56747 8.36589 5.22507 1.45173 9.12566 4.96178 
4.3541 9.32022 4.84663 3.0755 9.91522 5.16556 1.96974 5.48555 5.45813 
4.66271 6.06565 5.4156 1.67769 6.86711 5.62783 4.09391 6.39055 5.96312 
0.360434 7.69716 5.98452 1.68249 7.68581 5.33559 3.4544 8.05766 5.34651 
4.6777 8.06245 5.67948 0.779953 8.66934 5.65968 2.81954 8.22132 5.86051 
3.32888 8.60214 5.90951 3.91733 8.52716 5.93128 1.39642 9.74211 5.78917 
4.77833 9.6392 5.91771 0.0449309 5.2351 6.07971 1.90485 5.12501 6.02863 
2.58141 5.72952 6.19614 2.61355 5.9485 6.47626 0.415703 6.70651 6.33546 
1.48665 6.31442 6.64666 1.59973 6.36977 6.53928 2.93726 6.39416 6.5087 
0.301506 7.48831 6.16855 4.0047 6.97724 6.44465 4.35282 7.91015 6.12724 
1.39931 8.21364 6.66475 4.39928 8.61227 6.16959 1.57251 9.14418 6.37214 
0.508115 9.79393 6.47417 0.205823 9.40242 6.58508 1.88432 9.68504 6.39708 
3.10821 9.68204 6.28569 3.51204 6.85709 6.96613 4.45566 6.34363 7.27116 
[...]
POINT_DATA 1000
FIELD FieldData 7
id 1 1000 int
9 520 509 507 528 2 531 506 20 
11 526 515 525 510 503 521 527 16 
530 502 14 519 18 518 522 501 505 
10 512 12 513 17 6 504 529 511 
517 3 5 8 13 523 514 524 7 
15 19 1 21 4 516 508 548 35 
545 544 23 541 554 38 543 537 547 
532 550 555 39 40 22 533 26 534 
540 557 552 536 551 31 42 30 24 
41 556 546 37 32 29 34 33 535 
553 539 538 549 25 36 27 28 542 
570 560 562 565 71 561 68 48 53 
58 69 563 44 558 67 54 65 55 
63 51 49 62 47 573 50 571 43 
45 572 60 559 564 566 59 64 61 
46 57 567 70 569 66 52 574 568 
575 56 95 588 578 84 80 583 99 
92 91 103 90 579 78 85 100 86 
582 580 585 79 589 96 81 584 94 
592 101 83 591 581 102 77 587 82 
590 72 576 97 74 88 93 87 76 
73 586 75 98 577 89 122 118 119 
125 104 126 107 111 593 110 117 108 
106 115 601 598 124 112 120 123 127 
116 602 121 597 605 114 105 594 604 
606 607 599 128 610 600 608 603 595 
109 609 596 113 143 628 151 618 619 
137 635 629 625 132 133 140 150 633 
142 129 145 612 630 152 634 620 134 
616 148 611 617 623 138 144 149 631 
141 626 130 632 131 613 627 622 135 
614 139 621 147 615 624 136 146 636 
168 175 642 658 653 159 160 641 646 
171 651 161 173 647 155 157 640 158 
166 156 643 648 659 650 657 163 639 
644 154 167 660 174 172 656 162 655 
645 164 165 637 652 169 153 649 638 
170 654 194 668 177 680 193 185 199 
682 686 182 676 677 661 673 662 192 
669 672 190 666 681 189 198 183 180 
675 186 178 181 184 679 684 678 670 
195 187 664 674 179 683 176 671 196 
685 665 191 188 197 667 663 709 702 
207 219 693 203 701 689 204 703 206 
690 688 205 213 706 220 707 210 215 
218 705 209 708 200 710 214 711 700 
704 212 201 202 208 694 211 697 695 
698 692 691 687 221 696 216 217 699 
240 743 741 224 712 720 714 222 243 
225 238 734 241 227 244 230 715 233 
713 242 742 235 721 229 737 736 729 
237 728 732 727 234 733 740 725 223 
248 726 735 247 228 739 717 738 719 
730 239 723 716 246 231 245 724 236 
232 722 226 718 731 773 264 257 252 
750 251 256 765 259 764 767 270 761 
754 272 744 260 271 752 266 749 771 
758 250 756 253 258 747 753 768 757 
745 268 254 769 760 762 255 273 770 
249 262 261 269 759 751 748 746 763 
755 267 772 766 265 263 777 790 778 
296 782 287 277 781 286 794 281 791 
302 299 788 297 300 283 275 784 775 
780 290 282 785 293 292 789 783 793 
776 276 288 301 787 795 298 792 779 
291 289 295 279 774 284 285 278 280 
274 786 294 306 818 324 319 325 808 
318 323 812 813 313 816 805 316 322 
304 811 321 803 320 806 308 307 797 
305 796 817 310 314 315 309 799 317 
810 809 303 798 802 814 804 311 815 
807 801 312 800 821 349 355 819 832 
340 831 332 343 348 345 835 335 820 
334 830 353 827 825 342 338 337 833 
354 333 346 823 331 836 350 351 336 
837 341 834 344 339 829 824 828 347 
822 826 329 330 326 327 352 328 373 
870 858 857 848 854 852 840 359 869 
845 864 853 371 377 850 376 379 374 
380 370 839 855 861 364 847 357 856 
867 868 378 849 365 851 838 375 360 
844 865 860 862 372 363 863 843 362 
356 366 866 368 842 841 846 361 369 
358 367 859 890 875 404 385 394 401 
897 392 390 872 884 391 873 880 886 
396 889 399 389 403 384 888 871 892 
383 877 395 878 887 405 387 400 881 
895 398 876 896 381 382 891 386 898 
874 388 393 882 397 883 885 894 893 
879 402 437 911 424 909 423 432 419 
431 927 415 922 923 899 410 914 901 
426 411 921 422 908 413 926 928 417 
904 903 912 414 902 918 412 915 425 
916 438 917 407 429 436 905 906 433 
427 900 430 406 919 408 418 924 420 
428 907 920 439 416 434 409 925 421 
910 435 913 459 939 942 450 945 453 
461 457 940 440 946 944 937 951 442 
449 948 443 447 938 930 947 941 444 
950 448 446 462 929 452 445 933 460 
451 936 458 932 455 441 949 935 456 
943 931 454 934 464 967 475 966 468 
970 960 953 470 465 471 962 976 971 
469 478 952 965 472 956 955 977 968 
958 477 964 954 473 474 466 973 467 
476 957 961 975 974 479 959 969 972 
963 463 494 995 481 497 998 489 493 
992 999 487 499 491 485 988 994 996 
997 989 985 483 495 986 979 486 480 
991 484 482 492 488 980 1000 500 498 
978 496 990 984 981 983 982 993 987 
490 
type 1 1000 int
1 2 2 2 2 1 2 2 1 
1 2 2 2 2 2 2 2 1 
2 2 1 2 1 2 2 2 2 
1 2 1 2 1 1 2 2 2 
2 1 1 1 1 2 2 2 1 
1 1 1 1 1 2 2 2 1 
2 2 1 2 2 1 2 2 2 
2 2 2 1 1 1 2 1 2 
2 2 2 2 2 1 1 1 1 
1 2 2 1 1 1 1 1 2 
2 2 2 2 1 1 1 1 2 
2 2 2 2 1 2 1 1 1 
1 1 2 1 2 1 1 1 1 
1 1 1 1 1 2 1 2 1 
1 2 1 2 2 2 1 1 1 
1 1 2 1 2 1 1 2 2 
2 1 1 2 2 1 1 2 1 
1 1 1 1 2 1 1 1 1 
2 2 2 1 2 1 1 2 1 
2 1 1 2 2 1 1 2 1 
2 1 2 1 1 1 1 1 1 
1 2 1 1 2 1 1 1 1 
1 1 1 1 1 2 1 1 1 
1 1 2 2 1 1 1 1 1 
1 2 1 2 2 1 1 2 2 
2 2 2 1 2 2 2 2 2 
1 2 2 1 1 2 1 2 2 
1 2 2 2 1 1 1 1 2 
1 1 1 2 2 1 2 2 1 
2 1 2 2 2 1 1 1 2 
1 2 1 2 1 2 2 2 1 
2 1 2 1 2 2 1 1 2 
1 1 2 2 2 1 1 2 2 
1 2 1 1 2 1 1 2 1 
1 1 2 2 2 2 2 1 2 
2 1 1 2 1 1 2 1 2 
2 1 1 2 2 1 1 2 2 
1 2 1 2 1 2 1 1 1 
2 2 1 2 2 2 2 2 1 
2 2 1 2 2 1 1 1 1 
2 1 1 1 1 2 2 2 2 
1 1 2 2 1 2 1 2 1 
2 2 1 1 1 2 2 2 2 
1 1 2 1 2 2 1 2 1 
2 2 1 1 2 1 2 1 1 
1 2 1 2 1 2 1 2 2 
2 1 1 1 1 2 1 2 2 
2 2 2 2 1 2 1 1 2 
1 2 2 1 2 2 2 1 1 
1 1 2 1 1 1 1 2 1 
2 1 2 1 2 1 2 2 2 
1 2 2 2 1 2 2 2 1 
1 2 2 1 1 2 2 2 2 
2 1 2 2 1 1 1 2 1 
1 2 1 2 2 2 1 1 1 
2 1 1 2 1 2 2 1 2 
2 1 2 1 1 2 1 2 2 
2 1 2 1 1 2 2 2 2 
2 1 1 2 2 2 1 1 2 
1 1 1 1 2 2 2 2 2 
2 1 2 2 1 1 2 2 2 
1 2 1 1 2 1 2 1 2 
1 1 2 1 1 1 1 2 2 
2 1 1 2 1 1 2 2 2 
2 1 1 1 2 2 1 2 2 
1 1 1 1 2 1 1 1 1 
1 2 1 1 2 1 1 1 2 
1 1 2 2 1 2 2 1 1 
1 2 1 2 1 2 1 1 2 
1 2 2 1 1 1 1 2 1 
2 2 1 2 2 2 2 1 2 
2 2 1 2 2 1 1 2 2 
1 2 1 1 1 1 2 1 2 
1 2 1 2 2 1 1 1 2 
1 1 1 2 1 2 1 1 1 
2 1 2 1 1 2 2 2 1 
2 2 1 1 1 1 1 1 1 
2 2 2 2 2 2 2 1 2 
2 2 2 1 1 2 1 1 1 
1 1 2 2 2 1 2 1 2 
2 2 1 2 1 2 2 1 1 
2 2 2 2 1 1 2 2 1 
1 1 2 1 2 2 2 1 1 
1 1 2 2 2 1 1 1 1 
2 1 1 2 2 1 2 2 2 
1 2 1 1 1 1 2 2 2 
1 2 1 2 2 1 1 1 2 
2 1 2 2 1 1 2 1 2 
2 1 1 2 1 2 2 2 2 
2 1 1 2 1 2 1 1 1 
1 2 1 2 2 2 1 2 2 
1 1 2 1 2 1 2 2 1 
2 2 2 1 2 2 1 2 1 
2 1 2 1 1 1 2 2 1 
1 2 1 1 2 1 1 2 1 
1 2 2 1 1 1 1 2 1 
2 1 2 1 2 2 1 2 1 
1 1 2 1 2 2 2 2 1 
1 2 1 1 2 2 2 2 1 
2 1 1 1 2 1 1 2 1 
1 2 1 2 1 1 2 2 1 
2 2 1 2 1 2 1 2 1 
2 2 2 1 1 1 2 2 2 
1 1 2 2 1 2 2 2 2 
2 1 2 2 1 1 1 2 1 
1 2 2 2 2 1 2 2 2 
2 1 1 2 1 1 2 1 1 
2 2 1 1 1 1 2 2 2 
2 2 2 1 1 2 2 1 1 
2 1 1 1 1 2 2 1 1 
2 1 2 2 2 2 2 2 2 
1 
i 3 1000 int
0 0 0 0 0 0 0 0 0 
0 0 0 0 0 0 0 0 0 
0 0 0 0 0 0 0 0 0 
0 0 0 0 0 0 0 0 0 
0 0 0 0 0 0 0 0 0 
0 0 0 0 0 0 0 0 0 
0 0 0 0 0 0 0 0 0 
0 0 0 0 0 0 0 0 0 
0 0 0 0 0 0 0 0 0 
0 0 0 0 0 0 0 0 0 
0 0 0 0 0 0 0 0 0 
0 0 0 0 0 0 0 0 0 
0 0 0 0 0 0 0 0 0 
0 0 0 0 0 0 0 0 0 
0 0 0 0 0 0 0 0 0 
0 0 0 0 0 0 0 0 0 
0 0 0 0 0 0 0 0 0 
0 0 0 0 0 0 0 0 0 
0 0 0 0 0 0 0 0 0 
0 0 0 0 0 0 0 0 0 
0 0 0 0 0 0 0 0 0 
0 0 0 0 0 0 0 0 0 
0 0 0 0 0 0 0 0 0 
0 0 0 0 0 0 0 0 0 
0 0 0 0 0 0 0 0 0 
0 0 0 0 0 0 0 0 0 
0 0 0 0 0 0 0 0 0 
0 0 0 0 0 0 0 0 0 
0 0 0 0 0 0 0 0 0 
0 0 0 0 0 0 0 0 0 
0 0 0 0 0 0 0 0 0 
0 0 0 0 0 0 0 0 0 
0 0 0 0 0 0 0 0 0 
0 0 0 0 0 0 0 0 0 
0 0 0 0 0 0 0 0 0 
0 0 0 0 0 0 0 0 0 
0 0 0 0 0 0 0 0 0 
0 0 0 0 0 0 0 0 0 
0 0 0 0 0 0 0 0 0 
0 0 0 0 0 0 0 0 0 
0 0 0 0 0 0 0 0 0 
0 0 0 0 0 0 0 0 0 
0 0 0 0 0 0 0 0 0 
0 0 0 0 0 0 0 0 0 
0 0 0 0 0 0 0 0 0 
0 0 0 0 0 0 0 0 0 
0 0 0 0 0 0 0 0 0 
0 0 0 0 0 0 0 0 0 
0 0 0 0 0 0 0 0 0 
0 0 0 0 0 0 0 0 0 
0 0 0 0 0 0 0 0 0 
0 0 0 0 0 0 0 0 0 
0 0 0 0 0 0 0 0 0 
0 0 0 0 0 0 0 0 0 
0 0 0 0 0 0 0 0 0 
0 0 0 0 0 0 0 0 0 
0 0 0 0 0 0 0 0 0 
0 0 0 0 0 0 0 0 0 
0 0 0 0 0 0 0 0 0 
0 0 0 0 0 0 0 0 0 
0 0 0 0 0 0 0 0 0 
0 0 0 0 0 0 0 0 0 
0 0 0 0 0 0 0 0 0 
0 0 0 0 0 0 0 0 0 
0 0 0 0 0 0 0 0 0 
0 0 0 0 0 0 0 0 0 
0 0 0 0 0 0 0 0 0 
0 0 0 0 0 0 0 0 0 
0 0 0 0 0 0 0 0 0 
0 0 0 0 0 0 0 0 0 
0 0 0 0 0 0 0 0 0 
0 0 0 0 0 0 0 0 0 
0 0 0 0 0 0 0 0 0 
0 0 0 0 0 0 0 0 0 
0 0 0 0 0 0 0 0 0 
0 0 0 0 0 0 0 0 0 
0 0 0 0 0 0 0 0 0 
0 0 0 0 0 0 0 0 0 
0 0 0 0 0 0 0 0 0 
0 0 0 0 0 0 0 0 0 
0 0 0 0 0 0 0 0 0 
0 0 0 0 0 0 0 0 0 
0 0 0 0 0 0 0 0 0 
0 0 0 0 0 0 0 0 0 
0 0 0 0 0 0 0 0 0 
0 0 0 0 0 0 0 0 0 
0 0 0 0 0 0 0 0 0 
0 0 0 0 0 0 0 0 0 
0 0 0 0 0 0 0 0 0 
0 0 0 0 0 0 0 0 0 
0 0 0 0 0 0 0 0 0 
0 0 0 0 0 0 0 0 0 
0 0 0 0 0 0 0 0 0 
0 0 0 0 0 0 0 0 0 
0 0 0 0 0 0 0 0 0 
0 0 0 0 0 0 0 0 0 
0 0 0 0 0 0 0 0 0 
0 0 0 0 0 0 0 0 0 
0 0 0 0 0 0 0 0 0 
0 0 0 0 0 0 0 0 0 
0 0 0 0 0 0 0 0 0 
0 0 0 0 0 0 0 0 0 
0 0 0 0 0 0 0 0 0 
0 0 0 0 0 0 0 0 0 
0 0 0 0 0 0 0 0 0 
0 0 0 0 0 0 0 0 0 
0 0 0 0 0 0 0 0 0 
0 0 0 0 0 0 0 0 0 
0 0 0 0 0 0 0 0 0 
0 0 0 0 0 0 0 0 0 
0 0 0 0 0 0 0 0 0 
0 0 0 0 0 0 0 0 0 
0 0 0 0 0 0 0 0 0 
0 0 0 0 0 0 0 0 0 
0 0 0 0 0 0 0 0 0 
0 0 0 0 0 0 0 0 0 
0 0 0 0 0 0 0 0 0 
0 0 0 0 0 0 0 0 0 
0 0 0 0 0 0 0 0 0 
0 0 0 0 0 0 0 0 0 
0 0 0 0 0 0 0 0 0 
0 0 0 0 0 0 0 0 0 
0 0 0 0 0 0 0 0 0 
0 0 0 0 0 0 0 0 0 
0 0 0 0 0 0 0 0 0 
0 0 0 0 0 0 0 0 0 
0 0 0 0 0 0 0 0 0 
0 0 0 0 0 0 0 0 0 
0 0 0 0 0 0 0 0 0 
0 0 0 0 0 0 0 0 0 
0 0 0 0 0 0 0 0 0 
0 0 0 0 0 0 0 0 0 
0 0 0 0 0 0 0 0 0 
0 0 0 0 0 0 0 0 0 
0 0 0 0 0 0 0 0 0 
0 0 0 0 0 0 0 0 0 
0 0 0 0 0 0 0 0 0 
0 0 0 0 0 0 0 0 0 
0 0 0 0 0 0 0 0 0 
0 0 0 0 0 0 0 0 0 
0 0 0 0 0 0 0 0 0 
0 0 0 0 0 0 0 0 0 
0 0 0 0 0 0 0 0 0 
0 0 0 0 0 0 0 0 0 
0 0 0 0 0 0 0 0 0 
0 0 0 0 0 0 0 0 0 
0 0 0 0 0 0 0 0 0 
0 0 0 0 0 0 0 0 0 
0 0 0 0 0 0 0 0 0 
0 0 0 0 0 0 0 0 0 
0 0 0 0 0 0 0 0 0 
0 0 0 0 0 0 0 0 0 
0 0 0 0 0 0 0 0 0 
0 0 0 0 0 0 0 0 0 
0 0 0 0 0 0 0 0 0 
0 0 0 0 0 0 0 0 0 
0 0 0 0 0 0 0 0 0 
0 0 0 0 0 0 0 0 0 
0 0 0 0 0 0 0 0 0 
0 0 0 0 0 0 0 0 0 
0 0 0 0 0 0 0 0 0 
0 0 0 0 0 0 0 0 0 
0 0 0 0 0 0 0 0 0 
0 0 0 0 0 0 0 0 0 
0 0 0 0 0 0 0 0 0 
0 0 0 0 0 0 0 0 0 
0 0 0 0 0 0 0 0 0 
0 0 0 0 0 0 0 0 0 
0 0 0 0 0 0 0 0 0 
0 0 0 0 0 0 0 0 0 
0 0 0 0 0 0 0 0 0 
0 0 0 0 0 0 0 0 0 
0 0 0 0 0 0 0 0 0 
0 0 0 0 0 0 0 0 0 
0 0 0 0 0 0 0 0 0 
0 0 0 0 0 0 0 0 0 
0 0 0 0 0 0 0 0 0 
0 0 0 0 0 0 0 0 0 
0 0 0 0 0 0 0 0 0 
0 0 0 0 0 0 0 0 0 
0 0 0 0 0 0 0 0 0 
0 0 0 0 0 0 0 0 0 
0 0 0 0 0 0 0 0 0 
0 0 0 0 0 0 0 0 0 
0 0 0 0 0 0 0 0 0 
0 0 0 0 0 0 0 0 0 
0 0 0 0 0 0 0 0 0 
0 0 0 0 0 0 0 0 0 
0 0 0 0 0 0 0 0 0 
0 0 0 0 0 0 0 0 0 
0 0 0 0 0 0 0 0 0 
0 0 0 0 0 0 0 0 0 
0 0 0 0 0 0 0 0 0 
0 0 0 0 0 0 0 0 0 
0 0 0 0 0 0 0 0 0 
0 0 0 0 0 0 0 0 0 
0 0 0 0 0 0 0 0 0 
0 0 0 0 0 0 0 0 0 
0 0 0 0 0 0 0 0 0 
0 0 0 0 0 0 0 0 0 
0 0 0 0 0 0 0 0 0 
0 0 0 0 0 0 0 0 0 
0 0 0 0 0 0 0 0 0 
0 0 0 0 0 0 0 0 0 
0 0 0 0 0 0 0 0 0 
0 0 0 0 0 0 0 0 0 
0 0 0 0 0 0 0 0 0 
0 0 0 0 0 0 0 0 0 
0 0 0 0 0 0 0 0 0 
0 0 0 0 0 0 0 0 0 
0 0 0 0 0 0 0 0 0 
0 0 0 0 0 0 0 0 0 
0 0 0 0 0 0 0 0 0 
0 0 0 0 0 0 0 0 0 
0 0 0 0 0 0 0 0 0 
0 0 0 0 0 0 0 0 0 
0 0 0 0 0 0 0 0 0 
0 0 0 0 0 0 0 0 0 
0 0 0 0 0 0 0 0 0 
0 0 0 0 0 0 0 0 0 
0 0 0 0 0 0 0 0 0 
0 0 0 0 0 0 0 0 0 
0 0 0 0 0 0 0 0 0 
0 0 0 0 0 0 0 0 0 
0 0 0 0 0 0 0 0 0 
0 0 0 0 0 0 0 0 0 
0 0 0 0 0 0 0 0 0 
0 0 0 0 0 0 0 0 0 
0 0 0 0 0 0 0 0 0 
0 0 0 0 0 0 0 0 0 
0 0 0 0 0 0 0 0 0 
0 0 0 0 0 0 0 0 0 
0 0 0 0 0 0 0 0 0 
0 0 0 0 0 0 0 0 0 
0 0 0 0 0 0 0 0 0 
0 0 0 0 0 0 0 0 0 
0 0 0 0 0 0 0 0 0 
0 0 0 0 0 0 0 0 0 
0 0 0 0 0 0 0 0 0 
0 0 0 0 0 0 0 0 0 
0 0 0 0 0 0 0 0 0 
0 0 0 0 0 0 0 0 0 
0 0 0 0 0 0 0 0 0 
0 0 0 0 0 0 0 0 0 
0 0 0 0 0 0 0 0 0 
0 0 0 0 0 0 0 0 0 
0 0 0 0 0 0 0 0 0 
0 0 0 0 0 0 0 0 0 
0 0 0 0 0 0 0 0 0 
0 0 0 0 0 0 0 0 0 
0 0 0 0 0 0 0 0 0 
0 0 0 0 0 0 0 0 0 
0 0 0 0 0 0 0 0 0 
0 0 0 0 0 0 0 0 0 
0 0 0 0 0 0 0 0 0 
0 0 0 0 0 0 0 0 0 
0 0 0 0 0 0 0 0 0 
0 0 0 0 0 0 0 0 0 
0 0 0 0 0 0 0 0 0 
0 0 0 0 0 0 0 0 0 
0 0 0 0 0 0 0 0 0 
0 0 0 0 0 0 0 0 0 
0 0 0 0 0 0 0 0 0 
0 0 0 0 0 0 0 0 0 
0 0 0 0 0 0 0 0 0 
0 0 0 0 0 0 0 0 0 
0 0 0 0 0 0 0 0 0 
0 0 0 0 0 0 0 0 0 
0 0 0 0 0 0 0 0 0 
0 0 0 0 0 0 0 0 0 
0 0 0 0 0 0 0 0 0 
0 0 0 0 0 0 0 0 0 
0 0 0 0 0 0 0 0 0 
0 0 0 0 0 0 0 0 0 
0 0 0 0 0 0 0 0 0 
0 0 0 0 0 0 0 0 0 
0 0 0 0 0 0 0 0 0 
0 0 0 0 0 0 0 0 0 
0 0 0 0 0 0 0 0 0 
0 0 0 0 0 0 0 0 0 
0 0 0 0 0 0 0 0 0 
0 0 0 0 0 0 0 0 0 
0 0 0 0 0 0 0 0 0 
0 0 0 0 0 0 0 0 0 
0 0 0 0 0 0 0 0 0 
0 0 0 0 0 0 0 0 0 
0 0 0 0 0 0 0 0 0 
0 0 0 0 0 0 0 0 0 
0 0 0 0 0 0 0 0 0 
0 0 0 0 0 0 0 0 0 
0 0 0 0 0 0 0 0 0 
0 0 0 0 0 0 0 0 0 
0 0 0 0 0 0 0 0 0 
0 0 0 0 0 0 0 0 0 
0 0 0 0 0 0 0 0 0 
0 0 0 0 0 0 0 0 0 
0 0 0 0 0 0 0 0 0 
0 0 0 0 0 0 0 0 0 
0 0 0 0 0 0 0 0 0 
0 0 0 0 0 0 0 0 0 
0 0 0 0 0 0 0 0 0 
0 0 0 0 0 0 0 0 0 
0 0 0 0 0 0 0 0 0 
0 0 0 0 0 0 0 0 0 
0 0 0 0 0 0 0 0 0 
0 0 0 0 0 0 0 0 0 
0 0 0 0 0 0 0 0 0 
0 0 0 0 0 0 0 0 0 
0 0 0 0 0 0 0 0 0 
0 0 0 0 0 0 0 0 0 
0 0 0 0 0 0 0 0 0 
0 0 0 0 0 0 0 0 0 
0 0 0 0 0 0 0 0 0 
0 0 0 0 0 0 0 0 0 
0 0 0 0 0 0 0 0 0 
0 0 0 0 0 0 0 0 0 
0 0 0 0 0 0 0 0 0 
0 0 0 0 0 0 0 0 0 
0 0 0 0 0 0 0 0 0 
0 0 0 0 0 0 0 0 0 
0 0 0 0 0 0 0 0 0 
0 0 0 0 0 0 0 0 0 
0 0 0 0 0 0 0 0 0 
0 0 0 0 0 0 0 0 0 
0 0 0 0 0 0 0 0 0 
0 0 0 0 0 0 0 0 0 
0 0 0 0 0 0 0 0 0 
0 0 0 0 0 0 0 0 0 
0 0 0 0 0 0 0 0 0 
0 0 0 0 0 0 0 0 0 
0 0 0 0 0 0 0 0 0 
0 0 0 0 0 0 0 0 0 
0 0 0 0 0 0 0 0 0 
0 0 0 
v 3 1000 double
0.28638906345 0.20250371479 -0.42565648561 -0.19253376625 -0.13585116688 -0.081077214339 0.097740399223 -0.037606240163 -0.2878968166 
-0.58568574975 -0.15635590037 -0.49048972434 0.34075872785 -0.71849778572 0.87148615726 0.24527002456 -0.35298193032 0.18592222879 
-0.070654232068 -0.53249473306 0.02985394329 0.45422399688 0.6371859756 0.36781145051 -0.00066680827506 0.074790914284 -0.41289198785 
0.026164100092 0.51783603186 0.56650923673 0.095088770648 0.50871718681 0.1619327366 -0.022696168161 -0.018841047302 -0.10471045722 
-0.15888019516 0.43457148265 -0.68260071037 0.39687991487 -0.24016718988 0.13913924617 -0.56052652886 0.038555754655 0.12435475798 
0.17282161633 0.64318944306 -0.24990618097 0.034444647525 -0.14428565286 -0.15615872913 0.10557616071 0.42089421965 0.44297360283 
0.098563737203 0.38045066326 -0.10940871105 -0.0019298590027 0.032022850375 -0.30436987068 -0.11214864474 -0.35112846836 0.56732744191 
-0.1069791538 0.50546989194 -0.31092749034 -0.39495376988 0.54081372608 -0.22097254606 -0.48283016523 -0.051640019154 0.020077927377 
-0.16728704327 -0.04235146563 0.14197019678 -0.22147189423 0.0066323559088 -0.52371018973 0.016582592455 -0.37693016915 -0.016314632483 
0.021527523689 -0.063201700188 0.13278193371 -0.69487047892 -0.69767732116 -0.88339034146 0.40017524969 0.15609406754 -0.19478236608 
-0.82907205561 1.1480991968 -0.10596147483 0.15524094889 -0.07048633316 0.015913120871 0.15731453962 -0.14566913998 -0.23893191516 
-0.81102577524 -1.0257030311 0.059701773617 0.34451772331 -0.016897935309 0.32113834337 0.11785923347 -0.17073526145 0.16606507517 
0.32517560806 0.12744751596 0.075069770105 0 0 0 -0.18425077905 -0.058347358934 0.01234529688 
-0.081962434014 -0.37453515013 0.26290941937 -0.22624647781 0.20204242534 0.071879461309 0.23484452243 -0.15283218951 0.25947872579 
0.19323409463 -0.21064723622 0.02707707049 0.029356469448 -0.2852507368 0.090655580597 0.098645820659 -0.011323983014 0.27038998495 
0.17276182656 -1.087931868 0.67906151284 1.1022071762 0.4135069891 0.88931922444 -0.34857712863 0.38416102602 0.063209009191 
-0.013554076374 -0.0021261666295 0.4569603148 -0.66545125839 0.2174686004 -0.25590131903 0.42952728304 -0.16890598587 -0.74663376023 
-0.29783267427 -0.42328946491 0.0649589523 -0.18449193101 -0.24157198467 -0.21304178631 -0.28046765334 0.3062030759 -0.0086550489192 
0.11304409659 0.10985648162 0.11078665637 0.29614911984 0.0053859830364 0.0016576922265 -0.0095918833634 -0.073946793335 -0.41681346845 
-0.046915159655 0.35718369535 -0.26238521555 -0.20524743116 -0.090692382067 -0.16617356328 0.1744395519 0.26987877316 -0.080424581161 
-0.2239155885 -0.75312451279 0.32373687853 0.72843687586 -0.40059026203 -0.28800351736 0.22561315625 0.16571662429 -0.29930848244 
-0.64957279918 0.55878722258 0.34486770567 0.38586993914 0.76357299447 0.32684926789 -0.60271565791 0.11313087292 -0.069684531328 
-0.004728578493 -0.33615322021 -0.50676941763 -0.15437850548 -0.39618854573 0.40543499236 -0.21722027202 -0.41418231336 0.0020047380615 
0.07675308513 0.84600246989 0.52639899211 -0.31819176291 0.32060594384 0.49313642875 -0.38822304074 -0.19500650996 -0.30767275497 
0.44844008967 0.020669978434 0.30395654959 0.0038272805758 -0.015094828027 0.19721700766 -0.78680424634 0.49927801035 0.13254727353 
-0.41026647241 -0.092938381242 0.35261357901 0.46291326534 -0.18974704251 -0.20705421162 0.011905758699 0.26205373243 -0.03156272223 
0.044304787112 0.42943885662 0.20088489512 -0.87824187724 -0.40758039872 -0.023637572134 0.28781155495 0.068871844174 0.19941125691 
-0.52075160762 -0.10172133169 -0.75851413023 0.85746726979 0.20453839663 0.85268848427 0.23843132209 -0.12744166447 0.37573192138 
-0.058711685707 0.042287255432 0.01512799276 0.0077045757618 -0.013278371519 -0.0078727984249 0.012101110904 0.26910955138 0.48912610128 
0.34426444308 -0.14320697396 -0.61565929939 0.20815752518 -0.074963579609 0.15814440787 -0.22792470623 0.090667476506 0.16917175044 
-0.050765218702 -0.0023477567304 -0.24055044424 0.038246853453 -0.11738984347 0.053844425877 0 0 0 
0.27355889566 -0.43050385845 -0.15496769593 0.029199398153 0.024216873378 -0.45939282665 0.00035465506557 0.0098320531391 0.019139052259 
0.64278771601 0.31064727364 -0.36537596393 0.3794435879 -0.24795784558 0.18446442854 -0.3794435879 0.24795784558 -0.18446442854 
-0.11372214848 -0.65380892056 -0.21132440282 0.39318390699 0.30121510922 -0.68569111842 -0.44134035023 -0.096709776883 0.66624941327 
-0.11804031956 0.1652948085 0.5078439392 0.092470525275 0.63719903797 -0.45069597178 0.073231837604 -0.66357351092 -0.2366293395 
0.13025302833 0.089850733297 0.13014156816 0.01508002318 0.017318958973 0.0431388599 -0.37768607604 -0.068484229522 0.066540766505 
0.39879043209 -0.18766647868 0.096955233939 0.76793080206 0.074688459396 -0.11923762943 0.24993162131 -0.34925519025 0.30388999516 
-0.012606071772 0.18000846991 0.3022305727 -0.37138808628 -0.2201006488 -0.12409628242 -0.2187352246 0.0019372347295 -0.61717591856 
0.024375818459 -0.18969716042 -0.41229354203 0.20852961077 -0.25122480391 0.08695847196 -0.10377470033 -0.2174084572 0.94012187636 
0.84922815653 0.18398955481 0.12050052634 0.063376073157 0.031714981425 -0.063708185492 -0.14922937507 0.6719522774 0.29755112808 
-0.34432480072 -0.33505879709 -0.34985895398 0.013365930146 -0.48704429401 -0.58694741744 0.13164698705 -0.305555849 0.61516586789 
0.20393738384 -0.37994518605 -0.2341681215 0.28533972026 0.47986713525 0.21693848893 -0.11356773867 0.39413588185 0.49449916729 
0.30730278639 -0.41186861875 -0.19192946937 0.062372123394 -0.055616216257 0.31676611326 0.34795289047 0.36599504276 0.086732891565 
-0.036111468507 -0.0492762198 0.028079903815 0.1281630255 -0.17281017831 0.076535234526 0.82214704333 0.10519353419 -0.70370451111 
0.14832975892 0.30234962651 0.091065795609 -0.90782658542 0.35703596214 -0.25177433759 -0.24809068395 -0.070797056764 0.1561792887 
-0.1021781705 -0.18439705833 0.37720978836 0.073344020835 -0.41531486513 -0.10211616842 0.26908508945 0.26971505862 0.17183581661 
0.37296944017 0.41107735538 0.28463288494 0.21092437563 0.60062237867 0.064472293092 -0.46254834414 -0.21224308422 0.021277613011 
0.52833286516 -3.8243363463e-05 0.03622262301 -0.88649258227 -0.48662936737 -0.12971768513 -0.12801704172 -0.024641704296 0.013019400005 
-0.2707751652 0.43517805612 -0.035052671549 0.50325021904 -0.62838393024 0.11007359756 -0.49059225115 -0.77711622204 0.15568381333 
0.045826621726 0.43464584001 0.096320784945 0.50124112743 0.60914736406 0.85656552024 -0.067650700809 0.067206956219 -0.051945741766 
-0.24748681758 -0.19854414602 -0.28314755387 0.25209245711 -0.052882000077 0.060951084088 0.22101146539 0.053456358599 -0.2755395685 
0.033809878975 0.0059012731533 -0.024765848786 0.55598663018 -0.4883353981 0.069389208801 0 0 0 
0.24800255897 -0.42317143803 0.7727057206 0.10517651262 -0.1852659653 -0.0085743850535 0.03080980935 0.006829549101 -0.041537419854 
-0.24113030489 -0.45841975784 0.17773696447 0.38782207754 0.55289122223 0.33485749023 0.17568789963 0.059418983405 0.17744667105 
-1.0416283109 0.2105532119 -0.31555934713 -0.13218148066 -0.34930709735 -0.37134805921 -0.3848618963 -0.2969650471 -0.63141783399 
0.76808983141 -0.49877882757 0.468761847 0.094838714785 0.47832677507 -0.74023643048 0.25482811622 -0.12322280101 -0.16908430342 