# vtk DataFile Version 4.2
Generated by LIGGGHTS
ASCII
DATASET POLYDATA
POINTS 1000 float
0.413385 0.527456 0.210812 1.87788 0.134216 0.0393742 0.769849 1.80955 0.588697 
3.11523 1.6558 0.0298641 4.44469 1.78537 0.201253 0.00648225 2.48935 0.583995 
3.67192 2.33902 0.523173 1.41036 2.67871 0.270023 2.65388 2.76967 0.424844 
3.38978 3.36872 0.108932 0.00537453 4.01063 0.286959 3.38914 4.36541 0.0256555 
4.53791 4.31143 0.00686726 1.62608 4.62155 0.636723 4.11543 4.98213 0.647799 
0.973928 0.487954 1.06106 3.76962 0.359441 0.700005 1.88898 0.927249 0.910564 
2.85698 0.875636 0.664897 4.65214 0.992569 0.802349 3.72396 1.36333 0.76741 
2.51534 1.90823 0.913461 4.70905 2.61782 0.74985 0.680553 3.14784 1.00939 
1.5501 3.64876 0.877036 3.67434 3.1877 1.05208 4.51903 3.59875 0.708732 
3.56434 4.1919 0.994787 0.554072 4.66514 0.83417 2.62633 4.73116 0.692356 
2.72625 0.215394 1.41934 4.49781 0.219158 1.85778 0.646152 0.951708 1.90185 
2.7581 1.21322 1.70276 3.62032 0.698398 1.65018 4.57322 1.21746 1.82014 
0.186584 2.35186 1.55929 1.20312 2.29793 1.51706 3.22389 2.16808 1.56986 
4.19083 2.01924 1.36071 4.95602 2.3143 1.94024 2.63127 3.10401 1.3853 
4.04401 2.95307 1.95528 1.71146 3.29206 1.83463 4.9353 3.25984 1.61252 
0.951885 3.95169 1.62941 2.65747 4.1155 1.54708 4.43906 4.18381 1.51588 
1.27542 4.89487 1.5325 1.38809 0.539214 2.4348 2.38101 0.471794 2.32212 
3.35512 0.389183 2.641 1.45741 1.53136 2.12221 3.72282 1.55578 2.2244 
0.637367 2.26668 2.66593 2.42948 1.9939 2.52374 0.658229 3.08137 2.08184 
1.58645 2.56492 2.55197 2.48448 2.99064 2.43993 4.83522 3.06008 2.5993 
3.2217 3.64551 2.25331 0.87201 3.90252 2.62753 1.8431 4.06989 2.45079 
4.21803 3.8325 2.42995 0.136491 4.41932 2.18934 1.13035 4.86615 2.55737 
2.64334 4.6739 2.37713 3.66643 4.66251 2.32557 4.32982 0.563099 2.78191 
0.50341 0.724849 2.91864 1.95929 1.20947 2.92954 3.03366 1.29757 2.91126 
4.52246 1.53515 2.92991 3.56741 2.45709 2.68806 4.44244 2.46293 3.32137 
0.243434 3.24119 3.03703 1.21677 3.17761 3.31298 2.43073 4.23727 3.25138 
3.52072 4.06444 3.11392 3.11503 4.97228 3.22631 4.23271 4.8491 3.17213 
2.52112 0.554925 3.43681 4.37609 0.317526 3.82469 0.0899521 0.718408 3.9198 
1.4258 0.805494 3.71906 3.49477 0.730527 3.59381 3.66208 1.85938 3.4847 
0.241185 2.37617 3.58059 1.31707 2.12277 3.42388 2.81727 2.45456 3.36037 
3.64452 2.99953 3.64957 2.21555 3.26664 3.37214 4.39685 3.64913 3.39664 
0.473572 4.19587 3.64931 1.45048 4.14274 3.43161 2.99357 3.75306 3.92135 
2.68736 0.390723 4.4234 0.831527 0.730731 4.59079 3.58243 0.781878 4.63809 
0.270672 1.65719 4.28203 1.27188 1.61099 4.29215 2.93867 1.43718 4.03414 
4.23512 1.33472 4.11429 2.16621 2.12944 4.05194 3.43237 2.30678 4.34912 
4.85319 2.18422 4.19094 1.59732 3.12388 4.27447 0.064696 3.35924 4.01382 
4.71996 3.17495 4.21652 2.10723 4.13965 4.1926 3.78187 4.35665 4.04179 
4.73431 4.21936 4.31383 1.20077 4.87097 4.33249 2.99634 4.52981 4.63596 
4.35524 0.171657 4.81386 1.81867 0.853738 4.70447 2.69204 1.25195 4.98547 
3.68058 1.67237 5.08249 0.574746 2.35779 4.94013 1.6066 2.27394 4.98147 
2.7226 2.33067 5.09364 4.63564 1.98729 5.14771 3.98212 2.76329 5.0494 
0.63904 3.3508 4.8324 2.50304 3.2438 4.72941 4.00647 3.74755 4.81354 
0.385956 4.34427 4.66932 1.36713 4.03584 4.85708 2.30115 4.09791 5.21075 
1.07261 0.573344 5.65648 2.66371 0.323723 5.47448 2.64571 1.19704 5.98298 
3.53213 0.816455 5.63919 4.51811 1.01111 5.33296 0.630287 1.4837 5.42569 
1.63364 1.39356 5.54437 2.04983 2.23924 5.88399 1.12923 2.69887 5.88082 
4.63607 2.71373 5.83874 0.00797741 3.26973 5.60443 1.8656 3.36065 5.73921 
3.18499 3.65791 5.3779 4.4233 3.68862 5.72059 0.656652 4.06811 5.59175 
1.58386 4.31622 5.87278 2.57763 4.88755 5.7712 4.56327 4.63438 5.4275 
0.390813 0.0965905 6.21176 1.9306 0.527773 6.18498 3.84041 0.767848 6.58928 
4.81077 1.11191 6.40436 0.0477873 1.25305 6.35598 0.863081 1.8454 6.32909 
1.75648 1.44789 6.5391 4.15348 1.74978 5.9973 0.109885 2.55615 6.29811 
2.75905 3.02172 6.03447 3.67618 2.62334 6.10893 0.731686 3.48774 6.42274 
4.05379 3.49171 6.62869 2.53206 4.15831 6.4639 3.59109 4.30852 6.06081 
0.834739 4.72351 6.40575 4.35247 4.77413 6.52517 0.123114 0.187963 7.17099 
1.15696 0.311981 6.8173 1.98786 0.0339658 7.29946 4.64326 0.223604 6.83298 
0.707348 1.15873 7.1017 3.05153 1.31204 6.88967 0.228977 2.03898 7.14668 
2.29635 2.17547 6.96274 3.44639 2.20812 7.09258 1.122 2.65884 7.08244 
4.39975 2.57579 6.83206 0.260385 3.14595 7.28049 1.68865 3.68749 6.73839 
2.49903 3.15466 6.99111 4.91644 3.52836 7.1358 0.50523 4.13764 7.15033 
3.37462 4.11296 7.01951 0.883814 0.433277 7.77395 3.87694 0.111377 7.46666 
2.1658 1.02368 7.35006 3.12767 0.731175 7.70011 4.20804 1.2152 7.40467 
0.730982 2.40438 7.96712 2.7055 1.93752 7.84373 4.40521 2.17776 7.77604 
1.78227 2.9642 7.9297 1.0439 3.6301 7.82283 4.16065 3.14599 7.68711 
2.53341 3.98736 7.56211 3.52898 3.87479 7.98048 0.145538 4.72788 7.89727 
1.15728 4.86982 7.34931 2.8768 4.90673 7.36885 4.20452 4.4297 7.49108 
2.34908 0.330614 8.18363 0.911282 1.39591 8.05171 2.34143 1.27854 8.50212 
3.62767 1.44957 8.18459 4.57715 1.28097 8.46892 1.70753 2.07337 8.37784 
3.50852 2.46875 8.11386 2.76403 3.13028 8.02281 0.487053 4.01056 8.56126 
2.00969 3.8635 8.43877 1.21822 4.65099 8.3237 2.94082 4.65372 8.3974 
1.96885 0.498292 9.10734 3.3192 0.494448 8.66593 4.30191 0.454707 9.07488 
0.647684 0.688953 8.71424 1.40356 1.30676 8.94348 3.16377 1.70887 9.03242 
2.19833 1.99792 9.24922 4.14339 2.11807 8.80232 0.10227 3.09967 8.717 
0.997671 2.70472 8.94716 1.93286 3.06697 9.04094 2.95658 2.68707 9.09313 
4.7218 2.92516 8.6836 2.9134 3.67958 9.2514 3.7594 3.23375 8.73394 
1.40874 4.18739 9.23341 3.92862 4.17624 9.07177 4.913 3.96229 8.77048 
1.97658 4.94372 8.90734 1.26221 0.917251 9.85363 2.85512 0.702236 9.52958 
3.90222 0.911959 9.87025 2.18263 1.29724 9.98815 4.82712 1.26426 9.43812 
0.924736 1.959 9.61124 3.87995 2.66118 9.59959 0.677073 3.62437 9.62958 
1.98588 3.53688 9.9221 4.51606 3.43055 9.52225 0.423147 4.77567 9.79687 
2.8576 4.91353 9.37976 2.27535 5.41954 0.0161559 0.677393 5.85444 0.0399265 
3.1648 5.87905 0.0810004 0.905176 6.86384 0.143091 4.89272 6.43886 0.380173 
1.94501 7.47676 0.216851 0.802831 7.8909 0.34332 2.85846 8.11502 0.283909 
4.67705 7.68321 0.024514 0.201638 8.67884 0.488275 1.62203 8.49815 0.0442797 
3.84982 8.29646 0.204982 4.78026 8.65288 0.307633 2.22855 9.15359 0.494301 
1.14497 9.49415 0.366276 2.90516 9.89219 0.490066 0.608194 5.88369 1.05341 
1.54209 5.64457 0.782313 2.47774 5.99611 0.84251 3.83568 6.19789 0.77265 
4.68304 6.05315 1.28357 1.63247 6.66803 0.842127 0.324282 7.21463 0.903463 
3.0109 7.18946 0.744056 4.01794 7.47459 0.753398 1.18141 8.64813 1.10966 
2.06818 8.2041 0.8963 3.39548 8.41847 1.09279 4.42172 8.25866 1.22514 
2.79537 9.20433 1.31662 3.99784 9.13992 0.721787 1.84392 9.91296 1.02008 
4.63161 9.88894 0.923178 0.428264 5.31669 1.85744 2.2296 5.19409 1.60093 
3.20352 5.00093 1.469 4.11066 5.33756 1.73519 2.04053 6.14342 1.85919 
3.19453 6.09602 1.53333 1.09533 6.5016 1.67122 3.82818 6.86982 1.52734 
0.431911 7.22072 1.89966 2.17724 7.21074 1.48185 4.82719 7.0305 1.43912 
1.1846 7.61231 1.34692 3.15381 7.61004 1.64039 0.114229 8.1625 1.78411 
1.90235 8.5957 1.8029 0.328766 9.21653 1.60662 4.51195 9.17561 1.61382 
3.64387 9.71253 1.47808 3.15854 5.53093 2.35763 4.84289 5.08598 2.36818 
1.27824 5.84852 2.43901 4.45532 6.15413 2.26455 0.197834 6.26447 2.07806 
2.74174 6.71723 2.28237 3.70975 6.768 2.52823 1.44115 7.47784 2.30661 
2.41892 7.70018 2.32017 4.26465 7.63135 2.00713 0.948894 8.59823 2.12097 
2.86519 8.5623 2.08015 3.86517 8.54572 2.07571 0.26069 9.80587 2.42322 
1.23579 9.49662 2.57636 2.17288 9.52553 2.07062 3.13062 9.42243 2.51575 
4.19986 9.4719 2.51649 0.0766011 5.54943 2.76772 2.25163 5.72191 2.77393 
3.80639 5.81945 3.06282 0.88282 6.73555 2.6775 1.94 6.72258 2.92948 
4.39896 6.61704 3.23691 0.638691 7.69118 2.90223 2.12812 7.63103 3.30954 
3.17096 7.55042 3.05873 4.18602 7.57374 3.03664 0.590819 8.69809 3.05952 
1.67251 8.48937 2.80419 2.558 8.67209 3.23191 3.52615 8.54299 3.01694 
4.5199 8.53314 2.90402 2.3227 9.64977 3.05957 0.689677 5.152 3.45089 
1.699 5.11058 3.34485 1.34724 6.17569 3.53594 2.88702 5.91701 3.52318 
4.73331 5.69264 3.42076 0.349066 6.28216 3.3914 3.52563 6.65353 3.74725 
0.132536 7.19528 3.73835 1.15335 7.17418 3.60096 3.79267 7.59509 3.95602 
4.73523 7.91579 3.84961 1.23182 8.21014 3.65742 1.54061 9.20084 3.53248 
3.95412 8.76933 3.94662 0.889386 9.9785 3.48667 2.73221 9.41391 3.94112 
3.64559 9.67153 3.5309 4.61176 9.39378 3.46365 1.95005 5.52389 4.22112 
3.38733 5.30081 4.13154 4.36771 5.1482 4.25714 0.657099 5.71417 4.46747 
4.25736 6.14193 4.19766 0.530467 6.7267 4.65224 1.50643 6.62288 4.41957 
2.46843 6.58685 4.14035 4.85457 6.93464 4.06862 0.528092 7.73861 4.47886 
1.74635 7.58852 4.29266 2.79955 7.5264 4.05313 0.786979 8.74101 4.46318 
1.97138 8.60624 4.21749 3.00917 8.50136 4.24654 4.90309 8.81308 4.25917 
0.0267136 9.46983 4.11294 0.914623 9.73782 4.48841 1.83449 9.94018 4.14631 
3.42476 9.70679 4.60176 1.85272 5.05667 5.10247 4.35982 5.58392 5.18568 
1.23434 6.06118 5.2067 2.46441 5.97594 4.9505 3.46292 5.92934 4.90918 
4.45681 6.57346 5.07765 1.21937 7.05554 5.31277 2.41384 7.47628 5.02889 
3.25469 6.88422 4.69603 1.28174 8.02787 5.06917 3.36897 7.74468 5.19341 
2.39618 8.50333 5.12249 4.18882 8.18642 4.82767 3.3329 8.84774 5.18914 
4.22976 9.18312 4.90007 2.31935 9.50698 4.99939 0.909961 5.05194 5.43684 
3.50843 5.01887 5.36045 0.254556 5.94693 5.40181 1.90368 5.76752 5.89145 
2.94304 6.09168 5.82102 0.346298 6.81447 5.89063 2.12291 6.69093 5.57618 
3.64963 6.78374 5.66666 4.47011 7.3912 5.65308 0.361933 8.14187 5.50315 
1.22408 8.70885 5.80114 4.74261 8.3535 5.65502 0.355002 9.25578 5.67055 
4.85069 9.34759 5.68069 1.28828 9.6268 5.40962 2.85688 9.41914 5.86044 
4.08868 9.99347 5.76137 0.024316 5.2297 6.0609 1.77868 5.02592 6.55078 
2.66873 5.48298 6.56942 0.867185 5.74971 6.20534 3.89558 5.65373 6.0899 
[...]
POINT_DATA 1000
FIELD FieldData 7
id 1 1000 int
5 62 541 130 759 7 142 501 20 
601 607 152 234 605 635 561 43 37 
36 927 404 418 175 1 531 521 147 
242 116 117 588 591 551 70 61 776 
41 504 263 762 674 600 872 526 624 
610 109 646 111 562 663 87 30 50 
17 283 519 508 255 419 272 251 841 
659 768 368 365 899 235 644 566 589 
592 766 408 758 765 358 752 979 154 
74 846 545 197 105 79 302 42 84 
783 269 749 253 767 286 114 78 268 
570 583 584 515 294 571 698 744 774 
215 769 177 193 866 262 838 608 546 
12 68 578 110 361 510 755 276 669 
324 764 814 833 782 44 277 848 104 
554 594 97 558 325 296 322 214 318 
285 292 164 85 279 867 488 576 512 
543 274 202 577 532 278 28 702 284 
307 680 200 123 552 473 557 559 506 
27 393 128 54 72 580 529 658 797 
630 13 880 556 747 280 505 162 656 
11 602 139 742 503 57 323 737 511 
170 540 539 53 746 542 424 148 120 
596 567 736 25 535 45 544 67 450 
874 300 236 547 21 922 134 634 612 
121 229 729 125 24 32 288 626 939 
909 892 604 603 129 599 628 586 579 
238 585 491 714 99 150 477 694 548 
362 975 80 534 48 88 86 77 696 
963 81 100 718 839 133 22 538 654 
51 52 49 568 854 73 597 144 240 
625 115 140 845 716 750 593 560 137 
661 3 574 59 138 8 849 633 367 
174 638 884 662 502 29 187 46 167 
169 188 75 581 862 717 141 378 160 
402 108 636 172 35 173 684 192 301 
349 582 356 380 375 639 629 842 149 
360 648 565 40 682 182 354 673 840 
598 377 261 415 647 369 157 254 384 
171 275 426 920 180 199 676 342 353 
163 195 82 851 281 652 788 791 190 
446 917 637 155 198 830 347 291 858 
836 357 813 664 781 902 297 313 945 
660 795 186 181 934 178 331 685 10 
868 312 816 789 406 153 919 675 456 
948 335 943 470 474 329 686 856 822 
821 701 126 330 372 47 835 211 321 
916 453 935 933 463 363 256 827 573 
314 317 348 709 334 91 857 870 988 
689 223 998 15 219 940 938 332 66 
971 825 807 196 458 954 224 863 958 
961 969 745 875 507 555 993 590 103 
206 972 337 691 996 831 688 563 210 
994 953 861 533 966 107 999 237 820 
90 225 471 727 997 18 479 231 58 
809 713 63 33 69 486 977 490 328 
720 991 520 60 132 523 391 9 616 
879 509 723 606 101 730 146 981 26 
522 194 873 439 631 655 420 399 860 
364 484 995 621 640 692 405 136 575 
881 843 650 449 469 651 423 289 620 
102 524 385 14 71 719 518 929 2 
970 311 777 264 657 345 891 815 383 
431 89 413 16 34 928 386 23 295 
896 56 468 165 681 877 304 645 290 
903 748 228 952 757 712 904 801 763 
207 425 310 623 796 649 113 94 832 
257 834 106 775 695 743 476 478 802 
452 923 320 780 436 779 790 670 818 
819 258 536 1000 808 184 738 351 306 
489 410 443 461 338 679 678 352 806 
55 677 707 359 553 4 859 564 340 
6 247 829 985 428 65 305 665 699 
499 326 355 308 230 513 703 826 371 
38 462 179 671 667 208 482 710 241 
191 220 900 587 810 595 343 700 693 
496 222 209 706 715 641 725 704 549 
217 642 989 527 168 64 481 98 708 
690 218 722 212 528 895 201 221 733 
271 244 205 216 95 379 734 741 705 
246 227 724 92 735 572 245 112 726 
156 982 226 976 622 672 119 344 374 
487 732 31 721 990 530 514 924 252 
632 683 248 980 855 653 127 135 668 
465 869 962 955 131 760 968 525 805 
445 828 327 823 350 233 239 243 614 
847 617 392 619 918 299 516 494 480 
93 475 493 956 466 817 853 341 611 
370 395 615 761 852 492 76 740 613 
794 973 498 96 844 232 316 983 145 
267 366 773 485 249 396 517 166 569 
401 890 885 83 986 495 912 886 387 
728 811 786 731 260 250 265 865 756 
394 376 905 889 894 914 151 381 143 
984 282 293 987 897 437 400 609 771 
784 770 798 812 273 39 259 398 403 
389 753 882 754 382 432 921 500 871 
785 333 778 422 907 390 793 876 893 
887 898 772 298 319 417 878 185 901 
992 942 161 411 430 751 883 906 414 
433 438 397 427 457 189 159 409 442 
967 309 787 435 915 925 412 388 908 
910 926 888 416 792 913 951 429 937 
448 447 451 287 440 739 459 946 407 
803 950 434 941 949 176 666 346 421 
947 467 978 454 965 799 931 944 800 
441 183 957 203 270 373 118 483 537 
550 964 497 959 455 837 460 697 687 
204 122 711 911 213 936 627 960 158 
336 974 930 444 850 824 315 804 339 
618 643 124 19 932 266 472 464 303 
864 
type 1 1000 int
1 1 2 1 2 1 1 2 1 
2 2 1 1 2 2 2 1 1 
1 2 1 1 1 1 2 2 1 
1 1 1 2 2 2 1 1 2 
1 2 1 2 2 2 2 2 2 
2 1 2 1 2 2 1 1 1 
1 1 2 2 1 1 1 1 2 
2 2 1 1 2 1 2 2 2 
2 2 1 2 2 1 2 2 1 
1 2 2 1 1 1 1 1 1 
2 1 2 1 2 1 1 1 1 
2 2 2 2 1 2 2 2 2 
1 2 1 1 2 1 2 2 2 
1 1 2 1 1 2 2 1 2 
1 2 2 2 2 1 1 2 1 
2 2 1 2 1 1 1 1 1 
1 1 1 1 1 2 1 2 2 
2 1 1 2 2 1 1 2 1 
1 2 1 1 2 1 2 2 2 
1 1 1 1 1 2 2 2 2 
2 1 2 2 2 1 2 1 2 
1 2 1 2 2 1 1 2 2 
1 2 2 1 2 2 1 1 1 
2 2 2 1 2 1 2 1 1 
2 1 1 2 1 2 1 2 2 
1 1 2 1 1 1 1 2 2 
2 2 2 2 1 2 2 2 2 
1 2 1 2 1 1 1 2 2 
1 2 1 2 1 1 1 1 2 
2 1 1 2 2 1 1 2 2 
1 1 1 2 2 1 2 1 1 
2 1 1 2 2 2 2 2 1 
2 1 2 1 1 1 2 2 1 
1 2 2 2 2 1 1 1 1 
1 1 1 2 2 2 1 1 1 
1 1 2 1 1 1 2 1 1 
1 2 1 1 1 2 2 2 1 
1 2 2 1 2 1 1 2 2 
2 1 1 1 2 1 1 1 1 
1 1 1 2 1 1 2 1 1 
1 1 1 2 1 2 2 2 1 
1 2 2 1 1 2 1 1 2 
2 1 2 2 2 2 1 1 2 
2 2 1 1 2 1 1 2 1 
2 1 2 2 1 1 2 2 1 
2 1 2 1 1 1 2 2 2 
2 2 1 1 1 1 2 1 1 
2 1 2 2 1 1 1 2 2 
1 1 1 2 1 1 2 2 2 
2 1 2 1 1 2 2 1 1 
2 2 2 1 1 2 1 2 2 
2 2 2 2 2 2 2 2 1 
1 2 1 2 2 2 2 2 1 
2 2 2 2 2 1 2 1 2 
1 1 1 2 2 1 1 1 1 
2 2 1 1 1 1 2 1 1 
2 2 2 1 1 2 1 1 2 
2 2 2 2 1 2 1 2 1 
2 1 2 1 2 2 1 1 2 
1 1 2 2 2 2 1 1 2 
2 2 2 1 1 2 1 1 2 
1 2 1 1 1 2 2 2 1 
2 1 2 1 2 1 2 2 1 
1 1 1 1 1 2 1 1 1 
2 1 1 1 2 2 1 2 1 
2 2 1 2 2 2 2 2 2 
1 1 1 2 2 2 1 1 2 
1 2 1 2 2 2 1 1 2 
1 2 1 2 1 2 2 2 2 
2 1 2 2 2 1 2 1 1 
1 1 1 1 1 2 2 1 2 
1 2 2 1 2 1 2 2 1 
1 1 2 2 1 1 1 2 2 
1 1 1 1 1 2 2 2 1 
1 1 1 2 2 1 1 2 1 
1 1 2 2 2 2 1 2 2 
1 1 1 2 2 2 2 2 2 
1 2 2 2 1 1 1 1 2 
2 1 2 1 2 2 1 1 2 
1 1 1 1 1 1 2 2 2 
1 1 2 1 2 2 1 1 2 
1 2 1 2 2 2 1 1 1 
1 2 1 2 2 2 2 2 1 
2 2 1 2 2 2 1 1 2 
1 2 2 2 1 2 2 2 2 
1 2 1 2 1 1 1 1 2 
2 2 1 2 2 1 2 1 1 
1 1 1 2 1 2 2 1 2 
1 1 2 2 2 1 1 2 2 
2 2 1 1 2 1 1 2 1 
1 1 2 1 1 1 2 1 2 
1 2 2 1 2 1 2 2 1 
2 2 2 2 1 1 1 2 2 
1 1 2 2 2 2 1 1 1 
2 1 1 2 2 1 1 2 2 
2 2 2 2 1 1 1 1 1 
1 2 2 2 1 1 2 1 2 
2 1 2 1 2 1 2 2 2 
2 2 2 1 1 1 2 1 2 
2 2 1 1 1 2 2 2 1 
1 1 1 1 1 1 1 1 1 
2 1 2 1 2 2 1 1 2 
2 2 2 1 2 2 2 1 2 
1 1 1 1 1 2 1 2 1 
2 2 1 2 2 1 2 1 1 
2 1 2 1 2 2 2 2 2 
1 1 2 1 1 1 1 1 2 
2 2 1 2 1 2 1 2 2 
1 1 2 2 1 2 2 2 1 
1 2 2 1 2 2 1 2 1 
2 2 1 1 2 1 1 1 1 
2 
i 3 1000 int
0 0 0 0 0 0 0 0 0 
0 0 0 1 0 0 0 0 0 
0 0 0 0 0 0 0 0 0 
0 0 1 0 0 1 0 0 0 
0 0 1 0 0 1 0 0 0 
0 0 0 0 0 0 0 0 0 
0 0 0 1 0 0 1 0 0 
1 0 0 0 0 0 0 0 0 
0 0 0 0 0 0 0 0 0 
0 0 1 0 0 1 0 0 1 
0 0 0 0 0 0 0 0 0 
0 0 0 0 0 0 1 0 0 
0 0 0 0 0 0 1 0 0 
1 0 0 0 0 0 0 0 1 
1 0 0 0 0 0 0 0 0 
0 0 1 0 0 1 0 0 0 
0 0 1 0 0 0 0 1 0 
0 0 0 0 0 0 0 0 0 
0 0 0 1 0 0 0 0 0 
0 0 0 1 0 0 1 0 0 
1 0 0 1 0 0 1 0 1 
0 0 0 1 0 0 1 0 1 
1 0 1 1 0 0 0 0 0 
0 1 0 0 0 0 0 0 0 
0 0 0 1 0 0 1 0 0 
1 0 0 1 0 0 1 0 1 
1 0 0 1 0 1 0 0 0 
0 0 0 0 0 0 0 0 0 
0 1 0 0 0 0 0 0 0 
1 0 0 0 0 0 0 0 0 
1 0 0 1 0 0 1 0 0 
1 0 0 1 0 0 1 0 0 
0 0 0 0 0 0 0 0 -1 
0 0 0 0 0 0 0 0 0 
0 0 -1 1 0 0 0 0 0 
0 0 0 1 0 0 1 0 0 
0 0 0 1 0 0 0 0 0 
0 0 0 1 0 1 1 0 0 
0 0 0 0 0 0 0 0 -1 
0 0 -1 0 0 0 0 0 0 
0 0 0 0 0 0 0 0 -1 
1 0 0 1 0 0 0 0 0 
1 0 0 1 0 0 1 0 0 
0 0 0 0 0 -1 0 0 -1 
0 0 -1 0 0 0 0 0 0 
0 0 -1 0 0 0 0 0 0 
0 0 -1 1 0 0 1 0 0 
1 0 0 0 0 0 1 0 0 
1 0 0 1 0 0 0 0 0 
0 0 0 0 0 -1 0 0 0 
0 1 0 0 0 0 0 0 -1 
0 0 -1 0 0 -1 0 1 0 
0 0 0 0 0 -1 1 0 0 
0 0 -1 0 0 0 1 0 0 
1 0 0 0 0 0 0 1 0 
0 0 0 0 0 -1 0 1 0 
0 0 -1 0 0 -1 0 0 -1 
0 0 -1 1 0 -1 0 0 0 
0 0 -1 0 0 0 0 0 0 
0 0 -1 0 0 -1 1 0 0 
0 0 -1 0 0 -1 0 1 -1 
0 0 -1 0 0 -1 0 0 -1 
0 0 -1 0 0 -1 0 0 -1 
0 0 -1 0 0 0 0 0 -1 
0 0 0 0 0 -1 0 0 0 
1 0 0 0 0 0 0 0 -1 
0 1 -1 0 0 -1 0 0 -1 
0 0 -1 0 0 -1 0 0 -1 
1 0 -1 0 0 -1 0 0 0 
0 0 0 0 0 0 0 0 0 
0 0 -1 0 0 -1 0 0 -1 
0 0 -1 0 0 -1 1 0 -1 
1 0 -1 1 0 -1 0 1 0 
0 0 -1 0 0 -1 1 0 -1 
0 0 -1 0 0 -1 0 0 -1 
0 0 0 0 0 0 0 0 0 
0 0 0 0 0 -1 0 0 -1 
1 0 -1 0 0 -1 1 0 -1 
1 0 -1 1 0 -1 0 0 0 
0 0 0 0 0 -1 0 0 0 
0 0 -1 0 0 1 0 0 1 
0 0 1 0 0 1 0 0 1 
0 0 1 0 0 1 0 0 0 
0 0 1 0 0 1 0 -1 0 
0 -1 1 0 0 1 0 -1 0 
0 -1 0 0 -1 0 0 0 1 
0 0 1 0 0 1 0 0 1 
0 0 1 0 0 1 0 0 1 
0 0 1 0 -1 1 0 0 0 
0 -1 0 0 -1 0 0 0 0 
0 -1 0 0 -1 0 0 -1 0 
0 -1 0 1 0 1 0 0 1 
0 0 1 0 0 0 0 0 1 
0 0 0 0 0 1 0 0 0 
1 0 1 0 0 1 0 -1 0 
0 0 1 0 -1 0 0 0 0 
0 0 0 0 -1 0 0 -1 0 
0 -1 0 0 0 0 0 -1 0 
1 0 1 0 0 0 1 0 1 
0 0 0 0 0 0 1 0 0 
0 0 0 0 -1 0 0 -1 0 
0 0 0 0 -1 0 0 0 0 
0 0 0 0 0 0 0 -1 0 
0 -1 0 1 0 1 0 0 1 
0 0 0 1 0 1 0 0 0 
0 0 0 0 0 1 0 0 0 
0 0 0 0 -1 0 0 0 0 
0 0 0 0 0 0 0 -1 0 
0 -1 0 0 -1 0 1 0 1 
1 0 1 1 0 1 0 0 0 
0 0 0 1 0 1 0 0 0 
1 0 1 0 0 0 0 -1 0 
0 -1 0 0 0 0 0 0 0 
0 -1 0 0 0 0 0 -1 0 
0 -1 0 0 -1 0 1 0 0 
1 0 0 0 0 0 1 0 1 
0 0 0 1 0 0 1 0 0 
0 0 0 0 -1 0 1 0 0 
1 0 0 0 0 0 0 0 0 
0 0 0 0 -1 0 0 -1 0 
0 0 0 0 0 0 0 -1 0 
0 -1 0 1 0 0 0 0 0 
1 0 0 1 0 0 0 0 0 
0 0 0 1 0 0 0 0 0 
0 0 0 0 0 0 0 -1 0 
0 -1 0 0 -1 0 0 -1 0 
0 -1 0 0 -1 0 1 0 0 
0 0 0 1 0 0 1 0 0 
1 0 0 1 0 0 1 0 0 
0 0 0 0 -1 0 0 0 0 
0 0 0 0 0 0 0 0 0 
0 -1 0 0 0 0 0 -1 -1 
0 -1 0 1 0 0 1 0 0 
1 0 0 1 0 0 0 0 0 
1 0 0 0 0 0 0 0 0 
1 0 0 0 -1 0 0 0 0 
1 0 0 0 0 0 0 -1 0 
0 0 0 0 -1 0 0 -1 0 
0 -1 0 0 0 0 0 -1 0 
0 -1 0 0 -1 0 0 -1 -1 
1 0 0 0 0 0 1 0 0 
0 0 0 1 0 0 0 0 0 
1 0 0 0 0 0 0 -1 0 
0 -1 -1 0 -1 0 0 0 0 
1 0 0 1 0 0 1 0 0 
0 0 0 0 -1 0 0 0 0 
0 -1 0 0 -1 0 0 0 0 
0 0 0 0 0 0 0 0 0 
0 -1 -1 0 0 0 0 0 0 
0 0 0 1 0 0 0 0 0 
0 0 0 1 0 0 1 0 0 
0 0 0 0 0 0 0 0 0 
0 0 0 0 -1 0 0 0 0 
0 0 0 0 0 0 0 -1 -1 
0 0 -1 0 -1 -1 0 -1 -1 
0 0 0 0 0 0 0 0 0 
0 0 0 0 0 0 1 0 0 
0 0 0 0 0 0 1 0 0 
0 0 0 0 0 0 0 0 0 
0 0 0 0 0 0 0 -1 0 
0 -1 -1 0 0 0 0 0 0 
0 0 0 0 0 0 0 -1 0 
0 0 0 0 0 0 0 0 0 
0 0 0 0 0 0 0 -1 -1 
0 0 0 0 0 0 0 -1 -1 
0 -1 -1 0 0 0 0 -1 -1 
0 -1 -1 0 -1 -1 0 0 0 
0 1 1 0 1 1 0 1 1 
-1 1 1 0 1 1 -1 0 0 
0 0 0 -1 1 0 -1 0 0 
0 1 0 -1 0 0 0 0 0 
0 1 0 -1 0 0 0 0 1 
-1 0 1 0 0 0 -1 1 1 
-1 1 0 0 1 1 -1 0 0 
-1 0 0 0 0 0 0 1 0 
0 0 0 0 0 0 0 0 0 
0 0 0 0 1 0 0 0 1 
0 0 1 0 1 1 0 1 1 
-1 1 0 -1 1 0 0 0 0 
0 1 0 -1 1 0 0 0 0 
0 1 0 0 0 1 0 0 0 
0 0 0 0 0 0 0 0 0 
0 0 0 0 0 0 0 0 0 
0 0 0 0 0 0 0 1 0 
-1 0 0 -1 0 0 0 0 0 
-1 0 0 0 0 0 -1 0 0 
0 0 0 0 0 0 0 0 0 
0 0 0 0 0 0 0 0 0 
0 1 0 0 0 0 0 0 0 
0 0 0 0 0 0 0 1 0 
-1 0 0 -1 0 0 0 1 0 
0 1 0 -1 0 0 0 0 0 
0 1 0 0 0 0 0 0 0 
0 0 0 0 0 0 0 0 0 
0 0 0 0 0 0 0 0 0 
0 1 0 0 0 0 0 0 0 
0 0 0 0 0 0 0 0 0 
0 1 0 0 0 0 0 0 0 
0 0 0 0 0 0 0 0 0 
0 0 0 0 0 0 -1 1 0 
0 0 0 0 0 0 0 0 0 
0 0 0 0 0 0 0 0 0 
0 0 0 0 0 0 0 0 0 
0 0 0 0 0 0 0 0 0 
0 0 0 0 0 0 0 0 0 
0 0 0 0 1 0 0 0 0 
0 0 0 -1 1 0 0 0 0 
0 0 0 0 0 0 -1 0 0 
0 0 0 0 0 0 0 0 0 
0 0 0 0 0 0 0 0 0 
0 0 0 0 0 0 0 0 0 
0 0 0 0 0 0 -1 1 0 
-1 1 0 0 0 0 0 0 0 
-1 0 0 -1 1 0 -1 1 0 
0 0 0 -1 0 0 0 0 -1 
0 0 0 -1 0 0 0 0 0 
0 0 -1 0 0 0 0 0 0 
0 0 0 0 0 0 -1 0 0 
0 0 0 -1 1 0 -1 1 0 
0 1 0 0 0 0 0 0 0 
0 0 0 -1 1 0 0 0 -1 
0 0 0 0 0 0 0 0 0 
0 0 -1 0 1 0 -1 1 0 
-1 1 0 -1 1 0 -1 1 0 
0 1 0 -1 1 0 -1 1 0 
-1 1 0 -1 1 0 0 0 -1 
-1 0 0 0 0 0 0 0 0 
0 0 0 -1 1 0 -1 1 0 
0 1 0 -1 1 0 -1 1 0 
-1 1 0 -1 1 0 0 0 -1 
-1 1 0 -1 1 0 -1 0 0 
-1 1 0 0 0 -1 0 1 0 
0 0 -1 0 0 -1 -1 0 0 
0 1 0 -1 1 0 -1 1 0 
-1 1 0 -1 1 0 -1 1 0 
-1 1 0 -1 0 -1 0 1 -1 
-1 1 0 -1 1 0 -1 1 0 
0 0 -1 -1 1 0 -1 1 0 
-1 1 0 -1 0 0 0 1 0 
-1 1 0 -1 1 0 -1 1 0 
-1 1 0 -1 1 0 -1 1 0 
0 0 -1 -1 1 0 0 0 -1 
-1 1 0 -1 0 0 -1 1 0 
0 0 -1 0 1 0 -1 1 0 
0 0 0 0 0 -1 0 0 -1 
-1 0 0 0 1 0 0 1 0 
0 1 0 -1 1 0 -1 0 -1 
-1 1 0 1 0 0 -1 0 -1 
-1 0 -1 1 0 -1 0 0 -1 
0 0 -1 0 0 -1 -1 1 0 
0 1 0 0 -1 1 0 0 0 
-1 0 1 0 0 0 0 0 0 
0 0 1 0 0 1 0 0 1 
0 0 1 0 0 0 0 0 0 
0 0 1 0 0 0 0 0 1 
0 0 1 0 0 1 0 0 1 
0 0 1 0 0 1 -1 0 1 
-1 0 1 -1 0 1 0 0 0 
0 0 1 0 0 0 0 0 0 
0 0 0 0 0 0 0 0 0 
0 0 0 0 0 1 0 0 1 
-1 0 1 0 0 1 0 0 1 
0 0 1 0 0 1 0 -1 0 
0 0 1 0 0 1 -1 0 0 
0 -1 1 0 0 0 0 0 0 
0 0 0 0 0 1 0 0 1 
-1 0 1 0 0 1 0 0 0 
0 0 0 0 0 1 0 0 1 
0 -1 0 0 0 1 0 0 1 
0 0 0 0 0 1 0 0 0 
0 0 0 0 0 1 0 -1 0 
0 0 1 0 0 0 0 0 0 
0 0 0 0 0 0 0 -1 0 
0 0 0 0 0 0 0 0 0 
0 -1 0 0 0 1 0 0 1 
0 0 0 0 0 0 0 0 0 
0 0 1 0 0 0 0 0 0 
0 0 1 0 0 0 0 -1 0 
0 0 0 0 0 1 0 -1 0 
0 0 0 0 0 1 0 0 0 
0 0 0 0 0 0 0 0 0 
0 0 0 0 0 0 0 0 0 
0 0 1 0 0 0 0 0 0 
0 0 1 0 0 0 0 0 0 
0 0 0 0 0 1 0 0 0 
0 -1 0 0 0 0 0 -1 0 
0 -1 0 0 0 0 0 -1 0 
0 0 0 0 0 0 0 0 0 
0 0 0 0 0 0 0 0 0 
0 0 0 0 0 0 0 0 0 
0 0 0 0 0 1 0 0 0 
0 -1 0 0 -1 0 0 0 0 
0 0 0 0 0 0 0 0 0 
0 0 0 0 0 0 0 0 0 
0 0 0 0 0 0 0 0 0 
0 -1 0 0 -1 0 0 0 0 
0 0 0 -1 0 0 0 0 0 
0 0 0 0 0 0 0 0 0 
0 0 0 0 0 0 0 -1 0 
0 0 0 0 0 0 0 0 0 
0 0 0 0 0 0 0 0 0 
0 0 0 0 0 0 -1 0 0 
0 0 0 0 0 0 0 0 0 
0 0 0 0 0 0 0 -1 0 
0 0 0 0 0 0 0 0 0 
0 0 0 0 0 0 0 0 0 
0 0 0 0 0 0 0 0 0 
0 0 0 0 -1 0 0 0 0 
0 0 0 0 0 0 0 0 0 
0 0 0 0 0 0 0 0 0 
0 0 -1 0 0 0 0 0 0 
0 0 0 0 0 0 0 0 0 
0 -1 0 0 0 0 0 0 0 
0 0 0 0 0 0 -1 0 0 
-1 0 0 0 0 0 0 0 0 
0 0 0 0 0 0 0 0 0 
0 0 0 0 0 0 0 0 0 
0 0 0 0 0 0 0 0 0 
0 0 0 -1 0 0 0 0 0 
-1 0 0 0 0 -1 0 0 0 
-1 0 0 0 0 0 0 0 -1 
0 0 -1 0 0 0 0 0 0 
0 0 0 0 0 0 0 0 0 
0 0 0 -1 0 0 -1 0 0 
-1 0 0 -1 0 0 0 0 0 
0 0 -1 -1 1 0 0 0 0 
0 0 -1 0 0 0 0 0 -1 
0 0 0 0 0 0 0 0 0 
0 0 0 0 0 0 0 0 0 
0 0 0 0 0 0 0 0 0 
0 0 -1 0 0 -1 -1 0 0 
0 0 -1 0 0 0 0 0 -1 
0 0 0 0 0 0 0 0 0 
0 0 0 
v 3 1000 double
-0.022132313322 0.032048276373 -0.0044872724023 -0.015294145432 0.0047437301664 -0.032818320059 -0.0062773571589 0.02895541149 -0.024660532498 
0.00027382158491 -0.011697608124 -0.069630291535 0.0084396786495 -0.04792169931 -0.065816961328 -0.0042936883134 0.040730836283 0.012293638726 
0.019184318979 -0.048264228385 -0.027349580615 0.040388742941 0.02471115911 -0.032847159672 0.0091611676591 -0.028414692369 -0.029406909444 
0.031344462351 -0.050981589388 -0.022874729293 0.014320491947 0.047861351026 0.030702540915 0.023389685658 -0.047101496 0.013000941048 
0.011194144731 -0.05466715613 -0.017382567712 0.032822256856 0.0063163975363 0.037777993831 0.053254178609 -0.062331165402 0.013191019117 
-0.0034263920763 0.012000420415 -0.011365820655 -0.0022686099756 -0.036231949426 -0.071005323174 -0.015009993894 0.00087820731605 -0.0513935663 
-0.014955277066 -0.0068979194617 -0.050249175941 -0.014269771966 -0.055606431286 -0.044170499143 -0.0020320130352 -0.026014008235 -0.073276718131 
0.011160037728 -0.051251078053 -0.07133189483 0.0058068064196 -0.057714964478 -0.052334377895 0.039592510701 0.014859066952 0.0005205879033 
0.057006600279 -0.001878954808 0.024269264214 0.0077756499074 -0.054755524667 -0.017082634168 0.0062987864974 -0.05597207545 -0.01764871864 
0.020753562167 -0.045435721882 0.013919112115 0.028036373892 0.050150549827 0.01697888142 0.043129767213 -0.024681319247 0.0095594213467 
0.0093240749609 -0.025278837002 -0.045146697625 -0.016796167699 -0.06743059001 -0.05218728865 -0.0006915165508 0.02299295868 -0.010630045172 
0.0058638952914 -0.017474994947 -0.07274389074 -0.0046128532804 -0.030912529313 -0.080595366841 -0.022095948365 -0.06586159802 -0.050015590072 
0.0411089099 0.024307122801 0.0026438461124 0.0083135900809 0.019535168239 -0.019228905405 0.0025525282182 -0.010278445456 -0.076922066615 
0.0039666261621 -0.052043765562 -0.048298675436 -2.4844364443e-05 -0.049584218921 -0.039609441557 0.059892807728 -0.025088702602 -0.014424062044 
0.05062929301 -0.049964936599 -0.029231007033 0.046327211334 -0.003374678262 -0.035162244679 0.051181588583 -0.047133126259 -0.041917051053 
0.040724824049 0.018607432364 -0.003166785929 0.013002222093 -0.03444522164 0.0050664932805 0.050359873094 -0.044960401024 -0.020527583518 
0.035511090929 0.026357933952 0.032935436158 0.0064463352455 -0.010713676123 -0.046181027387 0.0031701467518 -0.0020589288165 -0.053166841156 
0.011262721875 -0.028888479198 -0.068617380861 0.016193701437 0.0099270965468 -0.047741290777 -0.0045304787229 -0.031027409929 -0.077213120887 
0.038237363385 0.010102396689 0.0054443949861 0.019091233206 -0.015942751342 -0.063386565132 0.051590832931 0.01334994625 0.0075769800985 
0.025488531562 0.0064438560128 -0.01573387695 0.036423073472 -0.0075301763133 -0.0035135461625 0.01686135996 -0.044887723833 -0.035213589383 
0.060099569837 -0.046244792203 -0.016921756055 0.034848362156 0.024390459664 -0.002271187688 0.045321133833 -0.025467644478 -0.0043017399246 
0.021808123546 -0.048459707168 -0.022284872337 0.030338621791 0.03865240915 0.022325943687 0.04994017922 0.021960739896 0.014893199354 
0.069152648692 -0.039676686433 0.012312790569 0.049477586636 -0.015437130393 0.01468177375 0.013002231862 -0.048935480592 -0.052765319489 
0.021099160112 0.038638003706 -0.0058599440075 0.0088957173451 -0.0029525388892 -0.044867078633 0.0055729349073 -0.031132971772 -0.065925921745 
0.006392155052 -0.045124595672 -0.074864162075 -0.017315244188 -0.034247144421 -0.054652287163 0.017103003011 -0.055877534262 -0.046855371133 
0.041721625529 0.029103280852 0.016353244305 0.049844867371 -0.0035111613856 -0.0085728279912 0.033415280541 -0.01606032494 0.014967483756 
0.033234876992 -0.041352008524 -0.0055374692969 0.056692588631 -0.03115634705 0.032354873802 0.040845672804 -0.042048709325 0.029341003356 
-0.017294198815 -0.028538335988 -0.04855506518 -0.02586089519 -0.067914795118 -0.050102165545 -0.047454118672 0.0093477692972 -0.004122928908 
-0.0024120455473 0.013255603588 -0.035012835251 -0.0042734081074 -0.045450070288 -0.075432169117 0.0013981870504 -0.043473002835 -0.05753612749 
0.03759812927 0.020304301763 0.0028096486637 0.01459082723 -0.00094402830164 -0.024021725471 -0.00082268371925 -0.028222018267 -0.033457158386 
0.018162511945 -0.025281327739 -0.061813912016 0.025559517645 -0.01387922077 -0.0056805951294 0.046817708233 -0.035716285268 -0.027576837846 
0.040798726716 0.013228478713 0.014924618161 0.029233600152 -0.0036556520568 0.018490501474 0.031830720262 -0.025881832928 0.0093436940675 
-0.013665778736 -0.036619448623 -0.052220102478 -0.023194522204 0.017048763024 -0.029785264009 -0.014475282621 -0.027390835769 -0.064573227545 
-0.0064081119585 0.0090755813052 -0.0010807910882 -0.0059458059567 0.003540274008 -0.020232573007 -0.00091580850697 -0.052438292113 -0.082194177575 
0.0061210453821 -0.036720008668 -0.0556963367 0.0099922191552 -0.02185144909 -0.017720024782 -0.012124002009 -0.030010980397 -0.068324341938 
0.019157435268 -0.044463182259 -0.041776806864 0.033013754828 -0.014810427853 0.012445895305 0.031433257687 0.018120023382 0.015691625759 
0.034689442857 -0.046938773713 -0.030295617234 0.044422902961 -0.00051696046146 0.020763380769 0.027164494933 -0.014641290721 -0.012017172448 
0.025603196472 -0.050150671595 -0.023888269617 0.041245982223 0.015586090507 0.010051016128 0.034949231367 -0.03220753159 0.0036553846228 
-0.030857507279 -0.038763883156 -0.04736925334 -0.014915167438 -0.024646939103 -0.048412362255 -0.0062309615745 -0.024433488909 -0.0775691428 
-0.023543784833 -0.027068751737 -0.062951633225 -0.0082725273947 0.012076957196 -0.0011704245899 0.0019926463417 0.0078634334948 -0.028240983522 
0.017732543408 -0.011286910123 -0.033083786346 -0.014123190284 -0.0472963503 -0.049268623706 -0.002343885067 -0.051988257857 -0.060162998351 
0.029926013784 0.012505842378 0.0168163823 0.049932547787 0.0075892847951 -0.011832994969 0.015954021186 -0.038132469785 -0.022912698462 
0.042326657781 0.0086888479649 0.013870993213 0.031163344129 0.011492212349 0.0084017232663 0.03190363941 -0.01050019816 0.015565550241 
-0.03926168636 0.007434801536 -0.008424996138 -0.036259373077 -0.039716443441 -0.077369907375 -0.036659683463 -0.024999230064 -0.07846976409 
-0.041375440167 -0.031485202222 -0.062834805437 -0.03397411281 -0.044956995139 -0.045644870258 -0.027368050322 0.029484569148 0.0010195421275 
-0.015621868747 -0.013127962744 -0.044276430571 -0.029261192105 -0.0018059871429 -0.053033889708 -0.045471738886 -0.0073036241377 -0.036177789551 
-0.025488663744 -0.042874554204 -0.052693599555 0.021752122759 0.043869324212 0.013742703664 -0.042608682894 -0.0075608855886 -0.023881456497 
0.020623626947 -0.029274020073 -0.010910490979 0.014040183226 -0.0245943793 -0.020135505706 0.032607313261 0.011792621808 0.018017760312 
0.033758528048 0.018579214091 0.0089119388266 0.016533857683 -0.013723796581 0.021135782104 0.03616562521 -0.026747358348 -0.0097644474776 
-0.037874405046 0.021641312511 0.0056804147234 -0.030677288869 -0.019708632757 -0.037605448176 -0.042356433214 -0.018100409759 -0.061682822377 