# vtk DataFile Version 4.2
Generated by LIGGGHTS
ASCII
DATASET POLYDATA
POINTS 1000 float
0.00358228 0.624181 -0.00101367 0.985077 0.458953 0.330291 2.23786 0.590311 0.434873 
3.89118 1.07849 0.161776 4.9725 0.762096 0.610385 2.91886 1.36948 0.228191 
1.12804 2.24416 0.604092 2.11178 2.35793 0.0319836 0.226952 2.69574 0.306125 
3.21176 2.98004 0.280443 1.44353 3.13044 0.285087 4.26004 3.19821 0.300296 
0.344792 3.7813 0.141331 1.30111 4.10882 0.176265 2.31177 4.19622 0.382652 
4.27767 4.73185 0.017511 0.181819 0.329244 1.06186 1.11504 0.0266385 1.23252 
3.25188 0.517339 0.813774 0.606989 1.2111 0.880852 2.61561 1.19517 1.17015 
1.82674 1.54892 0.68541 4.53274 1.64806 0.704102 0.204693 2.09822 1.10679 
2.77602 2.45206 1.01969 3.6069 2.01497 0.684157 1.8212 2.72693 1.1142 
3.73439 3.03634 1.12871 0.768729 3.12761 1.0313 2.49739 3.43867 0.988986 
4.75118 3.12274 1.18076 0.612245 4.10664 1.07553 1.56128 3.78346 1.08183 
0.0718357 4.93502 0.906743 3.37365 4.49692 0.732428 4.21069 4.45128 1.26521 
4.88742 5.00225 0.7617 2.15119 0.112834 1.3433 3.83539 0.00157352 1.64472 
0.600002 0.752933 1.85136 1.54696 0.886256 1.49347 4.23259 0.900924 1.45293 
1.09704 1.77678 1.5352 3.45989 1.51641 1.5793 2.25396 1.94216 1.75627 
3.42855 2.46315 1.87959 4.35128 2.25179 1.47727 0.556652 2.50414 1.95132 
1.76074 3.27492 1.97818 3.04835 3.38384 1.80466 3.97739 3.71378 1.90309 
0.778396 4.6581 1.90471 1.79791 4.90793 1.52632 3.24514 4.45342 1.76765 
1.1876 0.374743 2.57648 4.53579 0.31452 2.38254 2.37553 0.80844 2.05875 
3.63944 0.800833 2.29021 0.440429 1.6026 2.36781 1.4208 1.3472 2.46391 
2.93821 1.53209 2.44113 4.83724 1.64883 2.10379 1.49779 2.35229 2.27008 
2.44191 2.70421 2.3982 4.41381 2.85415 2.27274 0.701152 3.47854 2.11012 
1.40914 4.14191 2.64391 2.31758 4.06529 2.24738 4.83553 4.20353 2.00201 
2.21363 0.096261 2.73903 0.426896 1.04278 3.21464 2.22448 1.12284 3.00977 
4.74068 1.13234 2.95381 3.88706 1.68419 2.755 0.0829469 2.1814 3.13037 
2.21087 2.12587 3.18496 0.858494 2.82215 2.88495 3.39438 2.56575 2.8653 
1.93442 3.44598 3.10418 3.00361 3.50227 2.78494 3.98708 3.5429 2.99838 
4.9537 3.22557 3.13191 0.317768 4.1273 2.76481 2.72442 4.89321 3.23832 
3.47732 4.37888 2.73693 4.47339 4.57901 2.89811 0.867949 0.210825 3.53935 
2.1448 0.371938 3.73232 1.37676 1.06892 3.5256 2.9083 1.10202 3.90707 
3.80299 0.736473 3.35499 4.64786 0.783378 3.88636 4.8112 1.75283 3.78675 
1.04972 2.03825 3.47541 3.06051 2.08183 3.78273 0.482213 2.78801 3.80627 
2.71091 3.00185 3.58375 4.29602 2.66849 3.70616 0.933211 3.72824 3.4551 
2.97432 4.01674 3.63508 4.57522 3.9859 3.77603 0.123172 4.95694 3.36376 
1.09437 4.91419 3.59086 1.9105 4.3703 3.47271 3.74552 4.65064 3.66107 
1.34437 0.409591 4.39391 2.75235 0.327821 4.51843 3.84791 0.507089 4.41363 
0.290024 0.730501 4.16583 0.962146 1.34758 4.56601 2.00825 1.47671 4.17556 
3.87867 1.4899 4.05462 2.25354 2.42079 4.23527 4.47758 2.12574 4.64484 
3.59861 2.64055 4.41358 0.0393119 3.62195 4.08806 1.50983 3.41384 4.20811 
2.77912 3.20937 4.55572 3.6754 3.68578 4.2867 0.79694 4.24899 4.28062 
2.27147 4.03197 4.32995 2.97085 4.95374 4.21602 4.38628 4.58178 4.5493 
0.516369 0.305821 5.19974 3.38372 0.163402 5.25976 2.4203 1.1624 5.03748 
3.40697 1.24026 4.93022 4.32721 0.852358 5.2155 1.51386 2.07019 4.96636 
2.62467 2.17761 5.1217 0.87853 2.8143 4.71034 1.92198 2.96481 4.99774 
0.153709 3.6972 5.07416 1.1557 3.69893 5.09561 4.26402 3.11952 4.98601 
2.12272 3.8949 5.29913 3.06115 4.20412 4.91474 0.438121 4.77525 5.03174 
2.2246 4.85729 4.87269 1.75607 0.231262 5.91815 1.4877 1.0279 5.346 
2.71989 0.782612 5.93194 0.615515 1.38084 5.66751 1.62271 1.85647 5.95151 
2.91268 1.7628 5.96783 3.86274 1.51557 5.7948 3.55525 2.37761 5.41383 
4.49801 2.3294 5.64345 0.930625 2.59855 5.66724 2.52702 2.68722 5.97071 
1.6737 3.20361 5.93387 3.1552 3.28099 5.47359 4.60885 3.28999 5.90799 
0.620231 4.12785 5.84293 3.84266 3.9989 5.50381 4.80573 4.22505 5.64481 
1.37026 4.95368 5.37064 3.77007 0.433227 6.11477 0.921919 0.81681 6.42936 
1.97448 1.09755 6.52347 3.35196 1.15371 6.65203 4.51216 1.03989 6.36604 
0.687795 2.01883 6.4298 3.53025 2.43158 6.43844 0.166289 2.96515 6.27873 
4.52662 2.50458 6.60493 0.901521 3.5395 6.63275 3.2379 3.42351 6.4527 
1.58636 4.19657 6.07736 2.45964 4.03147 6.63694 4.16201 4.31182 6.46751 
0.935328 4.85683 6.44942 2.32468 4.87268 6.11828 3.23276 4.46624 6.16298 
1.42855 0.164627 6.97019 2.50306 0.320299 6.99038 3.46937 0.0709822 6.98823 
4.55105 0.20877 6.91795 4.14012 1.68029 7.02998 2.17472 2.07528 6.83694 
3.10165 1.95884 7.18585 1.38052 2.67163 6.73342 2.47906 3.02064 6.9531 
0.0980231 3.34106 7.32742 1.65617 3.47494 7.27624 4.15524 3.39093 6.81708 
0.120256 4.14751 6.70595 1.62484 4.44704 7.04701 3.28799 4.4002 7.15189 
4.47508 4.73557 7.30873 1.81035 0.190893 7.88365 0.482257 1.02275 7.48445 
1.49325 1.16884 7.90544 2.37412 1.20839 7.43382 3.29538 0.87057 7.60691 
4.2849 0.839101 7.69976 3.78653 1.73534 7.98162 0.28692 1.95776 7.87445 
1.18395 2.00804 7.45267 4.87761 2.20869 7.4809 0.854022 2.88243 7.8322 
2.79189 2.66205 7.82352 3.88059 2.65694 7.43347 3.23604 3.44902 7.44546 
4.88963 3.38438 7.46629 0.846696 3.89702 7.67495 2.48943 3.93614 7.89087 
4.06187 3.85247 7.78129 0.386169 4.75214 7.44935 1.36659 4.90302 7.89876 
2.60847 0.620514 8.29482 4.86257 0.113533 8.06529 0.202374 0.918215 8.45672 
2.81516 1.64683 8.24107 1.87281 2.16081 8.31974 1.96544 3.12382 8.15236 
4.37506 3.05461 8.24471 3.20076 3.45856 8.51081 0.0174643 3.78484 8.21846 
1.41733 4.01075 8.48874 4.85358 4.15917 8.27272 0.577651 4.58348 8.41477 
2.21579 4.68024 8.49371 3.23099 4.57199 8.13246 1.28388 0.668187 8.75008 
2.61512 1.03203 9.23134 4.2737 0.72286 8.74896 1.11016 1.6451 8.69929 
3.52786 1.35918 8.99561 0.54915 2.46611 8.69261 2.57316 2.02792 9.14351 
4.31884 2.16587 8.72432 1.94227 2.8033 9.10738 4.9333 2.72698 9.26112 
2.29672 3.71617 8.88325 0.222823 4.07379 9.18585 4.07504 3.83444 8.86586 
1.3543 4.94487 8.91673 3.23634 4.48027 9.12322 1.68798 0.374016 9.6157 
2.7544 0.102951 9.72583 3.67974 0.206778 9.36518 4.56127 0.322663 9.81526 
0.704055 1.32163 9.88657 1.66525 1.49002 9.54225 4.66122 1.27748 9.47962 
1.13966 2.45191 9.60544 3.38589 2.16944 9.71701 4.37722 2.15794 9.86829 
0.271581 3.10772 9.40027 3.7471 3.09979 9.44957 1.30773 3.53028 9.36318 
2.3884 3.35453 9.8528 3.30194 3.91573 9.93064 4.84553 4.12277 9.45154 
0.624074 4.73567 9.812 2.06389 4.49943 9.46541 1.77518 5.01614 0.515701 
0.230497 5.64969 0.0103364 1.06264 6.05109 0.45093 2.82959 5.89679 0.165729 
4.43201 5.8516 0.433545 0.267919 6.63117 0.157762 2.00283 6.48404 0.163695 
1.16621 7.07762 0.113537 3.60088 7.45271 0.238455 4.62039 6.94781 0.417776 
2.13534 8.13374 0.497539 3.03958 8.2955 0.0633156 3.94406 8.34119 0.530412 
2.59633 9.10764 0.413934 1.69409 9.72465 0.447532 3.48665 9.71756 0.28029 
0.98316 5.28917 1.09272 2.72149 5.21981 0.941621 3.75585 5.42175 1.04416 
0.243674 5.95567 1.09577 1.97113 5.88007 0.957801 2.78926 6.5797 0.90933 
3.80506 6.53203 0.775946 0.469779 7.20776 0.933377 1.62137 7.39809 0.941222 
4.11805 7.47429 1.13049 2.78844 7.60422 1.04231 4.86207 8.03588 0.783781 
0.774555 8.14762 0.693696 3.05208 8.58349 1.14817 0.69281 9.28875 0.717099 
1.56233 8.84591 0.955436 3.88007 9.12724 1.16212 4.78654 9.02969 0.752241 
2.98902 9.57342 1.26508 4.3567 9.97795 0.733122 1.46373 5.85233 1.81772 
3.2534 5.90852 1.7636 0.550898 6.67467 1.83908 2.35498 6.3582 1.85408 
4.34911 6.32117 1.59494 1.613 7.02382 1.86853 3.4665 6.88385 1.64346 
4.97961 7.34743 1.72041 0.931514 7.78028 1.60298 1.90935 8.02361 1.66227 
3.45143 7.87835 1.74688 0.208874 8.72817 1.38816 4.35965 8.29662 1.72555 
1.1235 8.73751 1.84564 0.385356 9.77208 1.86709 4.75267 9.47029 1.64377 
0.99456 5.39386 2.63207 2.49902 5.06037 2.22557 4.24655 5.16885 2.07655 
1.73791 6.3427 2.64722 3.79899 6.38801 2.44246 4.75998 6.63261 2.49173 
0.890888 7.39761 2.51746 2.1714 7.3104 2.64729 3.17019 7.3055 2.55199 
4.13362 7.37203 2.28339 0.222732 8.08789 2.27675 2.66393 8.18921 2.62708 
0.50506 9.03551 2.56961 2.28649 8.9372 2.0217 3.27275 8.79368 2.10369 
4.09142 9.30399 2.3715 1.56558 9.6287 2.02413 3.05608 9.75467 2.28768 
3.59572 5.48983 2.82738 2.71647 6.02056 2.85838 4.55328 5.76512 2.95304 
0.621852 6.50087 2.84701 3.4057 6.66297 3.31268 0.43765 8.01252 3.31122 
3.69278 7.99139 3.1291 1.67594 8.51507 2.77038 4.55081 8.47534 2.68616 
2.7108 9.25882 3.13935 1.27833 9.48075 2.99427 4.22824 9.80478 3.22802 
4.1659 5.52657 3.898 1.21292 5.96071 3.45298 2.15238 5.63758 3.57778 
3.17496 5.85753 3.85097 2.43419 6.58679 3.71757 4.15272 6.5611 3.96518 
0.0588619 7.14186 3.7214 1.34944 7.07527 3.33529 2.90112 7.4642 3.62075 
4.4823 7.28819 3.36572 1.15706 8.6406 3.65827 2.34705 8.24626 3.89779 
3.62076 8.91098 3.50887 4.63801 8.94495 3.58523 0.0863009 9.5935 3.57828 
3.41041 9.83278 3.82457 0.513626 5.5597 4.06603 1.43223 5.44514 4.39565 
2.49878 5.77236 4.5835 4.93134 6.04442 4.31777 0.840797 6.64728 4.08072 
1.74824 6.42084 4.41736 3.23783 6.70759 4.40451 2.25583 7.34985 4.51015 
0.58335 7.78674 4.31005 4.22218 7.8988 4.11145 1.54481 8.21847 4.51354 
3.41229 8.37721 4.43945 0.0365657 8.9077 4.60851 1.63791 9.24742 4.30447 
2.72178 9.171 4.14161 0.675079 9.64348 4.38146 4.45258 9.72627 4.18368 
0.454894 5.76849 5.04327 1.34829 6.15052 5.2842 3.76687 5.66656 4.80677 
4.8397 5.90746 5.30261 0.182739 6.8615 4.80459 2.32537 6.66011 5.25879 
4.18007 6.57162 4.9607 1.29273 7.25291 4.76028 3.13945 7.55375 4.93001 
4.27728 7.56441 5.0548 0.749343 8.36622 5.10784 2.52122 8.45177 4.87995 
4.34656 8.56248 4.93775 1.5941 8.87524 5.2433 3.60325 9.26905 4.83035 
1.97108 9.89608 4.98412 3.07577 5.20465 5.37335 4.32354 5.0617 5.42167 
2.205 5.69672 5.56995 0.458045 6.65397 5.75121 3.20031 6.2607 5.59107 
1.49783 7.00852 5.75638 3.17525 7.4835 5.92153 4.04093 6.99586 5.85087 
2.00967 7.76755 5.37745 2.41243 8.58358 5.95779 3.40546 8.35732 5.49455 
2.71728 9.32032 5.33017 4.59666 8.84011 5.85643 1.01108 9.56225 5.67214 
[...]
POINT_DATA 1000
FIELD FieldData 7
id 1 1000 int
843 9 530 528 773 531 519 20 526 
11 600 595 255 109 510 527 16 3 
5 2 514 509 18 757 505 506 522 
12 17 501 513 504 1 269 6 516 
770 146 8 748 14 502 518 13 523 
554 10 302 41 21 537 909 529 4 
34 35 548 555 23 534 544 524 541 
7 38 508 626 547 794 640 545 22 
533 552 536 26 30 557 24 543 546 
277 283 542 532 550 644 29 71 33 
170 40 47 551 540 42 31 279 37 
556 558 418 67 32 28 561 560 654 
570 49 63 535 539 58 25 294 36 
53 44 69 45 54 559 55 187 80 
51 59 62 70 68 48 563 50 817 
568 572 669 43 220 566 588 57 84 
583 61 538 569 567 589 66 52 311 
573 575 345 571 663 64 578 78 582 
337 574 303 96 99 101 103 592 102 
91 56 92 95 202 699 85 74 580 
97 585 79 350 81 83 339 77 591 
89 118 579 590 72 576 82 104 88 
86 833 93 125 87 584 75 593 586 
581 98 694 120 870 127 602 107 73 
105 110 108 115 598 233 601 235 119 
604 123 116 128 111 599 608 605 846 
117 272 106 240 594 112 735 507 633 
606 607 372 610 121 512 365 114 597 
603 515 113 142 596 503 404 612 630 
143 872 634 152 723 984 625 231 617 
133 520 140 130 511 517 892 129 135 
151 148 147 616 134 629 611 144 132 
138 149 631 141 150 632 613 139 131 
620 622 614 383 641 624 651 136 623 
173 912 402 27 168 627 642 653 423 
659 650 657 615 160 171 163 646 647 
157 174 636 158 658 166 156 645 648 
652 639 161 154 167 172 668 656 162 
655 643 164 920 682 637 159 649 169 
155 660 436 638 450 190 194 420 177 
681 193 180 185 153 199 182 448 673 
661 677 192 948 666 60 674 198 178 
680 189 181 686 679 684 676 670 662 
562 207 683 664 183 675 179 196 703 
671 191 678 188 685 667 195 469 709 
211 215 970 701 689 176 690 206 665 
200 205 197 706 707 702 203 692 693 
214 218 210 209 700 201 216 704 710 
688 577 698 224 712 219 691 741 708 
222 705 238 221 212 122 587 217 230 
208 374 695 743 713 719 721 714 737 
720 225 992 227 727 726 733 696 715 
717 742 228 739 242 628 738 730 239 
736 991 734 234 237 725 124 244 226 
223 521 247 137 618 716 635 229 243 
728 245 246 722 732 724 236 718 248 
252 251 259 767 866 268 525 369 260 
609 752 380 891 758 747 761 765 754 
744 254 261 262 382 904 257 250 768 
253 258 15 753 764 19 287 760 769 
263 265 772 762 413 756 790 746 763 
778 755 282 781 286 267 788 281 766 
791 300 908 780 784 785 777 775 782 
293 783 292 276 786 793 275 298 427 
290 306 818 553 289 774 285 296 274 
789 284 776 900 288 301 779 806 291 
792 809 295 325 813 816 323 280 313 
278 811 406 321 408 803 320 319 324 
808 308 305 812 318 797 549 796 814 
807 316 310 322 314 317 565 934 943 
821 810 46 832 333 355 802 831 798 
307 815 343 805 312 315 801 837 335 
827 830 338 564 349 340 94 819 332 
804 348 952 835 864 800 334 213 329 
826 342 353 823 825 354 331 346 100 
336 341 351 824 829 344 347 996 822 
858 330 848 90 359 326 836 327 377 
352 834 328 466 855 373 126 857 856 
852 854 840 838 869 76 850 845 371 
844 861 839 989 364 363 362 863 847 
867 368 357 868 270 849 851 367 360 
378 859 1000 865 853 860 750 862 256 
356 745 366 271 842 841 361 249 358 
266 375 273 389 990 385 875 391 390 
400 895 399 396 873 264 749 759 403 
384 871 395 878 884 387 887 405 886 
876 881 381 889 896 145 898 874 888 
393 883 899 901 885 621 894 879 398 
893 751 386 299 432 424 437 388 922 
877 882 927 397 410 426 411 422 921 
905 906 928 911 414 297 419 915 415 
923 431 175 916 914 925 412 917 926 
438 435 39 417 903 918 907 919 924 
439 461 434 409 407 429 787 910 433 
430 902 939 459 942 945 165 425 416 
447 937 457 940 944 446 421 951 913 
672 304 309 449 428 453 470 443 947 
941 444 186 938 440 950 456 946 454 
795 462 929 452 799 933 468 442 460 
184 960 930 936 455 932 935 458 931 
949 65 472 445 204 962 953 451 465 
976 964 441 954 474 971 965 828 464 
967 977 697 476 467 966 711 687 958 
471 959 820 972 463 473 478 379 497 
475 481 489 956 955 968 957 974 961 
477 479 994 499 969 963 488 985 973 
995 493 494 998 999 485 975 491 370 
988 482 241 483 376 978 495 486 729 
480 986 496 487 740 484 492 997 980 
890 500 771 979 619 498 401 392 981 
897 394 232 983 880 982 987 993 731 
490 
type 1 1000 int
2 1 2 2 2 2 2 1 2 
1 2 2 1 1 2 2 1 1 
1 1 2 2 1 2 2 2 2 
1 1 2 2 2 1 1 1 2 
2 1 1 2 1 2 2 1 2 
2 1 1 1 1 2 2 2 1 
1 1 2 2 1 2 2 2 2 
1 1 2 2 2 2 2 2 1 
2 2 2 1 1 2 1 2 2 
1 1 2 2 2 2 1 1 1 
1 1 1 2 2 1 1 1 1 
2 2 1 1 1 1 2 2 2 
2 1 1 2 2 1 1 1 1 
1 1 1 1 1 2 1 1 1 
1 1 1 1 1 1 2 1 2 
2 2 2 1 1 2 2 1 1 
2 1 2 2 2 2 1 1 1 
2 2 1 2 2 1 2 1 2 
1 2 1 1 1 1 1 2 1 
1 1 1 1 1 2 1 1 2 
1 2 1 1 1 1 1 1 2 
1 1 2 2 1 2 1 1 1 
1 2 1 1 1 2 1 2 2 
2 1 2 1 2 1 2 1 1 
1 1 1 1 2 1 2 1 1 
2 1 1 1 1 2 2 2 2 
1 1 1 1 2 1 2 2 2 
2 2 1 2 1 2 1 1 2 
2 2 1 1 2 2 1 2 2 
1 2 2 1 2 2 2 1 2 
1 2 1 1 2 2 2 1 1 
1 1 1 2 1 2 2 1 1 
1 1 2 1 1 2 2 1 1 
2 2 2 1 2 2 2 1 2 
1 2 1 1 1 2 2 2 1 
2 2 2 2 1 1 1 2 2 
1 1 2 1 2 1 1 2 2 
2 2 1 1 1 1 2 2 1 
2 2 1 2 2 2 1 2 1 
1 2 1 2 1 1 1 1 1 
2 1 1 1 1 1 1 1 2 
2 2 1 2 2 1 2 1 1 
2 1 1 2 2 2 2 2 2 
2 1 2 2 1 2 1 1 2 
2 1 2 1 2 2 1 1 2 
1 1 2 2 2 1 2 1 2 
1 1 1 2 2 2 1 2 2 
1 1 1 1 2 1 1 2 2 
2 2 2 1 2 1 2 2 2 
1 2 1 1 1 1 2 1 1 
1 1 2 2 2 2 2 2 2 
2 1 2 1 2 2 2 2 2 
2 2 1 2 1 2 2 2 1 
2 2 2 1 1 2 1 1 1 
1 2 1 1 2 2 2 1 1 
2 1 1 2 2 2 1 2 1 
1 1 1 2 2 1 2 1 1 
2 2 1 2 2 2 2 2 2 
2 1 1 1 1 2 1 1 2 
1 1 1 2 2 1 1 2 2 
1 1 2 2 1 2 2 2 2 
2 2 1 2 1 1 2 1 2 
2 1 2 2 2 2 2 2 2 
1 2 1 1 2 2 1 1 1 
1 1 2 2 1 2 1 1 1 
2 1 2 2 1 1 2 2 1 
2 2 1 1 2 2 1 1 1 
1 2 1 1 1 2 1 1 1 
2 1 1 2 1 2 2 2 2 
2 1 1 1 1 1 2 2 2 
2 2 1 2 1 1 2 2 2 
1 2 1 2 1 1 2 2 1 
2 2 1 2 1 1 1 2 1 
2 1 2 2 2 2 1 1 1 
2 1 1 2 2 1 1 1 1 
1 1 1 2 2 1 1 2 2 
2 1 2 1 1 1 2 1 1 
1 2 1 1 2 1 1 2 2 
2 2 2 2 2 1 2 2 1 
2 2 2 2 1 1 1 2 2 
2 1 1 2 1 2 2 1 1 
1 2 2 2 2 2 2 2 1 
1 2 1 1 2 2 1 1 1 
1 1 1 1 2 1 2 1 1 
1 2 1 1 2 1 2 2 1 
1 2 1 2 2 1 2 1 2 
2 2 1 2 2 1 2 2 2 
1 2 2 2 2 2 2 2 1 
2 2 1 1 1 1 1 1 2 
2 2 2 1 1 1 1 1 2 
2 2 2 2 1 1 1 2 1 
2 1 1 2 2 2 1 2 2 
1 1 1 1 2 2 2 2 2 
1 1 1 1 1 1 2 2 1 
1 2 2 1 2 2 1 1 1 
1 2 1 2 2 1 1 2 2 
2 1 1 1 1 1 1 1 2 
2 1 1 2 1 2 1 2 1 
2 1 2 1 2 2 1 1 1 
1 2 2 2 1 2 2 1 2 
2 1 1 1 1 2 2 1 1 
2 2 1 2 1 2 2 2 1 
2 2 2 1 1 2 2 2 2 
1 2 2 2 1 1 1 1 1 
1 1 1 2 2 2 2 2 2 
1 1 2 1 2 2 1 2 2 
2 1 1 2 2 1 2 1 1 
2 1 1 1 1 2 1 1 2 
1 2 1 1 2 1 1 2 2 
2 1 2 2 2 1 1 1 2 
2 1 1 2 2 2 2 2 2 
1 
i 3 1000 int
1 0 1 0 0 0 0 0 0 
0 0 0 0 0 0 0 0 0 
0 0 0 0 0 0 0 0 0 
0 0 0 0 0 1 0 0 1 
1 0 0 0 0 1 0 0 0 
0 0 0 0 0 0 0 0 0 
0 0 0 0 0 0 0 0 0 
0 0 0 0 0 0 1 0 0 
0 0 0 0 0 0 0 0 0 
0 0 0 0 0 0 0 0 0 
0 0 0 0 0 0 0 0 0 
1 0 0 0 0 0 0 0 0 
0 0 0 0 1 0 0 0 0 
1 0 0 0 0 0 0 0 0 
0 0 0 0 0 0 0 0 0 
0 0 0 0 0 0 1 0 0 
0 0 0 0 0 0 0 0 0 
1 0 0 0 0 0 0 0 0 
0 0 0 0 0 0 0 0 0 
0 0 0 0 0 0 0 0 0 
0 0 0 0 0 0 0 0 0 
0 0 0 0 0 0 0 0 0 
0 0 0 0 0 0 0 0 0 
0 1 0 0 0 0 0 0 0 
0 0 0 0 0 0 0 0 0 
0 0 0 0 0 0 0 0 0 
0 0 0 0 0 0 0 0 0 
0 0 0 1 0 0 0 0 0 
0 0 0 0 0 0 0 1 0 
0 0 0 0 0 0 0 0 0 
0 1 0 0 0 0 0 0 0 
0 0 0 0 0 0 0 0 0 
0 0 0 0 0 0 0 0 0 
0 0 0 0 0 0 1 0 0 
0 0 0 0 0 0 0 0 0 
0 0 0 0 0 0 0 1 0 
0 0 0 0 0 0 0 0 0 
0 0 0 0 0 0 0 0 0 
0 0 0 1 0 0 0 0 0 
0 0 0 0 0 0 0 0 0 
0 0 0 0 0 0 0 0 0 
0 0 0 0 1 0 0 0 0 
0 0 0 0 0 0 0 0 0 
0 0 0 0 0 0 0 0 0 
0 0 0 0 0 0 0 0 0 
0 0 0 0 0 0 0 0 0 
0 0 0 0 1 0 0 0 0 
0 0 0 0 0 0 0 0 0 
0 0 0 0 0 0 0 0 0 
0 0 0 0 0 0 0 0 0 
0 0 0 0 0 0 0 0 0 
0 0 0 0 0 0 0 0 0 
0 0 0 0 1 0 0 0 0 
0 0 0 0 0 0 0 0 0 
1 0 0 0 0 0 1 0 0 
0 0 0 0 0 0 0 0 0 
0 0 0 0 0 0 0 0 0 
0 0 0 0 0 0 0 0 0 
0 0 0 0 1 0 0 1 0 
0 0 0 0 0 0 0 0 0 
0 0 0 0 0 0 0 0 0 
1 0 0 0 0 0 0 0 0 
1 0 0 0 0 0 0 0 0 
0 0 0 0 0 0 0 0 0 
0 0 0 0 0 0 0 0 0 
0 0 0 0 0 0 0 0 0 
0 0 0 0 0 0 0 0 0 
0 0 0 0 0 0 0 0 0 
0 0 0 0 0 0 0 0 0 
0 0 0 0 0 0 0 0 0 
0 0 0 0 0 0 0 0 0 
0 0 0 0 0 0 0 0 0 
0 0 0 0 0 0 0 0 0 
0 0 0 0 0 0 0 0 0 
0 0 0 0 0 0 0 0 0 
0 0 0 0 0 0 0 0 0 
0 0 0 0 0 0 0 0 0 
0 0 0 0 0 0 0 0 0 
0 0 0 1 0 -1 0 0 0 
0 0 0 0 0 0 0 0 0 
0 1 0 0 0 -1 0 1 -1 
0 0 0 0 0 0 0 0 0 
0 0 0 0 0 0 0 0 -1 
1 0 0 0 0 0 0 0 0 
0 0 0 0 0 -1 0 0 0 
0 0 -1 0 0 0 0 0 0 
1 0 0 0 0 0 0 0 0 
0 0 0 1 0 0 0 0 0 
0 0 0 0 0 1 0 0 1 
0 0 0 0 0 1 0 0 0 
0 0 0 0 -1 0 0 0 0 
0 0 0 0 0 0 0 0 0 
1 0 0 0 0 0 0 0 0 
0 0 0 0 0 0 0 0 0 
0 0 0 0 0 0 0 0 0 
0 0 0 0 0 0 0 0 0 
0 0 0 0 0 0 0 0 0 
0 0 0 0 0 0 0 0 0 
0 0 0 0 0 0 0 0 0 
0 0 0 0 0 0 0 0 0 
0 0 0 0 0 0 0 0 0 
0 0 0 0 0 0 0 0 0 
0 0 0 1 0 0 0 0 0 
0 0 0 0 0 0 0 0 0 
0 0 0 0 0 0 0 0 0 
0 0 0 0 0 0 0 0 0 
0 0 0 0 0 0 0 0 0 
0 0 0 0 0 0 0 0 0 
0 0 0 0 0 0 0 0 0 
0 0 0 0 0 0 0 0 0 
0 0 0 0 0 0 0 0 0 
0 0 0 0 0 0 0 0 0 
0 0 0 0 0 0 0 0 0 
0 0 0 0 0 0 0 0 0 
0 0 0 0 0 0 0 0 0 
1 0 0 0 0 0 0 0 0 
0 0 0 0 0 0 0 0 0 
0 0 0 0 0 0 1 0 0 
0 0 0 1 0 0 0 0 0 
0 0 0 0 0 0 0 0 0 
0 0 0 0 0 0 0 0 0 
0 0 0 0 0 0 0 0 0 
0 0 0 1 0 0 0 0 0 
0 0 0 0 0 0 0 0 0 
1 0 0 0 0 0 0 0 0 
0 0 0 0 0 0 0 0 0 
0 0 0 0 0 0 0 0 0 
0 0 0 0 0 0 0 0 0 
0 0 0 0 0 0 0 0 0 
0 -1 0 0 0 0 0 0 0 
0 0 0 0 0 0 0 0 0 
0 0 0 0 0 0 0 0 0 
0 0 0 0 0 0 0 0 0 
0 0 0 0 0 0 0 0 0 
0 0 0 0 0 0 0 0 0 
0 0 0 0 0 0 0 0 0 
0 0 0 0 0 0 0 0 0 
0 0 0 0 0 0 0 0 0 
0 0 0 0 0 0 0 0 0 
0 0 0 0 0 0 0 0 0 
0 0 0 0 0 0 0 0 0 
0 0 0 0 0 0 0 0 0 
0 0 0 0 0 0 0 0 0 
0 0 0 0 0 0 0 0 0 
0 0 0 0 0 0 0 0 0 
0 0 0 0 0 0 0 0 0 
0 0 0 0 0 0 0 0 0 
0 0 0 0 0 0 0 0 0 
0 0 0 0 0 0 0 -1 0 
0 -1 0 0 0 0 0 0 0 
0 0 0 1 0 0 0 0 0 
0 0 0 0 0 0 0 0 0 
0 0 0 0 0 0 0 0 0 
0 0 0 0 0 0 0 0 0 
0 0 0 0 0 0 0 0 0 
0 0 0 0 0 0 0 0 0 
0 0 0 0 0 0 0 0 0 
0 0 0 0 0 0 0 0 -1 
0 0 0 0 0 0 0 0 0 
0 0 0 1 0 0 0 0 0 
0 0 0 0 0 0 0 0 0 
0 -1 0 0 0 0 0 0 0 
0 0 0 0 0 -1 0 0 0 
0 0 -1 0 0 -1 0 0 0 
0 0 -1 0 0 0 0 0 0 
0 0 0 0 0 0 0 0 0 
0 0 0 0 0 0 0 0 0 
0 0 0 0 0 0 0 0 0 
0 0 0 0 0 0 0 0 0 
0 0 0 0 0 1 0 0 0 
0 0 0 0 0 1 0 0 0 
0 0 1 0 0 0 0 0 1 
0 1 0 0 0 0 0 0 0 
0 0 0 0 0 0 0 0 0 
0 0 0 0 0 0 0 0 0 
0 0 0 0 1 0 0 1 0 
0 0 0 0 0 0 0 0 0 
0 0 0 0 0 0 0 0 0 
0 0 0 0 0 0 0 0 0 
0 0 0 0 0 0 0 0 0 
0 0 0 0 0 0 0 0 0 
0 0 0 0 1 0 0 0 0 
0 0 0 0 0 0 0 0 0 
0 0 0 0 0 0 0 0 0 
0 0 0 0 0 0 0 0 0 
0 0 0 0 0 0 0 0 0 
0 0 0 0 0 0 0 1 0 
0 0 0 0 0 0 0 0 0 
0 0 0 0 0 0 0 0 0 
0 0 0 0 0 0 0 0 0 
0 0 0 0 0 0 0 0 0 
0 0 0 0 0 0 0 1 0 
0 0 0 0 0 0 0 0 0 
-1 0 0 0 0 0 0 0 0 
0 0 0 0 0 0 0 0 0 
0 0 0 0 0 0 0 0 0 
0 0 0 0 0 0 0 0 0 
0 0 0 0 0 0 0 0 0 
0 0 0 0 0 0 0 0 0 
0 0 0 0 0 0 0 0 0 
0 0 0 0 0 0 0 0 0 
0 0 0 0 0 0 0 0 0 
0 0 0 0 0 0 0 0 0 
0 0 0 0 0 0 0 0 0 
0 0 0 0 0 0 0 0 0 
0 0 0 0 0 0 0 0 0 
-1 0 0 0 0 0 0 0 0 
0 0 0 0 0 0 0 0 0 
0 0 0 0 0 0 0 0 0 
0 0 0 0 1 0 0 1 0 
0 0 0 0 0 0 0 0 0 
0 0 0 0 0 0 0 0 0 
0 0 0 0 0 0 0 0 0 
0 0 0 0 0 0 0 0 0 
0 0 0 0 0 0 0 0 0 
0 0 0 0 0 0 0 0 0 
0 0 0 0 0 0 0 0 0 
-1 0 0 0 0 0 0 0 0 
0 0 0 0 0 0 0 0 0 
0 0 0 0 0 0 0 0 0 
0 0 0 0 0 0 0 0 0 
0 0 0 -1 1 0 0 0 0 
0 0 0 0 0 0 0 0 0 
0 0 0 0 0 0 0 0 0 
0 0 0 0 0 0 -1 0 0 
0 0 0 0 0 0 0 0 0 
0 0 0 0 0 0 0 0 0 
0 0 0 0 1 0 0 0 0 
0 0 0 0 0 0 0 0 0 
-1 0 0 0 0 0 0 0 0 
0 0 0 0 0 0 0 0 0 
0 0 0 0 0 0 0 0 0 
0 0 0 0 0 0 0 0 0 
0 0 0 0 0 0 0 0 0 
0 0 0 0 0 0 0 0 0 
0 0 0 0 0 0 -1 0 0 
0 0 0 0 0 0 0 0 0 
0 0 0 0 0 0 0 0 0 
0 1 0 0 0 0 0 0 0 
0 0 0 0 0 0 0 0 0 
0 0 0 0 0 0 0 0 0 
0 0 0 0 0 -1 0 0 0 
0 0 0 0 0 0 0 0 0 
0 0 0 0 0 0 0 0 0 
0 0 0 0 0 0 0 0 0 
0 0 -1 0 0 0 0 0 -1 
0 0 0 0 0 -1 0 0 0 
0 0 -1 0 0 0 0 0 0 
0 0 0 0 0 -1 0 0 0 
0 0 -1 0 0 0 0 0 0 
0 0 0 0 0 1 0 0 0 
0 0 0 0 0 0 0 0 0 
0 0 0 0 0 0 0 0 0 
0 0 0 0 0 0 0 -1 0 
0 0 0 0 0 0 0 0 0 
0 0 0 0 0 0 0 0 0 
0 0 0 0 0 0 0 0 0 
0 0 0 0 0 0 0 0 0 
0 0 0 0 0 0 0 0 0 
0 0 0 0 0 0 0 0 0 
0 0 0 0 0 0 0 0 0 
0 0 0 0 0 0 0 0 0 
0 0 0 0 0 0 -1 0 0 
0 0 0 0 0 0 0 0 0 
0 0 0 0 -1 0 0 0 0 
0 0 0 0 0 0 0 0 0 
0 0 0 0 0 0 0 0 0 
0 0 0 0 0 0 0 0 0 
0 0 0 0 0 0 0 0 0 
0 0 0 0 0 0 0 0 0 
0 0 0 0 0 0 0 0 0 
0 0 0 0 0 0 0 0 0 
0 0 0 0 0 0 0 0 0 
0 0 0 0 0 0 -1 0 0 
0 0 0 0 0 0 0 0 0 
0 0 0 0 0 0 0 0 0 
0 0 0 0 0 0 0 -1 0 
0 0 0 0 0 0 0 0 0 
0 0 0 0 0 0 0 0 0 
0 0 0 0 0 0 0 0 0 
0 0 0 0 0 0 0 0 0 
0 -1 0 0 0 0 0 0 0 
0 0 0 0 0 0 0 0 0 
0 0 0 0 0 0 0 0 0 
0 0 0 0 0 0 0 0 0 
0 0 0 0 0 0 0 0 0 
0 0 0 0 0 0 0 0 0 
0 0 0 0 0 0 0 0 0 
0 0 0 0 0 0 0 0 0 
0 0 0 0 0 0 0 0 0 
0 0 0 0 0 0 0 0 0 
0 0 0 0 0 0 -1 0 0 
0 0 0 0 0 0 0 0 0 
0 0 0 0 0 0 0 0 0 
0 -1 0 0 0 0 0 0 0 
0 0 0 0 0 0 0 0 0 
0 0 0 0 0 0 0 0 0 
0 0 0 0 0 0 0 0 0 
0 0 0 0 0 0 0 0 0 
0 0 0 0 0 0 0 0 0 
0 0 0 -1 -1 0 0 0 0 
0 0 0 -1 0 0 0 0 0 
0 0 0 0 0 0 0 0 0 
0 0 0 0 0 0 0 0 0 
0 0 0 0 0 0 0 0 0 
0 0 0 0 0 0 0 0 0 
0 0 0 0 0 0 -1 0 0 
0 0 0 0 0 0 0 0 0 
0 0 0 -1 0 0 0 0 0 
0 0 0 0 0 0 0 -1 0 
0 0 0 0 0 0 0 0 0 
0 0 0 0 0 0 0 0 0 
0 0 0 0 0 0 0 0 0 
0 0 0 0 0 0 0 0 0 
0 0 0 0 0 0 0 0 0 
0 0 0 0 0 0 0 0 0 
0 0 0 0 0 0 0 0 0 
0 0 0 0 0 0 0 0 0 
0 0 0 0 0 0 0 0 0 
0 0 0 0 0 0 0 0 0 
0 0 0 0 0 0 0 -1 0 
0 0 0 0 0 0 -1 0 0 
0 0 0 0 0 0 0 0 0 
0 0 0 0 0 0 0 0 0 
0 0 0 0 0 0 0 0 0 
0 0 0 0 0 0 0 0 0 
0 0 0 0 0 0 0 0 0 
0 0 -1 0 0 0 0 0 -1 
0 0 0 0 0 -1 0 0 0 
0 0 -1 0 0 -1 0 0 0 
0 0 -1 0 0 -1 0 0 0 
0 0 0 0 0 -1 0 0 0 
0 0 0 0 0 0 0 0 0 
0 0 0 
v 3 1000 double
0.15849688728 1.2588917355 -1.3794574829 3.0683940602 0.063485275466 -0.48968791644 -1.6599295035 0.98381996052 -3.6340181657 
-2.0166160689 2.6640969967 -2.8561122949 0.40049830439 -2.0338945404 4.617333954 -2.6345215904 2.4302356102 0.13002169754 
-2.0751518286 1.2276412329 -0.64863694288 2.7409816829 1.2513883871 -1.8334203465 -0.82960857663 -0.58537571336 0.061668482732 
0.65984518514 3.1407733886 0.98187958806 -1.3191858822 0.46650333245 -2.3208006748 3.4546895439 -1.2277670013 -0.22965092374 
0.060256766498 2.6090482626 -0.99588277318 2.3644530867 0.50068043622 2.1287708684 2.8401400944 3.3273455193 0.71213432587 
5.5543125682 2.3546036505 -2.5703614854 2.033344325 -2.3472304151 2.2048908019 1.0415076547 -2.5481241361 -0.71427909053 
-0.2198030001 -1.0310231138 -1.8756097245 0.47229160247 -0.61856968983 -1.335026326 1.4479885741 0.072734545743 -2.9707243875 
-0.31905768158 1.8090076318 1.4412831446 0.94162281742 0.097408715343 -1.3014864419 0.58072498128 -0.88262452775 0.28042520175 
-0.54182617469 -0.025998130907 -1.7120573977 0.56165945034 1.6587960089 -3.3031455367 -0.86100250997 -0.95917830183 -1.4918564299 
1.9623049012 0.39257193484 0.72916731841 -0.6189236051 -1.0232866523 -0.24587731377 -1.1151013129 -1.5108295247 -3.0714376153 
2.0134449975 -1.9058127334 1.6991172637 -3.7474087432 -2.8528566038 -2.4667706501 -2.0524990582 -1.9314822801 3.0556218439 
-0.8474746699 -0.41124726816 1.8292971183 1.1388047554 1.3857861554 -2.9723298537 1.3010893571 2.8020771218 -2.112246896 
1.8934699412 5.4053961062 0.25902926259 0.81192546273 2.0128517375 -1.4832475088 -1.1287915759 -0.85888295291 -0.71789776425 
1.1643360504 -0.56574278262 2.296804526 0.71054065003 -2.6260702136 2.0637005987 1.0088630021 -1.0616989639 0.75430912415 
2.1094060842 -1.4833202923 0.19277369828 1.1473585921 -0.27431140673 -1.2043927673 -3.5761472163 -0.67364528642 -2.7329511432 
-1.4479915646 -0.62913909527 0.30910500881 1.0953196394 -1.5938892006 1.3903298088 -1.450971536 -3.4520800899 2.4927509787 
0.35447805136 -1.0538696328 -0.95324683205 -2.0113799223 -1.5504106536 -0.62373587132 1.2314714152 -2.2721259617 -6.7160551748 
4.1331415524 -6.1952917204 -1.4438522181 1.1822281707 -0.8740518906 -0.620136275 0.10861467442 0.40727146061 -1.5624011594 
2.7854559727 0.2052348276 -2.1760410667 -1.3430496484 -3.8702042817 -1.9512843575 2.768985147 0.87151935678 -2.436747125 
0.04832921852 1.5012586745 -3.7350418125 2.8313260065 -0.70916338419 0.65380830368 2.6897370878 -1.1238055484 0.70248671528 
0.52243212774 3.0128009403 -0.70340064926 1.981549548 -1.6846659792 -2.6876346167 -2.2998877481 -1.9645470772 0.80987139289 
-1.7337169844 -0.46495243847 -2.4243875671 1.2684516585 0.71631117365 0.8831468592 1.6447828752 -2.4450695346 -0.11591637718 
-1.6459593334 -8.3713566967 2.2303296764 -2.2924484696 0.28189704317 -3.0103924513 0.49377626867 1.1402393167 -1.8411470748 
0.1833130201 0.47764659752 -3.4482350416 0.68152866363 -1.2319274888 1.9564461951 3.8181560603 -1.875925432 -0.10200643642 
0.41312546887 -3.5476715298 -3.1734925057 0.18428583675 0.81849672658 -1.5895792353 -0.065107668748 -3.0478319018 0.65669539202 
-2.814939467 0.1752436917 -3.3449769227 -1.9471127015 -2.5964607124 1.5337041372 -5.2073433244 -0.44296924552 -1.5335039271 
-2.8655977163 -3.3318273009 -0.39459546075 -2.3627360434 2.5845812021 -0.6664490314 -1.3099521534 2.0713918727 -4.3183394547 
-2.3683766088 -1.1531773875 0.49159645926 2.1104799756 -2.2046157006 0.76560272298 -1.603901951 -0.33000732056 -3.329383716 
0.91767515386 0.65148066094 -1.7141378445 0.77775179495 -1.7666434188 -0.29724872191 -0.58611621621 0.97658754539 -1.8669158504 
1.9654982911 -2.6011308718 -1.8427246479 2.3938863897 -1.6500920267 -2.1754240185 2.8471581619 -1.2499636358 -1.4893226057 
4.3344498322 2.2762105777 -3.2959928732 2.6676524091 -0.2071253809 -0.87852775776 -2.3668751303 0.64060317608 -2.0158165895 
1.9771828235 -1.5022015471 2.9847943599 -1.5897174818 -0.40693290213 -0.9959551824 -1.1328955912 -3.4421424375 1.6079962693 
-2.3302177398 1.0618514206 -0.9066592161 -6.0824142623 1.5323775203 0.54683320092 1.9884669627 -1.4907880337 -0.19563998937 
0.0098835436739 0.82344085541 0.87863586775 1.1319588812 -1.9873337888 -2.8033550438 -0.804957351 -2.6569506275 1.0131439371 
0.21287190477 -0.21521331885 -2.1380850125 0.38156683236 -2.0104278034 0.91953276328 1.8730599931 -1.2181290912 -1.369556658 
1.0450374391 0.10392940786 -1.6659074021 -1.5400133568 0.99118197855 -0.084052664851 1.1265990262 3.6650088012 -0.54945613439 
2.9204339701 -0.2198840056 3.9906076504 3.0602286144 2.924928804 -2.6225714436 2.957779305 -0.86373842973 -3.0650060008 
0.23142486474 2.3310254753 -0.56946663897 2.2210637913 1.7540537879 3.9821844179 -0.15764467633 -6.7651478784 1.8157574914 
-2.9336658559 -3.9349095499 4.5294767992 1.4950190251 -1.7821586042 2.9952464144 -1.4831718684 -1.7829235587 2.6569447033 
1.2366206759 2.7280165118 -1.0649298779 3.305571133 -1.4834055091 -4.1757060961 2.1966376773 0.27030830026 -1.446426485 
-0.26769528337 -1.8496153955 2.0280705196 0.66726015192 -1.3559150292 -2.4525406777 1.238187866 -2.3969904757 -2.7896002888 
0.28018727892 1.209331744 0.27016223035 0.33285481121 2.2416043171 -2.4505668855 1.064627984 -2.9018048228 -3.4576162332 
0.9565582726 2.6222675418 0.69212539641 4.1758009183 2.6350842349 -1.0607592439 1.9958301577 -0.37527551437 0.82428821941 
6.9210970336 -2.1753422782 -0.81350409123 -0.92895155338 0.83741435252 1.4047233707 3.050587252 0.41704353181 2.0303140793 
1.1136874026 -4.6835764341 3.8258058017 1.6163473343 0.74536927811 1.665023014 1.2897933944 -3.7216430911 1.2112819574 
1.5039829602 -2.8220163723 3.4367767006 3.1683829266 -2.3034434315 -1.6281325296 3.0276512264 1.4069547326 -0.24617290429 
1.1090393309 1.0732920976 -1.2894826207 -5.2082647213 2.3297647293 -0.91770418029 0.58343957019 0.99951858297 -0.32438763341 
-0.29059760603 -1.0412542713 -0.38673945797 0.15223477696 2.1247485332 0.69758538136 3.9947165451 2.8321794322 0.63655692312 
0.57706521046 -1.6299850526 0.98615740731 0.36842188137 -2.1305529197 3.2029756292 2.2660278299 0.53491292303 3.7472263967 
1.9913968281 1.4007398014 -1.4055078885 -1.7526170293 1.065651029 1.9198625041 -0.47359246319 -1.2013019188 -0.77834266578 
-0.32146877953 -0.75923587363 0.91003462931 0.5533739858 -0.21879369633 -0.25017017341 0.77757760004 0.59149433077 1.3515327923 
0.63064909961 1.5402154894 1.5524100634 1.4546332161 -0.53196195345 1.801218565 1.6524966588 0.93181622527 0.25574621712 
1.5650088171 -0.30366292957 -0.062145382247 -2.4729914968 2.0075667614 -0.24392513526 -0.92065093995 1.1867671842 1.135358897 
1.9018510463 1.7821459815 1.4699387772 -2.9517539009 2.1970172647 -0.95924577519 1.1629894631 -3.3057151894 0.77927128286 
2.3559266805 -0.47035868858 2.6380054555 -0.65820541361 -0.43171877612 6.1447630984 -0.82459695677 1.4669222262 3.2645758016 
2.2566200876 -0.29443246672 -0.94558170777 1.1668883349 1.3627043549 2.0246338525 0.26607243645 2.943547849 -0.59869220471 
0.92818873077 -0.21403838273 2.9473643782 2.4820797976 1.7213863269 2.7637271956 0.4007677266 -2.2928133322 -0.14819002556 
1.4321469695 1.3552573446 1.2374671312 1.3059340124 -0.28395666463 -0.87009267382 1.4784738705 1.614318686 -1.0476987665 
0.41006798877 -0.71681322195 -1.4675065772 0.75361567234 3.6767216221 0.2232001137 0.20281861617 1.2718406661 -0.014209190684 