# vtk DataFile Version 4.2
Generated by LIGGGHTS
ASCII
DATASET POLYDATA
POINTS 1000 float
0.391253 0.559504 0.206325 1.86115 0.142506 0.00969864 3.76811 0.323589 0.629163 
2.83521 0.868046 0.612962 0.763572 1.8385 0.564036 4.44708 1.74562 0.147527 
3.68795 2.30331 0.492877 0.00223495 2.52991 0.596587 1.45075 2.70342 0.237176 
2.66313 2.74176 0.395147 3.42111 3.31777 0.0860772 0.0198751 4.05823 0.318049 
3.41253 4.31831 0.0386564 4.16869 4.9198 0.66099 0.970502 0.499954 1.04969 
1.86824 0.928445 0.860624 4.63844 0.934528 0.765714 2.52642 1.85646 0.84242 
3.72002 1.32565 0.700938 4.19472 1.96711 1.3125 4.7148 2.56018 0.697762 
0.720146 3.1627 1.00991 1.60521 3.65126 0.890035 3.68067 3.14137 1.0413 
4.52677 3.54348 0.690497 3.5851 4.14646 1.00871 0.587034 4.71403 0.850134 
1.6589 4.62787 0.674501 2.66946 4.70648 0.701916 2.73566 0.192599 1.38015 
4.48069 0.152471 1.80786 0.64546 0.974701 1.89122 2.76396 1.19574 1.63001 
3.6155 0.674122 1.57071 4.55584 1.15021 1.76624 0.220564 2.37657 1.56233 
1.21855 2.31708 1.49743 3.22644 2.1578 1.49294 4.956 2.26471 1.90063 
2.69116 3.07893 1.37088 4.09288 2.90285 1.92456 1.75963 3.284 1.81047 
4.97975 3.2168 1.5741 0.99261 3.9703 1.62624 2.67047 4.08106 1.55214 
4.48942 4.13885 1.49535 1.31093 4.92123 1.56544 3.24607 4.96756 1.47901 
1.39182 0.528678 2.38892 2.38442 0.471401 2.27513 3.36666 0.361458 2.57253 
1.47361 1.54127 2.07449 3.71171 1.52738 2.15031 2.44767 1.979 2.45978 
3.55009 2.42284 2.63341 0.70982 3.09472 2.08942 1.61375 2.57106 2.53593 
2.52123 2.98118 2.4372 4.85428 3.01268 2.5639 3.2784 3.6022 2.23333 
0.907292 3.9266 2.62551 1.88847 4.04474 2.44676 4.24536 3.79002 2.40579 
0.167449 4.45794 2.21263 1.18029 4.88811 2.57227 2.71235 4.63454 2.38882 
3.71133 4.64128 2.34422 4.34269 0.514471 2.72994 0.524509 0.763487 2.91278 
1.96818 1.20651 2.88468 3.03803 1.26799 2.84279 4.52885 1.49003 2.85504 
0.667143 2.27448 2.67015 2.81645 2.42634 3.32691 4.45938 2.40693 3.27455 
0.285228 3.27025 3.053 1.25494 3.17221 3.30361 2.46458 4.22349 3.26668 
3.55323 4.02023 3.11197 3.17168 4.94107 3.25853 4.27356 4.80705 3.20147 
2.50386 0.526536 3.38831 4.35199 0.245204 3.77543 0.0424979 0.727756 3.91567 
1.42339 0.81875 3.68404 3.48887 0.681068 3.51632 2.93239 1.38908 3.95393 
3.66573 1.81726 3.42557 0.27842 2.39658 3.58437 1.33279 2.12157 3.4011 
3.66269 2.97425 3.58775 2.25199 3.25118 3.36745 3.0254 3.72718 3.93069 
4.44353 3.61388 3.37007 0.509852 4.21046 3.6649 1.48494 4.13968 3.44909 
2.6737 0.354104 4.37118 0.808333 0.747779 4.561 1.80355 0.828997 4.65599 
3.5676 0.754779 4.57343 0.264264 1.66627 4.28095 1.26593 1.61453 4.27192 
4.24124 1.298 4.0586 2.17621 2.10759 4.03422 3.42025 2.27677 4.28079 
4.87273 2.13686 4.14909 1.63033 3.10907 4.28691 0.0949543 3.37635 4.02954 
4.75491 3.12994 4.18796 2.15215 4.1392 4.21292 3.80824 4.34215 4.02955 
4.7583 4.167 4.28801 1.24148 4.88646 4.34241 3.03115 4.49563 4.64035 
4.32382 0.130202 4.7685 2.68538 1.22717 4.90949 4.48465 0.968623 5.28939 
3.65704 1.64531 5.01954 0.579223 2.3754 4.93671 1.60116 2.28242 4.93798 
2.74034 2.31939 5.06056 4.62161 1.94067 5.09831 3.97978 2.7113 4.98923 
0.667629 3.36767 4.84928 2.5516 3.25059 4.71622 4.0223 3.70944 4.79035 
0.428282 4.35296 4.68319 1.39931 4.04913 4.86584 2.33118 4.08761 5.22665 
1.03381 0.581095 5.64767 2.62745 0.284006 5.39711 2.60879 1.17191 5.90526 
3.49033 0.785034 5.57503 0.605882 1.49885 5.41784 1.61802 1.38043 5.50009 
4.1036 1.71815 5.93625 2.028 2.23681 5.84621 1.08375 2.69157 5.84464 
4.61058 2.67085 5.78604 0.0298845 3.31361 5.6184 1.82299 3.35309 5.71533 
3.20925 3.6283 5.36876 4.4372 3.65845 5.70104 0.689237 4.0799 5.60977 
1.61693 4.33503 5.88234 2.59472 4.87228 5.79122 4.60241 4.60385 5.41835 
0.353199 0.117359 6.21497 1.89983 0.509181 6.14712 0.00493914 1.24183 6.33695 
3.7937 0.752936 6.52745 4.75704 1.08621 6.35731 0.831743 1.85074 6.32631 
1.72351 1.42894 6.49911 0.087075 2.5866 6.30528 2.71656 3.0093 6.00515 
3.63859 2.60284 6.02786 0.741797 3.48998 6.442 4.00902 3.48582 6.59009 
2.53615 4.12876 6.46526 3.60332 4.27618 6.05995 0.845078 4.71035 6.41862 
4.36753 4.74578 6.51217 0.0665623 0.240984 7.16508 1.14175 0.327964 6.79465 
1.977 0.0100988 7.24602 4.5869 0.204019 6.79663 0.671665 1.16926 7.07923 
2.1247 1.01529 7.32 3.00394 1.2978 6.81523 4.9755 1.81808 7.01957 
0.1788 2.03759 7.13609 2.26915 2.15979 6.90922 3.41176 2.18265 7.04222 
1.09201 2.65909 7.0576 4.35923 2.56558 6.77039 0.236395 3.1669 7.30629 
1.67742 3.69793 6.74394 2.48472 3.13653 6.97028 4.87764 3.52706 7.10282 
0.499271 4.1386 7.16388 3.36101 4.10743 7.03023 0.847602 0.451738 7.75322 
3.80637 0.100651 7.41385 3.05672 0.725451 7.63364 4.18582 1.19758 7.33394 
0.696497 2.40328 7.94466 2.6611 1.90615 7.79374 4.35536 2.15787 7.7267 
1.76445 2.95949 7.90061 1.03828 3.64541 7.84671 4.1328 3.13482 7.6438 
2.50896 3.97824 7.53759 3.52989 3.85662 7.98461 0.160348 4.75083 7.92419 
1.14169 4.87637 7.37246 2.88399 4.9057 7.40524 4.20949 4.39886 7.47862 
2.29432 0.325873 8.14259 3.29697 0.477706 8.59276 4.53864 1.24487 8.40008 
0.855886 1.41412 8.03756 2.30484 1.26829 8.47764 3.59559 1.4227 8.10941 
1.67601 2.06732 8.34358 3.46007 2.43926 8.07208 4.71949 2.87904 8.65248 
2.74194 3.13356 8.01989 0.492584 4.0439 8.58557 1.99457 3.8647 8.43702 
1.23092 4.67639 8.35068 2.91765 4.60465 8.4232 1.93771 0.500952 9.07591 
4.25982 0.437833 9.00131 0.605702 0.695222 8.69564 1.36699 1.30597 8.91355 
3.13944 1.6874 8.96131 2.18796 2.0066 9.20592 4.11669 2.08578 8.73911 
0.980914 2.73205 8.9156 1.92755 3.06864 9.04176 2.95811 2.67395 9.04312 
0.0790785 3.13434 8.72101 2.91679 3.65196 9.27129 3.77054 3.18872 8.71688 
1.42548 4.17631 9.2558 3.93225 4.13598 9.05703 4.92896 3.92234 8.73756 
1.99336 4.93899 8.94626 1.24095 0.932402 9.83272 2.84261 0.671517 9.46646 
3.89035 0.900001 9.81045 2.18133 1.28883 9.92125 3.11535 1.64417 9.96025 
4.82963 1.26267 9.35784 0.900847 1.98968 9.58361 3.89287 2.60814 9.56268 
0.681593 3.63934 9.65391 2.01803 3.53184 9.92522 4.50612 3.39447 9.48507 
4.54911 4.25685 9.98953 0.415587 4.8225 9.80874 2.87667 4.88642 9.41382 
2.28729 5.40135 0.0399089 0.718428 5.88153 0.089785 3.18471 5.84147 0.081864 
4.93061 6.38944 0.397966 0.910766 6.91322 0.187827 1.93343 7.47637 0.207065 
0.800124 7.94785 0.387658 2.84128 8.07323 0.277231 4.68458 7.65193 0.0558637 
0.175377 8.71796 0.51718 1.55802 8.51607 0.06568 3.83975 8.22615 0.20019 
4.75615 8.62475 0.283672 2.20186 9.15951 0.479772 1.11726 9.51135 0.349098 
2.88987 9.88415 0.440478 0.624992 5.93382 1.09289 1.55013 5.65155 0.826996 
2.48958 6.00711 0.840296 3.84778 6.15473 0.78696 4.7001 6.01573 1.29655 
1.62305 6.67756 0.85569 0.325713 7.27045 0.949886 3.01246 7.16148 0.769324 
4.01673 7.42782 0.778675 1.15386 8.68346 1.12319 2.04855 8.2089 0.883978 
3.3785 8.37362 1.08439 4.41157 8.22785 1.23042 2.80647 9.17886 1.27647 
3.96479 9.10003 0.67123 1.82182 9.93322 0.98679 4.62448 9.84778 0.866175 
0.472827 5.35836 1.89783 2.2813 5.17689 1.6405 4.14376 5.31729 1.74724 
2.06213 6.12669 1.87691 3.19982 6.06051 1.54295 1.123 6.54232 1.71108 
3.8538 6.81845 1.55467 0.462088 7.25623 1.94294 2.15698 7.20968 1.51269 
4.83762 6.99663 1.43443 1.2072 7.63814 1.38869 3.19604 7.56817 1.66733 
0.0999284 8.17995 1.81766 1.88207 8.58008 1.80449 0.321994 9.25023 1.6126 
4.51908 9.15704 1.58407 3.65623 9.68614 1.42065 3.19954 5.50901 2.37818 
4.89028 5.06624 2.36673 1.29777 5.87927 2.47858 4.4768 6.08866 2.28956 
0.22022 6.30012 2.12246 2.76684 6.68728 2.31251 3.73975 6.71689 2.54372 
1.44019 7.50128 2.35717 2.43654 7.67609 2.35187 4.28252 7.60477 2.00205 
0.925876 8.63674 2.14884 2.8529 8.53186 2.04005 3.85267 8.50728 2.04418 
0.250296 9.82846 2.43524 1.22566 9.49305 2.56965 2.15455 9.5277 2.00509 
3.12363 9.39708 2.46383 4.2003 9.39936 2.50043 0.125665 5.57927 2.80924 
2.29599 5.71258 2.78267 3.83411 5.76815 3.10845 0.884534 6.75607 2.72584 
1.97821 6.71287 2.96818 4.4304 6.57613 3.25309 0.653334 7.72716 2.93551 
2.14764 7.64399 3.30868 3.14542 7.51439 3.03859 4.16951 7.51568 3.02371 
0.576203 8.7396 3.10198 1.65996 8.45799 2.80993 2.55192 8.65465 3.21702 
3.51454 8.5115 2.98626 4.50802 8.47 2.86795 2.31024 9.62448 3.00243 
0.736888 5.16828 3.48622 1.74874 5.10769 3.36957 1.39273 6.15053 3.57184 
2.9024 5.87893 3.56058 4.77482 5.65598 3.44068 0.379704 6.29739 3.45715 
3.54342 6.6205 3.76195 0.139491 7.2207 3.76802 1.17108 7.15367 3.60334 
3.7931 7.57278 3.95195 4.75124 7.85874 3.83948 1.21318 8.19182 3.66903 
3.95248 8.71164 3.92723 1.51475 9.18349 3.48482 4.60024 9.33326 3.4479 
0.873947 9.98871 3.48193 2.71575 9.38066 3.8849 3.62874 9.5997 3.46835 
1.98536 5.54639 4.2368 3.42982 5.27969 4.16339 4.40719 5.10338 4.28026 
0.681313 5.72161 4.51538 4.26884 6.10221 4.21492 1.51432 6.62497 4.45142 
2.47307 6.55959 4.15624 4.87638 6.8902 4.09122 0.527939 7.75937 4.51583 
1.75378 7.58364 4.29534 2.80183 7.50004 4.06779 0.771609 8.75087 4.4744 
1.96363 8.62179 4.19528 2.99388 8.48289 4.2517 4.8986 8.76139 4.24752 
0.00163096 9.48572 4.13604 0.900871 9.7505 4.48895 1.80141 9.93113 4.09319 
3.41055 9.65871 4.54864 1.88438 5.06458 5.11347 4.38066 5.55529 5.20484 
1.25212 6.07684 5.25564 2.48427 5.97167 4.99202 3.48302 5.90891 4.94042 
0.543901 6.74538 4.70683 3.25952 6.85604 4.70994 4.47271 6.54423 5.08857 
2.4082 7.45344 5.04118 1.30721 8.038 5.07839 3.36399 7.7335 5.17885 
2.36571 8.47377 5.1111 4.20003 8.14277 4.81231 3.3135 8.79947 5.15441 
4.21061 9.1415 4.87131 2.30771 9.45685 4.9239 0.944268 5.07803 5.45564 
3.53624 5.00141 5.37085 0.262181 5.95784 5.42364 1.92263 5.75367 5.92348 
2.97648 6.06255 5.85782 0.361332 6.82703 5.90811 2.13478 6.68515 5.62469 
3.66006 6.77187 5.68565 1.24447 7.0717 5.35823 4.46998 7.35839 5.68074 
0.376859 8.16987 5.51833 1.1808 8.72019 5.80747 4.72272 8.32564 5.65713 
0.347426 9.26203 5.69567 4.81255 9.322 5.67561 1.27083 9.63531 5.41114 
2.83301 9.3904 5.80853 4.04389 9.96372 5.71397 0.0421688 5.24192 6.08685 
1.77873 5.02337 6.59385 2.67918 5.45869 6.59742 3.89254 5.60176 6.11643 
[...]
POINT_DATA 1000
FIELD FieldData 7
id 1 1000 int
5 62 43 36 541 759 142 7 501 
20 601 607 152 635 561 37 927 418 
404 762 175 1 531 521 147 242 116 
605 117 588 591 551 70 61 776 41 
504 263 674 600 872 526 624 610 109 
646 111 597 562 663 87 30 50 283 
766 519 508 255 419 272 251 841 659 
768 368 365 899 235 644 566 589 592 
17 84 408 758 765 358 752 979 154 
74 846 545 197 105 584 79 302 42 
783 269 286 749 253 767 114 78 608 
268 570 583 515 294 571 698 744 774 
215 769 177 193 866 262 838 546 848 
12 68 578 110 361 510 755 276 669 
324 764 814 833 782 44 277 104 554 
274 594 97 558 325 296 322 214 318 
285 292 164 85 279 576 867 488 512 
543 202 577 532 278 28 702 284 307 
680 200 123 552 473 557 556 559 482 
506 27 393 128 54 72 580 529 658 
797 630 13 880 747 280 505 162 656 
11 602 139 742 503 57 323 737 511 
170 535 746 540 539 53 542 424 134 
148 120 596 567 736 25 45 544 67 
450 874 300 547 21 922 236 634 612 
121 229 729 125 24 32 288 626 130 
939 909 892 604 603 129 234 599 628 
586 579 238 491 585 714 99 150 477 
694 548 362 975 80 534 48 88 86 
77 696 963 81 100 718 839 133 22 
538 654 51 52 49 568 854 73 144 
240 625 115 140 845 716 750 593 560 
137 661 3 574 59 138 8 849 633 
367 174 638 884 662 502 29 187 46 
167 169 188 75 581 862 717 141 378 
160 402 108 636 172 35 173 684 192 
301 349 582 356 380 375 639 629 842 
149 360 648 565 40 682 354 182 377 
673 840 598 261 415 647 369 157 384 
171 275 426 920 180 199 676 342 353 
163 195 82 851 281 652 788 791 190 
254 155 446 637 198 830 347 291 858 
836 357 813 664 781 902 297 313 945 
660 917 795 186 181 934 178 331 685 
10 868 312 816 789 153 406 919 675 
456 948 335 943 470 474 329 856 822 
821 701 126 330 372 47 211 835 321 
916 453 935 933 463 686 363 256 827 
573 314 317 334 348 709 91 857 870 
988 689 223 998 15 219 940 938 332 
66 971 825 807 196 458 954 224 863 
958 961 969 745 875 507 555 993 590 
103 206 972 337 691 996 831 688 563 
994 953 861 533 966 107 999 237 820 
90 225 471 727 997 210 18 479 231 
58 809 713 63 33 69 486 977 490 
328 720 991 520 60 523 391 132 9 
616 879 509 723 606 101 611 730 146 
981 26 522 194 873 439 631 655 420 
399 860 364 484 995 621 640 692 405 
136 575 881 843 650 449 469 651 423 
289 620 102 524 385 14 71 719 518 
929 2 970 311 777 264 657 345 891 
383 815 431 89 413 16 34 928 386 
23 295 896 56 468 165 681 877 304 
645 290 903 748 228 952 757 712 904 
801 763 207 802 425 310 623 796 649 
113 94 832 257 834 106 775 695 743 
476 478 452 410 923 320 780 436 779 
790 670 819 818 258 536 1000 808 184 
738 351 306 489 443 461 338 679 678 
352 305 806 55 677 326 355 707 359 
553 4 859 564 340 6 247 829 985 
428 65 665 699 499 230 513 308 703 
826 371 38 462 671 667 179 208 710 
241 191 220 900 587 810 595 343 700 
496 222 895 209 706 715 641 725 704 
217 642 989 549 527 168 64 693 98 
708 690 218 722 212 528 201 221 733 
271 244 205 95 672 216 379 481 734 
741 705 246 227 724 92 735 572 245 
112 156 726 982 226 976 622 119 344 
374 487 31 721 732 990 530 514 924 
252 632 683 248 980 855 653 127 135 
668 465 869 962 955 131 760 968 525 
805 445 828 327 823 233 239 243 614 
847 617 392 619 299 516 494 480 93 
475 493 956 466 817 350 341 853 370 
395 615 492 761 852 740 918 613 76 
794 973 498 96 844 232 316 983 267 
366 773 485 249 396 517 166 569 401 
890 885 83 986 495 912 886 387 728 
811 786 731 145 260 250 865 756 394 
376 889 905 894 914 151 381 143 984 
282 293 987 897 437 400 609 771 784 
265 770 798 812 273 39 259 398 403 
389 753 882 754 382 432 921 500 871 
785 333 778 422 907 390 793 876 887 
898 772 298 319 417 878 185 901 992 
942 161 411 430 751 883 906 414 893 
433 438 397 427 457 189 159 409 442 
967 309 787 435 915 925 412 388 908 
926 888 416 792 913 951 429 937 448 
447 451 287 440 739 459 946 407 910 
803 434 949 941 176 666 346 421 947 
467 978 454 965 799 931 944 950 800 
441 957 183 203 270 373 118 483 537 
964 550 497 959 455 837 460 697 687 
204 711 911 122 213 936 627 960 158 
336 974 930 444 850 824 315 804 339 
618 643 124 19 932 266 472 464 303 
864 
type 1 1000 int
1 1 1 1 2 2 1 1 2 
1 2 2 1 2 2 1 2 1 
1 2 1 1 2 2 1 1 1 
2 1 2 2 2 1 1 2 1 
2 1 2 2 2 2 2 2 1 
2 1 2 2 2 1 1 1 1 
2 2 2 1 1 1 1 2 2 
2 1 1 2 1 2 2 2 2 
1 1 1 2 2 1 2 2 1 
1 2 2 1 1 2 1 1 1 
2 1 1 2 1 2 1 1 2 
1 2 2 2 1 2 2 2 2 
1 2 1 1 2 1 2 2 2 
1 1 2 1 1 2 2 1 2 
1 2 2 2 2 1 1 1 2 
1 2 1 2 1 1 1 1 1 
1 1 1 1 1 2 2 1 2 
2 1 2 2 1 1 2 1 1 
2 1 1 2 1 2 2 2 1 
2 1 1 1 1 1 2 2 2 
2 2 1 2 2 1 2 1 2 
1 2 1 2 2 1 1 2 2 
1 2 2 2 2 1 2 1 1 
1 1 2 2 2 1 1 2 1 
1 2 1 2 1 2 1 2 2 
1 1 2 1 1 1 1 2 1 
2 2 2 2 2 1 1 2 2 
2 2 1 1 2 2 1 1 1 
2 2 1 2 1 2 1 1 1 
1 2 2 1 1 2 2 1 1 
2 2 1 1 1 2 2 1 1 
1 2 1 1 2 2 2 2 2 
1 2 1 2 1 1 1 2 2 
1 1 2 2 2 2 1 1 1 
1 1 1 1 2 2 2 1 1 
1 1 1 2 1 1 1 2 1 
1 1 2 1 1 1 2 2 2 
1 1 2 2 1 2 1 1 1 
2 2 2 1 1 2 1 1 1 
1 1 1 2 1 1 2 1 1 
1 1 1 2 1 2 2 2 1 
1 1 1 2 1 2 1 1 2 
2 1 2 2 2 2 1 1 2 
2 2 2 1 1 2 1 1 2 
1 2 1 2 2 1 1 2 2 
1 2 1 2 1 1 1 2 2 
2 2 1 1 1 1 1 2 1 
2 1 2 2 1 2 1 1 2 
2 1 1 1 1 2 1 2 2 
2 2 1 2 1 1 2 2 1 
1 2 2 2 1 1 2 1 2 
2 2 2 2 2 2 2 2 2 
1 1 2 1 2 2 2 2 2 
2 2 2 2 2 1 2 1 2 
1 1 1 2 2 1 1 1 1 
1 2 2 1 1 1 1 2 1 
1 2 2 2 1 2 1 1 1 
2 2 2 2 2 1 2 2 1 
2 1 2 1 2 1 2 2 1 
1 2 1 1 2 2 2 2 1 
1 2 2 2 2 1 1 2 1 
1 2 1 2 1 1 1 2 2 
2 1 2 1 2 1 2 1 2 
1 2 1 1 1 1 1 2 1 
1 1 2 1 1 1 2 2 1 
2 1 2 2 1 2 2 2 2 
2 2 1 2 1 1 2 2 2 
1 1 2 1 2 1 2 2 2 
1 1 1 1 2 1 2 1 2 
2 2 2 2 1 2 2 2 1 
2 1 1 1 1 1 1 2 2 
1 1 2 1 2 1 1 2 1 
2 1 2 2 1 1 1 2 2 
1 1 2 2 1 1 2 1 2 
2 1 1 1 2 2 1 1 2 
1 1 1 2 2 2 2 1 2 
1 1 2 1 2 2 2 2 2 
1 2 2 2 2 1 1 2 1 
2 2 1 2 1 2 1 1 2 
1 1 1 1 2 1 1 1 2 
2 2 1 1 2 1 2 2 1 
1 1 2 2 1 2 2 1 1 
1 1 1 2 2 2 2 2 2 
1 2 2 1 2 2 2 1 1 
2 1 2 2 2 1 2 2 2 
2 1 2 1 2 1 1 1 2 
2 2 1 2 1 2 1 1 1 
1 1 2 1 2 1 1 2 1 
1 2 1 2 2 2 2 2 1 
2 2 1 1 2 1 1 2 1 
1 2 1 1 1 2 1 2 1 
2 2 1 2 1 2 2 1 2 
2 2 2 1 1 1 2 2 1 
1 2 2 2 2 1 1 1 2 
1 1 2 2 1 1 2 2 2 
1 2 2 2 1 1 1 1 1 
1 2 2 2 1 1 2 1 2 
2 1 2 1 2 1 2 2 2 
2 2 1 1 1 2 1 2 2 
2 1 1 1 2 2 2 1 2 
1 1 1 1 1 1 1 1 1 
2 1 2 1 2 2 1 1 2 
2 2 1 2 2 2 1 2 1 
1 1 1 1 2 1 2 1 2 
2 1 2 2 1 2 1 1 2 
1 2 1 2 2 2 2 2 2 
1 2 1 1 1 1 1 1 2 
2 2 1 2 1 2 1 2 2 
1 2 2 1 1 2 2 2 1 
1 2 2 1 2 2 1 2 1 
2 2 1 1 2 1 1 1 1 
2 
i 3 1000 int
0 0 0 0 0 0 0 0 0 
0 0 0 0 0 0 1 0 0 
0 0 0 0 0 0 0 0 0 
0 0 0 0 0 1 0 0 1 
0 0 0 0 0 0 0 0 0 
0 0 0 1 0 0 1 0 0 
1 0 0 1 0 0 0 0 0 
0 0 0 0 0 0 0 0 0 
0 0 0 0 0 1 0 0 1 
0 0 1 0 0 1 0 0 0 
0 0 0 0 0 0 0 0 0 
0 0 0 1 0 0 0 0 0 
0 0 0 1 0 0 0 0 0 
0 0 1 1 0 0 0 0 0 
0 0 0 0 0 1 0 0 1 
0 0 0 0 0 1 0 0 1 
0 0 0 0 1 0 0 0 0 
0 0 0 0 0 0 1 0 0 
1 0 0 0 0 0 0 0 0 
1 0 0 1 0 0 1 0 0 
1 0 0 1 0 1 0 0 0 
1 0 0 1 0 1 1 0 1 
1 0 0 0 0 0 0 1 0 
0 0 0 0 0 0 0 0 0 
0 0 0 0 0 0 1 0 0 
1 0 0 1 0 0 1 0 1 
1 0 0 1 0 1 0 0 0 
0 0 0 0 0 0 0 0 0 
0 1 0 0 0 0 0 0 0 
0 0 0 1 0 0 0 0 0 
1 0 0 1 0 0 1 0 0 
1 0 0 1 0 0 1 0 0 
0 0 0 0 0 0 0 0 0 
0 0 -1 0 0 0 0 0 0 
0 0 -1 1 0 0 0 0 0 
0 0 0 1 0 0 1 0 0 
0 0 0 1 0 0 0 0 0 
0 0 0 1 0 1 1 0 0 
0 0 0 0 0 -1 0 0 0 
0 0 -1 0 0 0 0 0 0 
0 0 0 0 0 0 0 0 -1 
1 0 0 1 0 0 0 0 0 
1 0 0 1 0 0 1 0 0 
0 0 0 0 0 -1 0 0 -1 
0 0 -1 0 0 0 0 0 -1 
0 0 -1 0 0 0 0 0 0 
0 0 -1 1 0 0 1 0 0 
1 0 0 0 0 0 1 0 0 
1 0 0 1 0 0 0 0 0 
0 0 0 0 0 -1 0 0 0 
0 0 0 0 1 0 0 0 -1 
0 0 -1 0 1 0 0 0 0 
0 0 -1 1 0 0 0 0 -1 
0 0 0 1 0 0 1 0 0 
0 0 0 0 1 0 0 0 0 
0 0 -1 0 1 0 0 0 -1 
0 0 -1 0 0 -1 0 1 0 
0 0 -1 0 0 -1 1 0 -1 
0 0 0 0 0 -1 0 0 0 
0 0 0 0 0 -1 0 0 -1 
1 0 0 0 0 -1 0 0 -1 
0 1 -1 0 0 -1 0 0 -1 
0 0 -1 0 0 -1 0 0 -1 
0 0 -1 0 0 0 0 0 -1 
0 0 0 0 0 -1 0 0 0 
1 0 0 0 0 0 0 0 -1 
0 1 -1 0 0 -1 0 0 -1 
0 0 -1 0 0 -1 0 0 -1 
0 0 -1 1 0 -1 0 0 -1 
0 0 -1 0 0 0 0 0 0 
0 0 0 0 0 0 0 0 -1 
0 0 -1 0 0 -1 0 0 -1 
1 0 -1 1 0 -1 1 0 -1 
0 0 -1 0 0 -1 1 0 -1 
0 1 0 0 0 -1 0 0 -1 
0 0 0 0 0 0 0 0 0 
0 0 0 0 0 -1 0 0 -1 
1 0 -1 0 0 -1 0 0 -1 
1 0 -1 1 0 -1 1 0 -1 
0 0 0 0 0 0 0 0 -1 
0 0 0 0 0 0 0 0 -1 
0 0 1 0 0 1 0 0 1 
0 0 1 0 0 1 0 0 1 
0 0 1 0 0 0 0 0 1 
0 0 1 0 -1 0 0 -1 1 
0 0 1 0 -1 0 0 -1 0 
0 -1 0 0 0 1 0 0 1 
0 0 1 0 0 1 0 0 1 
0 0 1 0 0 1 0 0 1 
0 -1 1 0 0 0 0 -1 0 
0 -1 0 0 0 0 0 -1 0 
0 -1 0 0 -1 0 0 -1 0 
1 0 1 0 0 1 0 0 0 
0 0 1 0 0 0 0 0 1 
0 0 0 1 0 1 0 0 1 
0 -1 0 0 0 1 0 -1 0 
0 0 0 0 0 0 0 -1 0 
0 -1 0 0 -1 0 0 0 0 
0 -1 0 1 0 1 0 0 0 
1 0 1 0 0 0 0 0 0 
1 0 0 0 0 0 0 -1 0 
0 -1 0 0 0 0 0 -1 0 
0 0 0 0 0 0 0 0 0 
0 -1 0 0 -1 0 1 0 1 
0 0 1 0 0 0 1 0 1 
0 0 0 0 0 0 0 0 1 
0 0 0 0 0 0 0 -1 0 
0 0 0 0 0 0 0 0 0 
0 -1 0 0 -1 0 0 -1 0 
1 0 1 1 0 1 1 0 1 
0 0 0 0 0 0 1 0 1 
0 0 0 1 0 1 0 0 0 
0 -1 0 0 -1 0 0 0 0 
0 -1 0 0 0 0 0 -1 0 
0 0 0 0 -1 0 0 -1 0 
1 0 0 1 0 0 0 0 0 
1 0 1 0 0 0 1 0 0 
0 0 0 0 -1 0 1 0 0 
1 0 0 0 0 0 0 0 0 
0 0 0 0 -1 0 0 -1 0 
0 0 0 0 0 0 0 -1 0 
0 -1 0 1 0 0 0 0 0 
1 0 0 1 0 0 0 0 0 
1 0 0 0 0 0 0 0 0 
0 0 0 0 0 0 0 -1 0 
0 -1 0 0 -1 0 0 -1 0 
0 -1 0 0 -1 0 1 0 0 
0 0 0 1 0 0 1 0 0 
1 0 0 1 0 0 1 0 0 
0 0 0 1 0 0 0 -1 0 
0 0 0 0 0 0 0 0 0 
0 0 0 0 -1 0 0 0 0 
0 -1 -1 0 -1 0 1 0 0 
1 0 0 1 0 0 0 0 0 
1 0 0 1 0 0 0 0 0 
0 0 0 1 0 0 0 -1 0 
0 0 0 1 0 0 0 0 0 
0 -1 0 0 -1 0 0 -1 0 
0 -1 0 0 0 0 0 -1 0 
0 -1 0 0 -1 0 0 -1 -1 
0 0 0 1 0 0 1 0 0 
0 0 0 1 0 0 0 0 0 
1 0 0 0 0 0 0 0 0 
0 -1 0 0 -1 -1 0 -1 0 
0 0 0 1 0 0 1 0 0 
0 -1 0 1 0 0 0 0 0 
0 0 0 0 -1 0 0 -1 0 
0 0 0 0 0 0 0 0 0 
0 0 0 0 -1 -1 0 0 0 
0 0 0 0 0 0 1 0 0 
0 0 0 0 0 0 1 0 0 
1 0 0 0 0 0 0 0 0 
0 0 0 0 0 0 0 -1 0 
0 0 0 0 0 0 0 0 0 
0 -1 -1 0 0 -1 0 -1 -1 
0 -1 -1 0 0 0 0 0 0 
0 0 0 0 0 0 0 0 0 
1 0 0 0 0 0 0 0 0 
1 0 0 0 0 0 0 0 0 
0 0 0 0 0 0 0 -1 0 
0 -1 -1 0 0 0 0 0 0 
0 0 0 0 0 0 0 -1 0 
0 0 0 0 0 0 0 0 0 
0 0 0 0 0 0 0 0 0 
0 -1 -1 0 0 0 0 0 0 
0 -1 -1 0 -1 -1 0 0 0 
0 -1 -1 0 -1 -1 0 -1 -1 
0 0 0 0 1 1 0 1 1 
0 1 1 -1 1 1 0 1 1 
-1 0 0 0 0 0 -1 0 0 
0 1 0 -1 1 0 -1 0 0 
0 0 0 0 1 0 -1 0 0 
0 0 1 -1 0 1 0 0 0 
-1 1 0 -1 1 1 -1 1 0 
0 1 1 -1 0 0 -1 0 0 
0 0 0 0 1 0 0 0 0 
0 0 0 0 0 0 0 0 0 
0 1 0 0 0 1 0 0 1 
0 1 1 0 1 1 -1 1 0 
-1 1 0 0 0 0 0 1 0 
-1 1 0 0 0 0 0 1 0 
0 0 1 0 0 0 0 0 0 
0 0 0 0 0 0 0 0 0 
0 0 0 0 0 0 0 0 0 
0 0 0 0 1 0 -1 0 0 
-1 0 0 0 0 0 -1 0 0 
0 0 0 -1 0 0 0 0 0 
0 0 0 0 0 0 0 0 0 
0 0 0 0 0 0 0 1 0 
0 0 0 0 0 0 0 0 0 
0 0 0 0 1 0 -1 0 0 
-1 0 0 0 1 0 0 1 0 
-1 0 0 0 0 0 0 1 0 
0 0 0 0 0 0 0 0 0 
0 0 0 0 0 0 0 0 0 
0 0 0 0 0 0 0 1 0 
0 0 0 0 0 0 0 0 0 
0 0 0 0 0 0 0 1 0 
0 0 0 0 0 0 0 0 0 
0 0 0 0 0 0 0 0 0 
0 0 0 0 0 0 -1 1 0 
0 0 0 0 0 0 0 0 0 
0 0 0 0 0 0 0 0 0 
0 0 0 0 0 0 0 0 0 
0 0 0 0 0 0 0 0 0 
0 0 0 0 0 0 0 0 0 
0 0 0 0 1 0 0 0 0 
0 0 0 -1 1 0 0 0 0 
0 0 0 0 0 0 -1 0 0 
0 0 0 0 0 0 0 0 0 
0 0 0 0 0 0 0 0 0 
0 0 0 0 0 0 0 0 0 
0 0 0 -1 1 0 -1 1 0 
0 0 0 0 0 0 0 0 0 
-1 0 0 -1 1 0 0 0 0 
0 0 0 -1 1 0 0 0 0 
-1 0 0 0 0 -1 0 0 0 
-1 0 0 0 0 0 0 0 -1 
0 0 0 0 0 0 0 0 0 
0 0 0 -1 0 0 -1 1 0 
-1 1 0 0 1 0 -1 1 0 
0 0 -1 0 0 0 0 0 0 
0 0 0 0 0 0 0 0 -1 
0 1 0 -1 1 0 -1 1 0 
-1 1 0 -1 1 0 -1 1 0 
-1 1 0 -1 1 0 -1 1 0 
0 0 -1 -1 0 0 0 0 0 
0 0 0 0 0 0 -1 1 0 
0 1 0 -1 1 0 0 1 -1 
-1 1 0 -1 1 0 -1 1 0 
0 0 -1 -1 1 0 -1 1 0 
-1 1 0 0 0 -1 0 1 0 
-1 0 0 0 0 -1 0 0 -1 
-1 0 0 -1 1 0 -1 1 0 
-1 1 0 -1 1 0 -1 1 0 
-1 1 0 -1 1 0 -1 0 -1 
-1 1 0 -1 1 0 -1 1 0 
0 0 -1 -1 1 0 -1 1 0 
-1 0 0 0 0 -1 -1 1 0 
0 1 0 0 1 0 -1 1 0 
-1 1 0 -1 1 0 -1 1 0 
-1 1 0 -1 1 0 0 0 -1 
-1 1 0 0 0 -1 -1 1 0 
-1 0 0 0 0 -1 -1 1 0 
0 1 0 -1 1 0 0 0 0 
0 0 -1 -1 0 0 0 1 0 
0 1 0 0 1 0 -1 0 -1 
-1 1 0 -1 1 0 1 0 0 
-1 0 -1 -1 0 -1 1 0 -1 
0 0 -1 0 0 -1 0 0 -1 
-1 1 0 0 1 0 0 -1 1 
0 0 0 -1 0 1 0 0 0 
0 0 0 0 0 1 0 0 1 
0 0 1 0 0 1 0 0 0 
0 0 0 0 0 1 0 0 0 
0 0 1 0 0 1 0 0 1 
0 0 1 0 0 1 -1 0 1 
-1 0 1 -1 0 1 0 0 0 
0 0 1 0 0 0 0 0 0 
0 0 0 0 0 0 0 0 0 
0 0 1 0 0 1 -1 0 1 
0 0 1 0 0 1 0 0 1 
0 0 1 0 -1 0 0 0 1 
0 0 1 0 0 1 0 -1 1 
0 0 0 0 0 0 0 0 1 
0 0 0 0 0 1 0 0 1 
0 0 0 0 0 0 -1 0 1 
0 0 0 0 0 1 0 0 1 
0 -1 0 0 0 1 0 0 1 
0 0 0 0 0 1 0 0 0 
0 0 1 0 -1 0 0 0 1 
0 0 0 0 0 0 0 0 0 
0 0 0 0 -1 0 0 0 0 
0 0 0 0 0 0 0 -1 0 
0 0 1 0 0 1 0 0 0 
0 0 0 0 0 0 0 0 1 
0 0 0 0 0 0 0 0 1 
0 0 0 0 0 0 0 -1 0 
0 0 1 0 -1 0 0 0 0 
0 0 1 0 0 0 0 0 0 
0 0 0 0 0 0 0 0 0 
0 0 0 0 0 0 0 0 1 
0 0 0 0 0 0 0 0 1 
0 0 0 0 0 0 0 0 0 
0 0 1 0 0 0 0 -1 0 
0 0 0 0 0 0 0 -1 0 
0 -1 0 0 0 0 0 -1 0 
0 0 0 0 0 0 0 0 0 
0 0 0 0 0 0 0 0 0 
0 0 0 0 0 0 0 0 0 
0 0 0 0 0 1 0 0 0 
0 -1 0 0 -1 0 0 0 0 
0 0 0 0 0 0 0 0 0 
0 0 0 0 0 0 0 0 0 
0 0 0 0 0 0 0 -1 0 
0 -1 0 0 0 0 0 0 0 
-1 0 0 0 0 0 0 0 0 
0 0 0 0 0 0 0 0 0 
0 0 0 0 -1 0 0 0 0 
0 0 0 0 0 0 0 0 0 
0 0 0 0 0 0 0 0 0 
0 0 0 0 0 0 -1 0 0 
0 0 0 0 0 0 0 0 0 
0 0 0 0 0 0 0 -1 0 
0 0 0 0 0 0 0 0 0 
0 0 0 0 0 0 0 0 0 
0 0 0 0 0 0 0 0 0 
0 -1 0 0 0 0 0 0 0 
0 0 0 0 0 0 0 0 0 
0 0 0 0 0 0 0 0 -1 
0 0 0 0 0 0 0 0 0 
0 0 0 0 0 0 0 0 0 
0 -1 0 0 0 0 0 0 0 
0 0 0 -1 0 0 -1 0 0 
0 0 0 0 0 0 0 0 0 
0 0 0 0 0 0 0 0 0 
0 0 0 0 0 0 0 0 0 
0 0 0 0 0 0 0 0 0 
0 0 0 0 0 0 -1 0 0 
-1 0 0 0 0 -1 0 0 0 
-1 0 0 0 0 0 0 0 -1 
0 0 0 0 0 -1 0 0 0 
0 0 0 0 0 0 0 0 0 
0 0 0 -1 0 0 -1 0 0 
-1 0 0 0 0 0 0 0 -1 
-1 0 0 -1 1 0 0 0 0 
0 0 -1 0 0 0 0 0 -1 
0 0 0 0 0 0 0 0 0 
0 0 0 0 0 0 0 0 0 
0 0 0 0 0 0 0 0 0 
0 0 -1 0 0 -1 -1 0 0 
0 0 -1 0 0 0 0 0 -1 
0 0 0 0 0 0 0 0 0 
0 0 0 
v 3 1000 double
-0.022132313322 0.032048276373 -0.0044872724023 -0.017052583492 0.010512695921 -0.027466356853 0.0081547838589 -0.030986373059 -0.068749324597 
-0.024579457329 -0.0011624170839 -0.051691748404 -0.0062773571589 0.02895541149 -0.024660532498 0.0010294012285 -0.037916729574 -0.051009356481 
0.015065201693 -0.032402804516 -0.03072257637 -0.0042002618949 0.040389669404 0.012893679816 0.040388742941 0.02471115911 -0.032847159672 
0.0092443981512 -0.027896931036 -0.029700213348 0.031279320541 -0.050884785914 -0.022803891374 0.014921676127 0.047581883364 0.031382502659 
0.023389685658 -0.047101496 0.013000941048 0.053254178609 -0.062331165402 0.013191019117 -0.0034263920763 0.012000420415 -0.011365820655 
-0.024082956565 0.0013922273726 -0.049088591465 -0.013609571976 -0.058787382459 -0.034262979366 0.011076807236 -0.051768839386 -0.071038590926 
-0.0028734410649 -0.039440234471 -0.064396805988 0.0038872106936 -0.052135460371 -0.048205054466 0.0057493006163 -0.05763844168 -0.052084589237 
0.039592510701 0.014859066952 0.0005205879033 0.052034958622 0.0096101952784 -0.0053127548931 0.0060127920633 -0.043939767735 -0.0090466026443 
0.0080596340495 -0.055115577812 -0.018365030023 0.020753562167 -0.045435721882 0.013919112115 0.034237250504 0.048565388991 0.015700607867 
0.032822256856 0.0063163975363 0.037777993831 0.043129767213 -0.024681319247 0.0095594213467 0.0094145582252 -0.022781877706 -0.039157882303 
-0.017212434694 -0.066448998097 -0.049125035381 -0.0006915165508 0.02299295868 -0.010630045172 0.0058638952914 -0.017474994947 -0.07274389074 
-0.0049438372511 -0.020344074811 -0.078801080517 -0.017343489897 -0.06720169436 -0.054126761127 0.023170714623 0.02532933575 0.0036409779432 
0.024667210024 0.023331837087 -0.023811185519 0.0025525282182 -0.010278445456 -0.076922066615 -2.4844364443e-05 -0.049584218921 -0.039609441557 
0.059892807728 -0.025088702602 -0.014424062044 0.027808713114 -0.053237425066 -0.048361815136 0.050701802288 -0.018378892513 -0.0085160085252 
0.031011197169 -0.030101551364 -0.029989853977 0.040724824049 0.018607432364 -0.003166785929 0.013002222093 -0.03444522164 0.0050664932805 
0.050359873094 -0.044960401024 -0.020527583518 0.035511090929 0.026357933952 0.032935436158 0.030797587516 -0.037950584284 0.0065043088145 
0.0028122676216 -0.010476228748 -0.045767444257 0.0043049514926 -0.00043931030051 -0.047046341175 0.011668837251 -0.027185729713 -0.068405580139 
0.017778276771 0.0051082147499 -0.044156142494 -0.011387348594 -0.028285962203 -0.073959665624 0.018109302824 -0.014806759435 -0.064017111483 
-0.017315244188 -0.034247144421 -0.054652287163 0.051590832931 0.01334994625 0.0075769800985 0.022462338639 0.002689478331 -0.015685662734 
0.035727370037 -0.015278800965 -0.00051559261212 0.024986003039 -0.045615547246 -0.037887724742 0.045979704609 -0.036203640506 -0.028152648318 
0.039959441143 0.020727402645 0.00059879351909 0.045918184536 -0.021952580314 -0.0013659569714 0.043873740915 -0.027100348627 -0.024538073833 
0.035048695884 0.037467447134 0.028512213798 0.04994017922 0.021960739896 0.014893199354 0.049281245348 -0.039325538424 0.012224847795 
0.055857613855 -0.030549229869 0.02339115756 0.012722703041 -0.048286389265 -0.051070012575 0.021099160112 0.038638003706 -0.0058599440075 
0.0088957173451 -0.0029525388892 -0.044867078633 0.0043438749514 -0.029544021269 -0.068569508262 0.006392155052 -0.045124595672 -0.074864162075 
0.014313991216 0.0066067731432 -0.0075605662265 -0.00082268371925 -0.028222018267 -0.033457158386 0.016935238122 -0.056007090947 -0.046820368561 
0.041807829109 0.029047801564 0.015886809899 0.035567006112 -0.0056789254652 -0.0095327714759 0.035306422221 -0.012583642537 0.015264216146 
0.030722752879 -0.051268591956 0.006928547158 0.056545777915 -0.031344357909 0.03184794767 0.040845672804 -0.042048709325 0.029341003356 
-0.01720838133 -0.028141727569 -0.048387059259 -0.023745178066 -0.072506156942 -0.050536035044 -0.047454118672 0.0093477692972 -0.004122928908 
-0.0024120455473 0.013255603588 -0.035012835251 -0.0059323283096 -0.049947288034 -0.07793526933 -0.0073360699825 -0.047707913313 -0.080131293055 
0.0044308250617 -0.04166832619 -0.059718342564 0.036478600033 0.020508252167 0.0073920028545 0.02422963299 -0.0031455443741 -0.013408661829 
0.018162511945 -0.025281327739 -0.061813912016 0.038755309119 -0.016496771252 -0.0043836006625 0.031830720262 -0.025881832928 0.0093436940675 
0.046666914057 -0.034881156696 -0.025312038211 0.03508798657 0.014955940425 0.015752052582 0.034548160328 -0.0032013633494 0.017426776572 
-0.013665778736 -0.036619448623 -0.052220102478 -0.023194522204 0.017048763024 -0.029785264009 -0.015247402518 -0.024797875902 -0.048514860662 
-0.015363050435 -0.026670859582 -0.064791246414 -0.0064081119585 0.0090755813052 -0.0010807910882 -0.0059458059567 0.003540274008 -0.020232573007 
0.0061210453821 -0.036720008668 -0.0556963367 0.0099922191552 -0.02185144909 -0.017720024782 -0.012124002009 -0.030010980397 -0.068324341938 
0.019546983601 -0.047360128494 -0.041851608647 0.033013754828 -0.014810427853 0.012445895305 0.029861400708 0.016831184321 0.01558315353 
0.035515833639 -0.045874694182 -0.02708488931 0.045067803761 -0.00042946114241 0.020189215404 0.019547506317 -0.013267253606 -0.014103867853 
0.017991821282 -0.048892455858 -0.032167634544 0.038979874565 0.01501181721 0.009575290808 0.034792146759 -0.034652706567 0.0045504192874 
-0.03177833101 -0.040856634818 -0.046421552323 -0.0067411076135 -0.024866199718 -0.075654177974 -0.033401957516 -0.042366819774 -0.043173612536 
-0.023543784833 -0.027068751737 -0.062951633225 0.0056065013523 0.017391332796 -0.0036583355128 -0.0069975100279 0.0086103311161 -0.046684938294 
0.017732543408 -0.011286910123 -0.033083786346 -0.013986318693 -0.046225580619 -0.049474267387 -0.002343885067 -0.051988257857 -0.060162998351 
0.027856674963 0.017453910384 0.017017340934 0.038248179362 0.00082951226435 -0.023369664532 0.015830018734 -0.038114912679 -0.023182524433 
0.042326657781 0.0086888479649 0.013870993213 0.031983838103 0.013319044966 0.0089892056226 0.030372369687 -0.010039132682 0.016123799932 
-0.038413243727 0.0080208570212 -0.0091237471897 -0.036259373077 -0.039716443441 -0.077369907375 -0.037074133477 -0.025192170562 -0.077337387307 
-0.041874446571 -0.031409716607 -0.064374684071 -0.024069386979 0.013902284115 -0.007490148308 -0.015621868747 -0.013127962744 -0.044276430571 
-0.049880670359 -0.031628648008 -0.061044661182 -0.020271035735 -0.0025528847642 -0.034589934937 -0.045471738886 -0.0073036241377 -0.036177789551 
-0.025488663744 -0.042874554204 -0.052693599555 0.021949579942 0.043881237929 0.014026542898 -0.042608682894 -0.0075608855886 -0.023881456497 
0.035595539512 -0.02417888295 0.0012189691835 0.013837984798 -0.030563870893 -0.019429447488 0.032420407939 0.01174139024 0.017962648867 
0.032845675567 0.018981801613 0.0099799352059 0.017403927416 -0.015685360273 0.019916838703 0.040007291702 -0.033700693739 -0.0084449712708 
-0.037464384342 0.020333258604 0.0024373148402 -0.030815782783 -0.01793770485 -0.038012239928 -0.042037715583 -0.011026388047 -0.020178973707 