# vtk DataFile Version 4.2
Generated by LIGGGHTS
ASCII
DATASET POLYDATA
POINTS 1000 float
2.59944 0.578638 0.271544 4.61565 0.281397 0.393505 3.82619 0.771288 0.0146381 
0.0206827 1.73308 0.452221 1.52418 1.57611 0.349003 2.48659 1.8632 0.147037 
3.48682 1.85618 0.171881 4.70499 1.28429 0.463456 0.806294 3.11609 0.438725 
3.92481 2.76431 0.39494 1.95523 3.22392 0.541304 3.38587 3.57913 0.164091 
1.02857 4.23167 0.283537 2.84639 4.59711 0.129953 4.15751 4.68027 0.263372 
0.246184 0.38857 0.895006 1.59254 0.585615 0.680488 2.41098 0.511814 1.26223 
0.877356 1.08862 1.26994 3.13297 1.19967 0.84573 4.01839 0.810674 1.12191 
1.85082 1.45834 1.30099 0.850232 2.17313 0.796138 2.57063 2.19799 1.12302 
4.37214 2.07832 0.973596 0.248399 3.32028 1.27309 3.01789 3.33579 1.21851 
4.60959 3.42843 0.832293 0.472198 4.32874 1.10891 2.0134 4.24033 0.77577 
5.00216 4.36174 0.710681 3.0179 4.43764 1.29393 1.08172 0.104978 1.49961 
3.28714 0.500253 1.74592 4.70874 0.0983419 1.3752 4.8477 1.22463 1.92051 
2.73739 1.33721 1.7614 1.05433 2.1269 1.78663 3.49135 1.93318 1.42539 
4.35928 2.22483 1.96285 3.91827 2.92446 1.38273 1.51295 3.64058 1.40106 
1.40851 4.92918 1.86189 3.88633 4.63096 1.828 4.90643 4.39626 1.78368 
0.107088 0.139329 2.06289 0.951075 0.579357 2.37056 1.93181 0.0253199 2.11477 
4.52892 0.33277 2.33474 1.86059 1.02025 2.22486 2.71698 0.630719 2.57176 
3.85526 1.25939 2.08988 0.073269 1.90487 2.44695 1.92809 2.05651 2.30461 
2.93183 2.29094 2.26648 0.791813 3.11652 2.08744 1.75036 3.02742 2.47505 
3.4721 3.15359 2.55207 4.14038 3.67734 2.00279 0.969487 4.09558 2.20171 
2.21351 4.34901 2.14549 3.15779 4.08282 2.35771 0.358376 0.0719525 3.02856 
1.46077 0.562913 3.23077 3.52996 0.135962 2.89346 1.11497 1.43402 2.86662 
2.49462 1.56133 2.96351 3.45635 1.28145 3.00864 4.53297 1.52267 2.82193 
0.991938 2.42596 2.7827 1.86561 2.38464 3.26785 3.96189 2.34197 2.87336 
2.8906 2.63002 3.23545 4.66749 3.09251 2.8962 0.675728 3.92513 3.14318 
1.66567 4.26503 3.04532 2.64474 4.27786 3.26932 4.17458 3.96016 2.99589 
0.0169824 4.74911 2.72562 3.52982 4.93771 2.71997 4.97555 4.54507 2.77287 
0.539701 0.550087 3.88864 3.36586 0.0763201 3.89319 2.40523 0.663807 3.54677 
4.22449 0.79137 3.55529 0.0240283 1.86909 3.73666 1.49415 1.38932 3.79293 
2.39279 1.8059 3.9304 0.957336 2.2328 3.76708 3.52275 2.01485 3.71018 
0.225763 2.81096 3.40521 0.803709 3.39894 3.99321 1.63683 3.34658 3.44047 
3.30403 3.49279 3.52959 0.442542 4.38947 4.00061 1.12331 5.00169 3.59845 
3.5827 4.46646 3.97266 4.26672 4.9342 3.41278 1.44247 0.545219 4.32688 
2.39244 0.774599 4.55102 3.15672 1.13379 4.0098 4.72103 0.693194 4.41813 
0.574209 1.31356 4.53356 4.28085 1.58687 4.21037 1.63599 2.3927 4.48401 
0.151673 2.85928 4.52607 2.43394 2.90618 4.16819 3.35145 2.77564 4.54966 
4.33597 2.58933 4.5181 1.59762 3.38861 4.65621 4.10562 3.4878 4.13235 
1.44393 4.16551 4.04399 2.40195 3.90607 4.16581 3.27943 3.77013 4.62572 
4.68357 4.32704 4.09099 0.176015 0.417208 4.85761 1.06933 0.568151 5.31385 
2.16192 0.0422355 5.21168 3.74487 0.839748 4.76358 1.5319 1.44547 4.79069 
3.4649 1.80262 4.75049 4.52745 1.29202 5.1953 0.567049 2.13967 5.0971 
2.48093 2.16522 5.00497 0.526094 3.85751 4.84329 1.79159 4.32673 4.96774 
4.16396 4.12865 4.92416 1.00379 4.89165 4.709 3.348 4.70485 4.97889 
2.79973 0.293642 5.94753 3.9504 0.485078 5.67714 3.25632 1.20247 5.61605 
0.158097 1.29017 5.44272 1.32438 1.39142 5.82243 2.27436 1.25671 5.43427 
1.47728 2.32119 5.46946 4.26821 2.22457 5.44805 2.5659 2.72107 5.85034 
1.69918 3.31597 5.64869 3.31649 3.32226 5.51941 4.33612 3.24841 5.36713 
0.987085 4.10164 5.69691 2.37163 4.05068 5.73875 1.57155 4.8636 5.97835 
3.40926 4.73084 5.98891 0.110341 0.600229 6.16541 1.8163 0.533207 6.04009 
4.86454 0.734112 6.01242 2.32563 1.40246 6.4234 4.0706 1.33935 6.18306 
0.511102 1.94204 6.11967 4.25379 2.28452 6.45348 1.46346 2.70414 6.40401 
0.68691 3.19869 6.01367 2.91628 3.58934 6.51455 4.00702 3.25262 6.40596 
0.480531 4.02246 6.63503 1.44357 3.75648 6.55797 0.328919 4.88974 6.15771 
4.40236 4.38392 6.2432 1.70242 0.154902 7.11638 0.838778 0.876977 6.79952 
2.58125 0.860752 7.30271 3.54754 0.827424 6.95033 4.71069 0.71609 7.00035 
1.27608 1.78415 6.74876 3.23234 1.74017 6.69027 4.20007 1.5632 7.15072 
0.436866 2.81205 7.02097 1.95514 2.56344 7.26643 2.86744 2.65457 6.86668 
4.95923 3.16598 7.30565 2.25682 4.31311 6.72762 3.50247 4.36098 6.91548 
4.39871 3.98095 7.15847 1.03509 4.91493 6.87029 0.7475 0.0347082 7.46246 
4.155 0.558225 7.81771 1.6563 1.20326 7.46851 0.222025 1.54073 7.65315 
2.45931 1.78371 7.68968 1.03266 2.1869 7.63563 3.46353 2.05177 7.61852 
4.64193 2.29752 7.68919 3.97005 3.01748 7.42462 1.23012 3.25463 7.44132 
3.12162 3.59801 7.49778 0.871729 4.19166 7.54124 2.49323 4.35033 7.70768 
4.98108 3.96544 7.9779 4.23583 4.65204 7.88196 1.90945 0.403934 8.06268 
2.90028 0.313508 8.26191 3.98724 0.0342597 8.65633 0.862796 0.872533 8.03131 
2.05797 1.29907 8.48314 3.07969 1.29644 8.30427 3.99504 1.68536 8.40865 
4.841 1.28442 8.02504 0.0349596 2.35724 8.50317 1.39405 2.29746 8.56279 
1.91503 3.04227 8.14342 2.88824 2.77287 8.01287 4.08562 2.76399 8.38525 
0.39128 3.47315 8.33296 1.23739 3.94832 8.587 2.23602 4.02632 8.6181 
3.3494 4.3652 8.27827 0.460071 4.54743 8.38916 1.58475 4.72056 8.03507 
0.0733122 0.219133 9.23688 1.57178 0.505498 9.00206 3.24047 0.584661 9.22133 
0.499418 1.08166 8.94831 4.3775 0.913922 8.93027 2.9066 1.52626 9.26591 
2.43086 2.20234 8.69639 3.37637 2.37286 8.97375 0.656172 2.97777 9.16917 
2.32679 3.13082 9.05388 3.31334 3.33846 8.7203 4.26012 4.04587 8.67825 
1.22654 5.00312 8.93174 2.76369 4.783 9.00416 4.71969 4.93514 8.96978 
1.8567 0.021124 9.89837 4.79164 0.0508099 9.4363 1.03116 0.752452 9.8408 
2.0463 1.13918 9.61509 4.11532 1.7591 9.39869 0.414592 1.9339 9.46542 
1.50022 2.17783 9.55001 4.98369 2.41015 9.62059 2.78692 2.77516 9.86744 
4.13137 3.00472 9.35586 1.60858 3.65405 9.69306 0.538982 3.96925 9.4323 
3.4627 4.14993 9.34196 4.46123 3.94788 9.65298 0.0801508 4.88035 9.35165 
1.81295 4.74971 9.93867 0.140262 5.24546 0.513553 1.22243 6.0745 0.201705 
3.84116 5.68322 0.169913 2.22817 6.32232 0.309747 3.18768 6.3105 0.595085 
4.70935 6.32433 0.323263 0.777963 6.95367 0.373513 3.46325 7.17095 0.166478 
2.77141 7.86092 0.401083 3.96391 7.95641 0.579723 0.607352 8.74668 0.304421 
2.32749 8.96611 0.432084 4.39072 8.96946 0.325153 0.917728 9.70994 0.15492 
1.11509 5.0627 0.885975 1.93308 5.57117 1.29742 2.70287 5.43573 0.673741 
3.67385 5.15597 1.00323 0.630543 5.9335 1.04859 0.148374 6.78958 1.23926 
4.51727 6.33929 1.30453 1.72552 7.03875 0.794026 2.6886 7.06452 1.07346 
4.71653 7.25041 0.92011 0.327753 7.7242 0.831867 1.51745 8.48328 0.794203 
2.35318 8.15846 1.26654 3.57491 8.8421 0.88984 0.512638 9.41798 1.0398 
1.61678 9.50328 0.896411 2.74912 9.54891 1.15575 3.76661 9.83285 0.688521 
0.397265 5.01618 1.83937 4.51481 5.36872 1.55119 3.50745 5.6725 1.84429 
1.30468 6.50165 1.52514 2.34339 6.32541 1.81714 3.59077 6.70753 1.41993 
2.22561 7.37059 1.9122 4.1959 7.32303 1.9282 1.16908 7.50032 1.49933 
3.42326 7.76134 1.40076 4.51478 8.11073 1.40066 0.561115 8.46889 1.45952 
1.50519 8.3961 1.79031 3.14187 8.67997 1.77711 4.54738 9.109 1.33441 
3.73344 9.54853 1.71447 2.70466 5.21671 2.22875 4.36224 5.47192 2.57257 
0.516845 6.00877 2.03982 1.57767 5.90045 2.30102 3.08259 6.82037 2.27437 
4.09238 6.37754 2.24536 0.436643 7.07217 2.15423 1.39412 6.94831 2.41621 
0.773932 7.99538 2.34248 3.2621 7.79802 2.38829 4.0714 8.61684 2.14059 
0.614155 9.2754 2.04919 2.25749 8.93659 2.16708 2.89212 9.70679 2.23142 
0.874209 5.29142 2.67416 1.96046 5.21692 2.96023 0.0739988 5.68072 3.24205 
3.1517 5.86216 2.87319 0.811325 6.29192 2.95356 2.24799 6.51224 2.86937 
4.42472 6.56006 3.17082 0.74435 7.28181 3.11646 3.16261 7.18577 3.20179 
4.06909 7.48817 2.90692 1.93087 7.54537 3.01423 0.0685082 8.71783 2.67501 
1.16032 8.18176 3.24725 2.63092 8.26276 3.01755 4.42585 8.40604 3.08176 
1.83993 8.89478 3.07478 3.32253 8.94376 2.77247 1.21987 9.6398 2.75814 
2.22855 9.81582 3.04704 4.26854 9.42826 2.76696 2.40659 5.84549 3.59909 
4.52884 5.81208 3.82671 0.190441 6.6613 3.67168 1.41952 6.6486 3.6627 
3.47781 6.30495 3.73142 2.34746 7.01009 3.75382 3.98823 7.15705 3.84753 
2.24848 8.07634 3.92253 4.539 7.98495 3.98398 3.52852 8.13941 3.44112 
0.41798 9.13315 3.51489 2.79101 9.00292 3.67629 3.88681 9.05857 3.62327 
4.92077 8.94324 3.99073 1.15047 9.76916 3.75775 4.76958 9.91694 3.48215 
0.057873 5.51378 4.22798 2.01576 5.04024 4.04855 3.02418 5.27749 4.152 
3.96112 5.33238 4.49836 1.00089 5.8553 4.10478 1.95364 6.04378 4.46837 
0.761212 6.82952 4.47537 2.92759 6.61832 4.53098 4.79545 6.57173 4.43037 
0.376278 7.67228 4.09903 1.37517 7.55914 4.07619 3.09041 7.56192 4.13333 
0.937869 8.49783 4.16955 3.72315 8.24343 4.50135 1.76861 9.04397 4.06102 
3.3721 9.17942 4.47348 2.4163 9.80508 4.14372 4.09665 9.91721 4.60388 
1.56022 5.57581 5.26669 2.42652 5.10587 4.95794 3.3107 5.67871 5.27727 
4.7598 5.72244 4.95711 2.3645 6.3461 5.32857 3.87788 6.39135 4.78673 
1.65312 6.91782 4.91889 3.3224 7.35812 5.08656 4.27669 7.35116 4.7853 
0.354588 8.01872 5.23264 1.35156 8.0384 4.97182 2.35771 7.62909 4.90792 
2.47521 8.69384 4.67596 4.72883 8.1306 5.21902 0.806488 8.90707 5.15128 
4.34523 8.97475 4.84022 1.35378 9.65178 4.76784 3.15842 9.96692 5.05158 
0.498718 5.46388 5.35636 2.35549 5.5071 5.87267 4.19541 5.07458 5.46913 
4.77007 5.7903 5.95524 0.758306 6.43187 5.39302 1.56683 6.29569 5.96709 
3.81405 6.33269 5.87373 4.68295 6.66213 5.441 1.03145 7.36433 5.64132 
1.96947 7.4985 5.964 2.86346 6.99343 5.90489 2.89915 7.99268 5.88831 
4.47564 7.50494 5.96047 2.05206 8.42884 5.5846 3.77679 8.28504 5.49918 
1.61371 9.34945 5.69788 2.94175 8.92519 5.52969 0.440686 9.81255 5.60881 
3.67711 9.5348 5.82741 4.5962 9.74493 5.48954 4.05719 5.32841 6.49416 
0.0393331 6.17388 6.04348 0.86018 5.8302 6.50036 3.15342 5.75255 6.42419 
0.697895 6.81944 6.43265 2.37173 6.38775 6.55486 4.414 6.56636 6.64097 
[...]
POINT_DATA 1000
FIELD FieldData 7
id 1 1000 int
25 809 535 7 909 874 450 45 531 
300 20 892 605 601 129 26 24 62 
541 32 69 626 501 130 939 610 142 
990 111 109 616 521 561 48 52 568 
36 504 288 927 759 600 365 624 650 
71 551 49 574 37 588 43 17 418 
404 526 255 762 175 841 272 872 644 
562 59 30 70 61 591 508 283 776 
263 674 767 358 752 419 356 659 657 
545 75 663 581 302 566 589 42 50 
765 744 269 766 866 261 749 681 197 
74 87 377 570 235 294 755 84 79 
592 276 408 769 286 783 207 670 78 
82 598 583 105 846 68 584 764 814 
215 281 669 357 851 114 707 104 608 
578 515 110 296 571 698 285 322 816 
284 699 833 838 554 268 202 12 97 
278 577 510 797 580 307 214 123 576 
279 782 868 512 546 277 72 128 594 
558 702 630 28 323 208 47 557 715 
543 506 44 274 532 602 529 567 742 
658 511 13 552 15 528 540 556 559 
867 236 505 11 27 393 120 121 596 
503 590 125 724 544 170 735 747 539 
542 162 604 21 148 139 107 634 729 
63 993 31 67 53 514 547 656 922 
424 603 599 612 134 579 117 88 81 
234 77 635 855 593 696 718 839 243 
548 362 5 73 597 242 147 115 845 
370 716 625 963 137 133 22 150 640 
534 80 58 849 631 646 240 138 144 
174 633 884 140 750 3 29 560 654 
538 899 651 378 717 141 8 108 160 
173 638 502 167 661 51 380 979 369 
154 375 639 629 648 149 402 636 905 
682 662 35 684 187 169 188 46 415 
623 254 384 647 171 157 180 275 172 
163 192 301 40 673 349 781 262 177 
193 788 791 917 190 39 426 920 155 
199 565 182 342 582 354 902 292 664 
410 297 652 945 660 446 186 198 637 
676 795 178 291 195 840 406 789 164 
159 919 321 153 161 470 948 675 474 
456 181 830 685 347 678 858 836 680 
453 314 211 933 317 916 935 800 701 
335 666 856 329 85 330 573 737 703 
940 807 91 709 196 857 334 689 686 
200 126 822 463 10 332 66 736 831 
219 938 837 971 458 954 203 870 363 
372 256 988 337 103 628 976 691 206 
972 563 224 996 315 688 961 969 863 
708 722 223 229 585 999 225 820 471 
303 210 713 994 246 875 507 555 745 
86 586 152 100 237 238 99 714 491 
694 727 997 231 18 477 861 479 33 
533 486 132 391 523 9 92 879 509 
252 924 399 683 116 668 136 146 981 
522 490 873 860 1 439 655 420 847 
364 653 761 854 484 14 405 2 101 
524 41 575 881 843 60 519 469 289 
316 368 96 889 385 518 896 264 692 
311 891 194 449 815 768 251 620 615 
862 748 83 413 386 23 102 929 777 
758 345 970 423 431 290 811 812 928 
257 89 952 295 904 757 719 763 801 
774 468 310 165 304 253 877 796 780 
798 790 832 258 536 228 834 775 712 
802 56 425 452 324 461 778 333 427 
806 779 677 94 818 819 808 695 743 
306 478 318 476 443 813 320 65 665 
55 113 352 106 553 340 325 351 738 
489 985 829 184 428 312 462 305 848 
355 308 220 361 359 564 4 1000 247 
343 6 442 967 667 710 338 499 209 
706 191 230 326 549 859 826 810 38 
595 371 346 473 957 700 690 488 704 
241 587 217 513 95 64 373 57 287 
880 741 212 496 222 221 733 201 482 
725 244 205 54 989 900 216 270 118 
527 168 825 227 280 245 895 726 271 
982 641 122 119 226 642 672 213 487 
720 379 732 746 721 530 112 572 248 
607 980 606 156 124 643 127 869 299 
516 619 466 956 350 480 493 968 341 
233 977 328 730 520 723 852 392 918 
617 613 794 76 740 517 890 494 498 
475 844 853 611 975 995 614 366 367 
145 267 492 166 249 885 401 973 396 
495 912 817 986 621 383 786 842 395 
728 232 260 360 983 609 485 265 865 
773 376 569 282 387 293 753 886 143 
437 731 432 754 771 987 897 770 273 
250 400 394 756 16 34 645 151 259 
894 984 882 381 390 772 500 382 871 
921 878 901 784 903 914 403 907 398 
793 389 876 887 898 893 397 185 298 
785 417 436 649 923 942 430 411 313 
422 883 414 751 906 412 888 908 926 
438 433 457 189 353 319 951 679 992 
409 309 435 925 388 787 407 416 910 
429 937 934 792 448 331 835 440 459 
915 799 434 943 803 950 941 183 821 
913 739 447 467 978 348 965 421 946 
944 455 460 931 204 441 693 827 949 
176 179 671 451 483 550 336 947 497 
454 964 444 697 959 218 537 711 936 
974 850 960 930 824 958 864 804 481 
98 998 687 705 622 911 618 627 158 
266 90 805 465 472 932 823 953 464 
339 344 374 966 734 632 19 135 131 
525 760 955 93 962 445 828 327 239 
991 
type 1 1000 int
1 2 2 1 2 2 1 1 2 
1 1 2 2 2 1 1 1 1 
2 1 1 2 2 1 2 2 1 
2 1 1 2 2 2 1 1 2 
1 2 1 2 2 2 1 2 2 
1 2 1 2 1 2 1 1 1 
1 2 1 2 1 2 1 2 2 
2 1 1 1 1 2 2 1 2 
1 2 2 1 2 1 1 2 2 
2 1 2 2 1 2 2 1 1 
2 2 1 2 2 1 2 2 1 
1 1 1 2 1 1 2 1 1 
2 1 1 2 1 2 1 2 1 
1 2 2 1 2 1 2 2 2 
1 1 2 1 2 1 2 1 2 
2 2 1 1 2 2 1 1 2 
1 2 2 2 2 1 1 1 1 
1 2 2 2 2 1 1 1 2 
1 2 2 2 2 1 1 1 2 
2 2 2 1 1 1 1 2 2 
2 2 1 1 2 2 2 2 2 
2 2 1 2 1 2 2 2 2 
2 1 2 1 1 1 1 1 2 
2 2 1 2 2 1 2 2 2 
2 1 2 1 1 1 1 2 2 
1 2 1 1 1 2 2 2 2 
1 2 2 2 1 2 1 1 1 
1 1 2 2 2 2 2 2 1 
2 1 1 1 2 1 1 1 2 
1 2 2 2 1 1 1 1 2 
2 1 1 2 2 2 1 1 1 
1 2 2 1 2 1 1 2 2 
2 2 2 1 2 1 1 1 1 
1 2 2 1 2 1 1 2 1 
1 1 2 2 2 1 1 2 2 
2 2 1 2 1 1 1 1 1 
2 1 1 2 1 1 1 1 1 
1 1 1 1 2 1 2 1 1 
1 2 2 2 1 1 1 2 1 
1 2 1 1 2 1 2 1 2 
1 1 2 2 2 1 1 1 2 
2 2 1 1 1 2 1 2 1 
1 2 1 1 1 1 2 2 1 
1 1 2 2 1 2 2 2 2 
1 1 1 2 1 2 2 2 2 
1 2 2 1 1 1 2 2 2 
2 2 1 2 1 2 1 2 2 
1 1 2 1 1 1 1 2 2 
1 2 2 2 1 2 1 2 1 
1 1 2 1 1 2 2 2 1 
2 2 1 2 1 2 2 2 2 
2 2 1 1 2 2 1 2 1 
1 1 2 2 1 2 2 2 2 
1 2 1 1 1 1 1 2 1 
2 2 2 1 1 1 2 1 1 
2 1 1 1 2 1 1 2 2 
1 2 1 2 1 2 1 1 2 
2 1 2 2 1 1 2 1 2 
1 2 2 2 1 1 1 1 1 
2 1 2 2 2 1 2 1 1 
1 1 1 2 1 2 2 1 2 
1 2 1 1 2 2 1 2 2 
2 2 1 1 1 1 1 2 2 
2 1 2 1 1 1 2 2 2 
1 1 2 1 2 2 2 2 2 
2 1 1 1 1 1 2 2 2 
2 2 2 1 2 1 2 2 2 
2 1 1 1 1 1 2 1 1 
2 2 2 1 2 2 2 2 2 
1 1 1 1 1 2 1 1 2 
1 1 1 1 2 1 1 1 2 
1 2 2 1 1 1 1 1 2 
1 1 1 1 1 2 1 2 1 
1 1 1 2 2 2 1 1 1 
2 1 1 1 2 2 2 2 1 
2 1 1 1 2 2 2 1 2 
1 2 1 2 1 1 1 1 1 
2 2 1 1 1 1 2 1 1 
2 1 1 1 2 2 1 1 1 
2 1 2 1 1 1 2 2 1 
2 2 1 1 1 2 2 1 1 
2 1 2 2 2 2 1 2 1 
2 2 2 1 1 2 1 2 1 
2 2 1 2 1 1 1 2 1 
1 2 1 2 2 2 2 1 2 
2 2 2 1 2 2 2 1 1 
1 2 2 2 2 2 2 1 1 
1 1 1 1 1 2 1 2 1 
1 2 2 2 2 1 2 2 1 
2 1 1 1 2 2 1 1 2 
2 1 2 1 1 1 2 2 1 
1 2 1 2 2 2 2 2 1 
1 1 1 2 1 1 2 1 1 
2 2 2 1 1 2 1 1 2 
2 2 2 2 2 2 1 2 1 
2 1 2 2 2 2 1 1 1 
2 1 1 2 2 2 1 1 1 
1 2 1 2 2 1 2 2 2 
1 1 1 1 1 1 2 2 2 
1 1 1 2 1 2 1 1 2 
1 2 2 2 1 1 2 1 1 
2 2 1 2 2 2 2 1 2 
2 2 1 1 2 1 2 1 2 
2 1 1 2 1 1 2 2 2 
1 1 2 1 1 2 1 2 1 
1 2 1 2 2 1 2 2 2 
2 2 2 2 2 2 2 2 1 
1 2 2 2 2 2 2 2 1 
1 1 2 1 1 2 2 2 1 
1 1 1 2 2 2 1 1 1 
2 2 2 1 2 1 2 1 1 
2 
i 3 1000 int
0 0 0 0 0 0 0 0 0 
0 0 0 1 0 0 1 0 0 
1 0 0 0 0 0 0 0 0 
1 0 0 0 0 0 1 0 0 
0 0 1 0 0 1 0 0 0 
0 0 0 0 0 0 0 0 0 
0 0 0 0 0 0 0 0 0 
0 0 0 0 0 0 0 0 0 
1 0 0 0 0 1 0 0 0 
1 0 1 0 0 1 0 0 1 
0 0 0 0 0 0 0 0 0 
0 0 0 0 0 0 0 0 0 
0 0 0 0 0 0 1 0 0 
1 0 0 1 0 0 0 0 1 
1 0 1 0 0 0 0 0 0 
0 0 0 0 0 0 0 0 0 
0 0 0 0 0 0 0 0 0 
0 0 0 0 0 0 1 0 0 
1 0 0 0 0 0 1 0 0 
1 0 0 0 0 0 1 0 1 
1 0 0 1 0 0 0 1 0 
0 0 0 0 0 0 0 0 0 
0 0 0 0 0 0 0 0 0 
0 0 0 1 0 0 1 0 0 
1 0 0 0 0 0 1 0 0 
1 0 1 1 0 0 1 0 0 
1 0 1 0 0 0 0 0 0 
0 0 0 0 0 0 0 1 0 
0 0 0 1 0 0 0 0 0 
0 0 0 0 0 0 0 0 0 
1 0 0 1 0 0 1 0 0 
1 0 0 1 0 1 1 0 0 
1 0 0 0 0 0 0 1 0 
0 0 0 0 0 0 0 0 0 
0 0 0 0 0 0 1 0 0 
1 0 0 0 0 0 0 0 0 
0 0 0 1 0 0 1 0 0 
1 0 0 1 0 0 1 0 0 
0 0 0 0 1 0 0 0 0 
0 0 0 0 0 0 0 0 0 
0 0 0 0 0 0 0 0 0 
0 0 0 1 0 0 1 0 0 
0 0 0 1 0 0 0 0 0 
0 0 0 0 0 0 0 0 0 
0 1 0 0 0 0 0 0 0 
0 0 0 0 0 -1 0 0 0 
1 0 0 0 0 0 0 0 0 
1 0 0 1 0 0 1 0 0 
1 0 0 0 1 0 0 0 0 
0 0 0 0 0 -1 0 0 -1 
0 1 0 0 0 -1 0 0 0 
1 0 0 0 0 0 0 0 -1 
1 0 0 0 0 0 1 0 0 
0 0 0 0 0 0 0 0 0 
0 0 -1 0 0 -1 0 0 0 
0 0 -1 0 0 -1 0 0 -1 
0 0 0 0 0 0 0 0 0 
0 0 -1 0 0 0 0 0 -1 
0 0 -1 1 0 0 0 1 0 
0 0 -1 0 0 -1 0 1 0 
0 0 -1 0 0 -1 0 0 -1 
0 0 -1 0 0 -1 0 0 0 
0 0 -1 0 0 0 0 0 0 
0 0 -1 0 0 -1 0 0 -1 
0 0 -1 0 0 -1 0 0 -1 
0 0 -1 0 0 -1 0 0 -1 
0 0 0 0 1 0 0 0 -1 
0 0 -1 0 0 -1 1 0 -1 
0 0 0 0 0 0 0 0 0 
0 0 -1 0 0 0 0 0 0 
0 1 0 0 0 -1 0 1 -1 
0 1 0 0 0 -1 0 0 -1 
0 0 -1 0 0 -1 0 0 0 
0 0 -1 0 0 -1 0 0 -1 
0 0 0 0 0 -1 0 0 0 
0 0 -1 0 1 0 0 0 -1 
0 0 -1 0 0 -1 0 0 -1 
0 0 -1 0 0 -1 1 0 -1 
1 0 -1 0 0 0 0 0 0 
0 0 -1 0 0 -1 0 0 0 
0 0 0 0 0 1 0 0 1 
0 0 1 0 0 1 0 0 0 
0 -1 1 0 0 1 0 0 1 
0 0 1 0 -1 1 0 0 1 
0 -1 0 0 -1 1 0 -1 0 
0 0 1 0 0 1 0 0 1 
0 0 0 0 0 1 1 0 1 
0 -1 1 0 0 1 0 0 0 
0 0 1 0 0 0 0 0 0 
0 -1 0 0 0 0 0 0 0 
0 -1 0 0 -1 0 0 -1 0 
1 0 1 0 0 0 0 0 0 
0 0 1 0 0 0 0 0 0 
0 0 0 0 0 0 1 0 0 
0 0 0 0 -1 0 0 -1 0 
0 -1 0 0 -1 0 0 0 0 
0 -1 0 1 0 0 0 0 0 
1 0 1 0 0 1 0 0 0 
0 -1 0 0 0 1 0 0 0 
0 0 0 0 0 0 0 -1 0 
0 0 0 0 0 0 0 -1 0 
1 0 1 1 0 1 1 0 1 
0 0 0 1 0 1 0 0 0 
0 0 0 0 0 0 0 0 0 
0 0 0 0 0 0 1 0 0 
0 0 0 0 0 0 0 -1 0 
0 0 0 0 0 0 0 0 0 
0 0 0 0 -1 0 1 0 0 
0 0 0 1 0 0 1 0 0 
0 0 0 0 0 0 0 0 0 
0 0 0 0 -1 0 0 0 0 
0 0 0 0 0 0 0 -1 0 
0 -1 0 0 0 0 0 -1 0 
1 0 0 1 0 0 0 0 0 
0 0 0 1 0 0 1 0 0 
1 0 0 0 0 0 0 -1 0 
1 0 0 1 0 0 0 0 0 
0 0 0 0 -1 0 0 0 0 
0 -1 0 0 -1 0 0 -1 0 
1 0 0 1 0 0 0 0 0 
0 0 0 1 0 0 0 0 0 
1 0 0 0 0 0 0 0 0 
0 0 0 0 0 0 0 0 0 
0 0 0 0 -1 0 0 0 0 
0 -1 0 0 0 0 0 -1 0 
1 0 0 1 0 0 0 0 0 
0 0 0 1 0 0 1 0 0 
0 0 0 0 0 0 1 0 0 
1 0 0 0 0 0 0 0 0 
0 0 0 0 0 0 0 -1 0 
0 0 0 0 -1 0 0 0 0 
0 -1 0 0 -1 0 0 0 0 
1 0 0 1 0 0 0 0 0 
1 0 0 1 0 0 0 0 0 
0 0 0 1 0 0 0 0 0 
0 -1 0 0 0 0 0 -1 0 
0 -1 0 0 -1 0 0 -1 0 
0 0 0 0 0 0 0 0 0 
0 0 0 1 0 0 0 0 0 
0 0 0 0 0 0 0 -1 0 
0 -1 0 0 0 0 0 0 0 
0 0 0 0 -1 0 0 -1 0 
0 0 0 0 -1 -1 1 0 0 
0 0 0 0 0 0 1 0 0 
0 0 0 0 0 0 1 0 0 
0 0 0 0 0 0 0 0 0 
0 0 0 0 -1 0 0 -1 0 
0 -1 0 0 -1 -1 0 0 0 
1 0 0 0 0 0 0 0 -1 
0 0 0 0 0 0 0 0 0 
0 0 0 0 0 0 0 0 0 
0 0 0 1 0 0 0 0 0 
0 0 0 0 0 0 0 -1 0 
0 0 0 0 0 0 0 0 0 
0 0 0 0 0 0 0 0 0 
0 0 0 0 -1 0 0 0 0 
1 0 0 0 0 0 0 0 0 
0 0 0 0 0 0 0 0 -1 
0 -1 -1 0 -1 -1 0 -1 -1 
0 0 0 0 0 0 0 0 -1 
0 0 0 0 0 0 0 0 0 
0 0 0 0 0 0 0 0 0 
0 0 0 0 0 0 0 0 0 
0 0 0 0 -1 -1 0 0 0 
0 -1 0 0 0 0 0 -1 -1 
0 -1 -1 0 1 1 -1 1 0 
0 1 0 -1 0 0 -1 0 0 
0 0 0 0 1 0 -1 0 0 
0 0 0 1 0 0 0 1 0 
0 0 0 -1 0 1 0 0 0 
-1 1 0 -1 1 0 0 1 1 
-1 0 0 0 1 1 0 1 0 
0 0 1 -1 0 0 0 0 0 
0 0 0 0 0 0 0 0 1 
0 0 1 0 0 0 0 0 0 
0 0 1 0 1 1 -1 0 0 
0 1 0 -1 0 0 0 0 0 
0 0 0 -1 0 0 0 0 0 
0 1 0 0 0 1 0 0 0 
-1 0 0 0 0 0 0 0 0 
0 0 0 0 0 1 0 0 0 
0 1 0 0 1 0 -1 0 0 
0 1 0 0 0 0 0 0 0 
0 0 0 0 1 0 0 0 0 
0 0 0 0 0 0 0 0 0 
0 0 0 0 0 0 0 0 0 
0 0 1 0 0 0 0 0 0 
0 1 0 0 1 0 -1 0 0 
0 0 0 0 0 0 0 0 0 
0 0 0 0 0 0 0 0 0 
0 0 0 0 0 0 0 0 0 
0 0 0 0 0 0 0 1 0 
0 0 0 0 0 0 0 0 0 
0 0 0 0 1 0 0 0 0 
0 0 0 0 0 0 0 0 0 
0 0 0 0 0 0 0 0 0 
0 0 0 0 0 0 0 0 0 
0 0 0 0 0 0 0 0 0 
0 0 0 0 0 0 0 0 0 
0 0 0 -1 0 0 0 0 0 
0 0 0 0 0 0 0 0 0 
0 0 0 0 0 0 0 0 0 
0 0 0 0 0 0 0 0 0 
0 0 0 0 0 0 0 1 0 
0 0 0 0 0 0 -1 1 0 
0 0 0 0 0 0 0 0 0 
0 0 0 0 0 0 0 0 0 
0 0 0 0 0 0 0 0 0 
0 0 0 0 0 0 0 0 0 
0 0 0 -1 0 0 -1 1 0 
-1 0 0 0 0 0 0 0 0 
0 0 0 -1 0 0 0 0 0 
0 0 0 0 0 0 0 0 0 
0 0 0 0 0 0 0 0 0 
0 0 0 0 0 0 0 0 0 
0 1 0 0 0 0 0 0 0 
0 0 0 0 0 0 -1 1 0 
0 0 0 0 0 0 -1 0 0 
0 0 -1 0 0 0 0 0 0 
0 0 0 0 0 -1 0 0 0 
0 0 0 -1 1 0 -1 1 0 
0 0 0 0 1 0 -1 1 0 
-1 1 0 -1 1 0 -1 1 0 
0 0 0 -1 0 0 0 0 0 
0 0 0 0 0 0 0 0 -1 
0 0 0 0 0 0 0 0 0 
0 1 0 0 1 0 -1 1 0 
-1 1 0 0 1 0 -1 1 0 
-1 1 0 -1 0 0 -1 1 0 
0 0 -1 -1 0 0 -1 0 0 
0 0 0 -1 0 0 0 0 -1 
0 1 -1 -1 1 0 -1 1 0 
0 1 0 -1 1 0 -1 1 0 
-1 1 0 -1 1 0 0 1 0 
-1 1 0 -1 1 0 -1 1 0 
0 0 -1 0 1 0 0 0 -1 
-1 1 0 0 0 -1 -1 0 0 
0 0 -1 0 0 -1 0 0 0 
-1 1 0 0 0 -1 -1 1 0 
0 1 -1 -1 1 0 0 0 -1 
0 1 0 0 0 -1 -1 0 0 
-1 0 0 -1 1 0 0 0 -1 
0 0 -1 -1 1 0 0 1 0 
-1 1 0 0 1 0 -1 1 0 
0 0 -1 -1 1 0 -1 0 -1 
-1 0 0 0 0 -1 -1 1 0 
-1 0 0 0 1 0 -1 0 0 
0 0 -1 -1 0 0 0 0 -1 
-1 0 0 0 0 1 0 0 0 
0 0 0 0 0 0 0 0 1 
0 0 1 0 0 1 0 0 1 
0 0 1 0 0 1 0 0 1 
-1 0 1 0 0 1 0 0 1 
-1 0 1 -1 -1 0 0 0 1 
0 0 1 0 0 0 0 0 0 
0 0 0 0 0 0 0 0 0 
-1 0 1 0 0 1 0 0 0 
0 0 0 0 0 1 0 0 1 
0 0 1 0 0 1 0 0 1 
-1 0 0 0 0 1 0 0 1 
0 0 0 0 0 1 0 0 1 
0 0 0 0 0 0 0 0 1 
0 0 0 0 0 0 0 0 0 
0 0 0 0 0 1 0 0 0 
0 0 1 0 0 0 0 -1 0 
0 0 1 -1 0 0 0 0 0 
0 0 0 0 0 1 0 0 0 
0 0 1 0 0 1 0 0 0 
0 0 1 0 0 1 0 0 1 
0 0 1 0 0 0 0 0 1 
0 -1 0 0 0 1 0 -1 0 
0 0 0 0 0 0 0 0 0 
0 0 0 0 0 0 0 0 0 
0 0 0 0 0 1 0 0 0 
0 0 0 0 0 0 0 0 1 
0 0 0 0 0 0 0 0 0 
0 -1 0 0 0 0 0 0 0 
0 -1 0 -1 -1 0 -1 -1 0 
0 0 0 0 0 0 0 0 0 
0 0 0 0 0 1 0 0 0 
0 0 0 0 0 0 0 0 0 
0 0 1 0 0 0 0 0 0 
0 0 0 0 0 0 0 0 0 
0 -1 0 0 0 0 0 0 0 
0 0 0 0 0 0 0 0 0 
0 0 0 0 0 0 0 0 0 
0 0 0 0 0 0 0 0 0 
0 0 0 -1 0 0 0 -1 0 
0 -1 0 0 0 0 0 0 0 
-1 0 0 0 0 0 0 0 0 
0 0 0 0 0 0 0 0 0 
0 0 0 0 0 0 0 0 0 
0 -1 0 0 0 0 0 0 0 
0 0 0 0 0 0 0 0 0 
0 0 0 0 0 0 0 0 0 
-1 0 0 0 -1 0 0 -1 0 
0 0 0 -1 0 0 0 0 0 
0 0 0 0 0 0 0 0 0 
0 0 0 0 0 0 0 -1 0 
0 0 0 0 0 0 0 0 0 
0 0 0 0 0 0 0 0 0 
0 -1 0 0 0 0 0 -1 0 
0 0 0 0 0 0 0 0 0 
0 0 0 0 0 0 0 0 0 
0 0 0 0 -1 0 0 0 0 
0 0 0 -1 0 0 0 -1 0 
0 0 0 0 0 0 0 0 0 
0 0 0 0 0 0 0 0 0 
0 0 0 0 0 0 0 0 0 
0 0 0 0 0 0 0 0 0 
0 0 0 -1 0 0 0 0 0 
-1 0 0 0 -1 0 0 0 0 
-1 0 0 -1 0 0 -1 0 0 
0 0 0 0 0 0 0 0 -1 
0 0 0 0 0 0 0 0 0 
0 0 0 0 0 0 0 0 0 
-1 0 0 0 0 0 -1 0 0 
0 0 -1 0 0 0 0 0 0 
0 0 0 0 0 0 0 0 0 
0 0 0 0 0 0 0 0 0 
0 0 0 0 0 0 0 0 0 
-1 0 0 0 0 0 -1 0 0 
-1 0 0 0 0 -1 0 0 -1 
0 0 -1 0 0 -1 0 0 -1 
0 0 -1 -1 0 0 0 0 0 
0 0 0 0 0 0 0 0 0 
0 0 0 0 0 0 0 0 0 
0 0 0 0 0 0 0 0 0 
0 0 0 -1 0 0 0 0 -1 
0 0 -1 0 0 -1 0 0 -1 
0 0 -1 0 0 -1 0 0 0 
-1 0 0 0 0 0 0 0 0 
0 0 0 0 0 0 -1 0 0 
0 0 0 
v 3 1000 double
-0.032618468282 -0.020635390895 -0.081674904476 -0.055735369589 -0.049646741402 -0.036571892368 -0.03647242654 -0.025955023483 -0.068701254742 
-0.0094314807005 0.032218069186 0.00078366129578 -0.044020000762 -0.0062982070183 -0.051839919356 -0.019719044638 -0.0017169689819 -0.03797760712 
-0.018848707266 -0.0099318072456 -0.072260412343 0.0060985389451 -0.035880912315 -0.10912281697 0.00041909115302 0.065628074845 0.031626286589 
0.070983243022 -0.025778085978 -0.10686707261 0.04438625308 -0.016032829226 0.0052843838768 0.017995837689 -0.032762010395 -0.033993148782 
0.025907367178 0.032922636769 0.0035418709412 0.063721584739 -0.070112625022 0.021683261105 0.065803031764 -0.10617256021 -0.015565209657 
-0.050170193365 0.048146465573 0.047117283807 -0.046200623055 0.0025596899807 -0.056618942556 -0.017617546654 -0.048615609891 -0.093395218443 
0.0063452167763 0.070137035342 -0.047807457479 0.010357305432 -0.050190274147 -0.086933133876 0.0045330978529 -0.095887657195 -0.11826847275 
0.032806564419 -0.0095762685937 -0.073506758322 0.0015216105757 0.03504678366 -0.026331367205 0.071296802432 -0.030598672568 -0.095063636495 
0.041422250281 -0.035883031969 -0.093676128121 0.01433389944 0.076741849506 0.05247351439 0.069841824868 -0.093473784476 -0.041697163879 
0.12014551894 -0.12332476287 -0.090250474499 0.054579076694 0.049225091555 0.023771675299 0.042404481309 -0.0022746510552 0.05423605933 
0.059513504433 -0.086580896286 -0.10011903666 0.073008216898 -0.089733219188 -0.0094292681077 -0.0065257936665 0.048275211861 -0.068853999382 
-0.0097037149035 -0.075889344967 -0.11150626379 -0.0045783091226 -0.10163664528 -0.04974148834 0.007173282674 -0.12635333557 -0.087074870547 
0.030296944071 -0.065108034008 -0.069033189807 0.0049372752955 -0.018043727125 -0.023967824192 0.039684289097 -0.062622634725 -0.095349631872 
0.0267072214 -0.10051132391 -0.081580540687 0.099744163296 -0.07019895784 -0.097484608879 0.068354905938 -0.025449842529 0.059066559713 
0.081425965254 0.021841897258 0.071563230854 0.064102442605 -0.10539384424 -0.011119096074 0.088798676657 -0.061242204308 -0.043356103732 
-0.051636555943 0.018885996328 0.004520911097 -0.025881834987 0.0092876434761 -0.050246833349 -0.0044493631073 -0.01643043679 -0.079687635934 
0.0080821053913 -0.054672265323 -0.05403778167 -0.0046044467582 -0.011013913551 -0.10089741748 -0.0046813748789 0.0069827042123 -0.095969425166 
0.00841964485 -0.091303074224 -0.095513019746 0.020119555372 0.03168757503 -0.0082121256054 0.042323044752 -0.007364442702 -0.071597670837 
0.10203048555 -0.11726815521 -0.031610722717 0.085118666004 0.028902317572 -0.0047097147605 0.061649210403 -0.018934452341 0.058803851902 
0.057569178254 -0.074296837707 -0.062786609909 0.098240419735 -0.092923772382 -0.067535183128 0.049490118196 0.026208692472 0.048713945787 
0.077309051217 -0.074989071193 0.0010543230667 0.041815009021 -0.079352063671 -0.0088398850033 0.010951327547 0.028861706411 -0.010242084327 
-0.013971748862 -0.017558854589 -0.057477050011 -0.0071752399366 -0.032816548069 -0.10986047832 0.017346680144 0.0015687824546 -0.043862186015 
0.024195203792 -0.022102893205 -0.065698558222 0.01994395728 -0.030427692885 -0.089224771588 0.029042217035 -0.098236798697 -0.092622250056 
0.038025560714 0.0085082509191 -0.011627297184 0.059096015824 0.0065047347372 -0.046319614331 0.055075210872 -0.077789719336 -0.077985015547 
0.017044207876 -0.050385144735 -0.10835349321 0.029147599763 -0.060951587496 -0.08770202194 0.024296515555 0.036007753922 0.024692344107 
0.056628049204 0.0093320757286 0.026173121418 0.065561675931 0.019590898078 -0.0013659051385 0.028624845034 -0.062512915414 -0.059930303079 
0.044162089804 0.060101363235 0.030937324401 0.053188057878 -0.076304646397 -0.014200084383 0.051336026651 -0.076180227697 -0.035411717211 
-0.012080133457 0.0084138540099 -0.0091471918429 -0.0049636545918 -0.080021086679 -0.104520263 -0.0003032955739 -0.014312242795 -0.090986324283 
-0.018231094666 -0.079048921816 -0.10022360628 -0.0001514476606 0.049847106487 0.0025008118318 0.037733434148 -0.023963101504 -0.051224916328 
0.037511662358 -0.01888125029 -0.063021372448 0.036528126863 -0.021687911779 -0.0058047038263 0.015967497766 -0.037855407004 -0.082489620346 
0.064069959924 0.028733561495 0.015860586126 0.047464225224 -0.0024272959075 0.010353043652 0.056263087012 0.0059778857569 0.019177690583 
0.026576896448 -0.06450095732 -0.073712758757 0.064853286568 0.040243016823 0.039211396297 0.0788491077 0.030052017956 0.047072910853 
0.083638003458 -0.06330502889 0.013170969667 0.067346912454 -0.068676284872 -0.011659808799 0.026499349536 -0.0192547045 -0.054024565689 
0.033523913928 0.0038507353034 -0.091455443925 0.019513498563 -0.043261010305 -0.093535818357 -0.015137870612 -0.085192981584 -0.1020037727 
-0.041735472226 0.012931689317 -0.012666266934 0.0016270810267 -0.061993813258 -0.077053908099 0.041466330665 0.014972893368 -0.017696428529 
0.028241084443 0.024298402653 0.013614725401 0.034403557151 -0.017336367977 -0.090966038098 0.022743953628 -0.070287914806 -0.073992624439 
0.018630325273 -0.066347301966 -0.10025307527 0.054664107317 0.013867669569 0.012342186516 0.021416768566 -0.042321838667 -0.058253276753 
0.030898750025 0.0054586666113 0.026269810571 0.035060632899 -0.015976104093 -0.030213939128 0.018556183651 -0.075432974376 -0.014965423246 
0.089301156322 -0.063678750983 -0.018445287142 -0.00578728903 0.1146176609 0.020423157529 -0.07136562306 0.012416877639 -0.05834091026 
-0.034141457112 0.017475962613 -0.085653175914 0.0012063924766 -0.072289562366 -0.090529859295 -0.030474864096 0.0081736558626 -0.050452938307 
-0.0082709642191 -0.084557176859 -0.11770624589 0.012520933347 -0.074880419669 -0.10270993987 0.028480739579 0.0027089944597 0.0046933053198 
0.062924945488 -0.049337788032 -0.059028573322 0.095384267765 0.013975361242 0.01960720588 0.064114477785 -0.019504243432 0.021236148296 
0.028448617023 -0.067742814363 -0.056813326603 0.072255960312 -0.0063473337083 0.044208956848 0.020494665374 -0.070781966655 -0.0084480722876 
-0.066745613936 -0.051542221135 -0.051273590981 -0.05187141029 -0.053595753541 -0.066236983794 -0.04207787545 -0.045975994894 -0.094877359649 
-0.018144144331 0.010618488003 -0.0038494497634 -0.050491669288 0.00096360374628 -0.047787897048 -0.047755816541 -0.052542112751 -0.050128643414 
0.039184839291 0.0020205174222 -0.018230015624 0.010430044953 -0.074495841092 -0.10382873626 -0.0032963160561 -0.039472966278 -0.047253690491 
0.058564136293 0.026767056724 0.01298681015 0.034588094448 -0.081584964464 -0.019411444196 0.040245799741 -0.081168825026 -0.086643051248 
0.070579714415 0.027512539738 0.030143085291 0.10342395951 -0.012572115783 0.0022700570637 0.087486786602 0.019982109928 0.013200992704 
0.044559753863 -0.040755698702 -0.0067839148041 -0.059314382516 0.019445163973 0.0041118653196 -0.03891235971 0.0026359971683 -0.063890999993 
-0.037417071765 -0.046235037833 -0.097544483564 -0.088447237623 0.020640826207 -0.05476985514 -0.042045244399 -0.03382140718 -0.10145088301 