# vtk DataFile Version 4.2
Generated by LIGGGHTS
ASCII
DATASET POLYDATA
POINTS 1000 float
1.48447 0.611333 0.530042 2.5204 0.541061 0.066825 4.52285 0.116565 0.289502 
3.13828 1.09692 0.623605 4.64284 1.1089 0.237751 0.00555371 1.85511 0.459264 
1.41413 1.56037 0.219403 2.44397 1.87302 0.026422 3.44387 1.83238 0.00194319 
4.099 2.69738 0.1254 0.807342 3.28016 0.517791 2.06619 3.18384 0.554515 
3.43677 3.49748 0.0804115 4.7898 3.20499 0.643032 0.0310574 3.9105 0.521803 
1.11097 4.3171 0.306534 1.97215 4.77696 0.0764177 3.00161 4.38956 0.202169 
4.26034 4.43775 0.193358 0.122612 0.512327 1.01692 2.35524 0.389015 1.04177 
0.893219 1.26397 1.15043 3.99761 0.682256 0.930027 1.9334 1.4441 1.09739 
3.62084 1.76652 1.20061 0.873262 2.27088 0.737851 2.7276 2.15839 0.953145 
4.49686 1.97457 0.726067 4.09044 2.7559 1.20466 3.16174 3.1152 1.11023 
2.12466 4.2402 0.906777 3.1779 4.18859 1.28062 0.599268 4.42732 1.16373 
3.82181 4.89513 0.986991 1.05488 0.213335 1.34335 3.24972 0.313623 1.48421 
2.80531 1.2151 1.55996 3.85528 1.033 1.85588 4.8327 0.922165 1.67259 
1.06667 2.08179 1.72671 4.43347 1.97309 1.7551 0.303564 3.50035 1.39463 
1.70407 3.58545 1.53488 4.40423 3.44395 1.86383 4.04484 4.38047 1.82299 
0.885552 0.604581 2.24942 2.71201 0.617578 2.36865 4.50163 0.168933 2.29833 
1.83936 0.987033 1.98871 4.60682 1.27185 2.60214 0.126329 1.98795 2.43899 
2.0339 2.0381 2.12561 3.19066 1.98295 2.15193 1.88915 3.06539 2.52029 
3.61148 2.95248 2.39101 0.139085 3.45968 2.65834 0.977565 3.17802 2.08836 
0.145019 4.25031 2.03729 1.11024 4.16327 2.2845 2.34913 4.1747 2.13525 
3.29121 3.90032 2.32844 1.61657 4.99213 2.03751 0.396796 0.133526 2.98646 
1.43214 0.556979 3.1032 3.56796 0.0912106 2.6747 4.17154 0.59447 3.30677 
3.50875 1.20551 2.78246 1.15113 1.44767 2.7456 2.55343 1.50658 2.79922 
1.08774 2.44584 2.76072 1.9776 2.34524 3.21971 4.11245 2.13982 2.69103 
2.94109 2.51441 2.98991 4.73439 2.94953 2.66881 0.820954 3.99674 3.22744 
1.80075 4.28178 3.10774 2.81037 4.32948 3.2596 4.24603 3.8041 2.8461 
0.134329 4.86668 2.82467 3.65852 4.7591 2.68608 0.511158 0.571767 3.88334 
2.40125 0.657616 3.33289 3.25428 1.01068 3.73056 1.60591 1.36866 3.67801 
2.53174 1.73167 3.8122 0.0188961 1.97409 3.75307 1.04283 2.19161 3.7579 
3.56734 1.93924 3.51768 0.371009 2.84877 3.41532 2.5258 2.85895 3.94464 
1.79285 3.35178 3.47563 3.37258 3.34332 3.34677 4.14487 3.37092 3.98186 
3.78214 4.3029 3.97353 4.41163 4.78216 3.34479 1.49726 0.555677 4.27897 
4.68118 0.484789 4.16028 2.48503 0.777631 4.36733 3.74794 0.671098 4.53196 
0.475891 1.40068 4.45526 3.42663 1.62152 4.51447 4.27119 1.42847 4.01501 
1.75316 2.40407 4.42921 4.38565 2.42289 4.26731 0.223346 2.91905 4.5571 
3.40449 2.61018 4.36274 0.958199 3.37991 4.02628 3.32987 3.59585 4.56047 
1.5393 4.19254 4.07073 2.48532 3.86384 4.09173 4.87322 4.26231 4.06518 
0.571598 4.48735 4.07777 2.16638 4.96807 4.14376 0.10648 0.564174 4.86099 
1.04594 0.582489 5.20525 2.08401 0.101236 4.98865 2.15513 1.15185 5.29824 
4.55644 1.10957 4.93104 1.45034 1.4779 4.66693 0.648265 2.16584 5.08776 
2.60077 2.05946 4.87115 4.29397 2.03945 5.18879 4.43819 3.03876 5.15328 
1.71846 3.37225 4.67801 0.720291 3.87976 4.85915 1.9112 4.29592 5.00962 
4.23737 3.9562 4.80349 0.152461 4.74776 4.96628 1.14578 4.8998 4.78501 
3.40483 4.51697 4.97373 1.71796 0.511562 5.94293 2.6573 0.186299 5.82608 
3.82368 0.389099 5.49118 3.15272 1.12149 5.37233 4.7743 0.613499 5.77155 
0.0800205 1.36787 5.46158 1.21345 1.43698 5.72237 3.97706 1.28002 5.91945 
1.58084 2.32735 5.4261 2.54612 2.61496 5.73639 1.84655 3.38223 5.69044 
3.36616 3.10692 5.43285 1.09756 4.14698 5.74593 2.60726 4.06866 5.69167 
3.39636 4.61179 5.98094 1.21166 1.82605 6.65734 2.10451 1.45406 6.28647 
3.11445 1.65473 6.40463 0.438436 2.08157 6.06457 4.12311 2.22416 6.21576 
1.43282 2.75453 6.35682 0.640128 3.27358 6.02407 1.48082 3.73066 6.57046 
2.93161 3.49143 6.45539 4.009 3.22755 6.20315 4.34915 4.19353 6.07838 
0.448886 4.90157 6.16446 1.68073 4.87902 6.09808 1.57626 0.220004 7.04235 
0.707626 0.970341 6.77654 2.41327 0.777318 7.04612 3.39337 0.749306 6.72531 
4.61034 0.623263 6.75869 4.07731 1.45781 6.8996 0.340875 2.91456 7.03084 
1.89538 2.56547 7.22514 2.78099 2.54182 6.74664 3.88759 3.00771 7.17465 
4.88424 3.09472 7.04512 0.523049 4.08317 6.76181 2.28668 4.31364 6.67587 
3.40235 4.30719 6.93353 4.32144 3.92853 7.04292 1.08092 4.89355 6.94222 
4.8392 4.80435 7.04557 0.511244 0.199687 7.38484 4.04295 0.413602 7.55746 
1.48351 1.16964 7.37992 4.64554 1.18427 7.77839 0.0402166 1.65245 7.66108 
2.32738 1.6978 7.4754 0.923746 2.21177 7.54144 3.33047 1.94858 7.3486 
4.61678 2.17592 7.34498 2.7869 2.63486 7.83398 1.1656 3.31674 7.42853 
3.07099 3.51619 7.44857 0.910188 4.25896 7.69606 2.51581 4.32067 7.66178 
4.9963 3.96141 7.78016 4.21072 4.6131 7.8188 0.803472 0.0580987 8.3307 
1.75079 0.375227 8.01706 2.74489 0.277452 8.12371 4.96382 0.336261 8.40767 
0.722325 1.00899 8.00851 1.88195 1.31696 8.32981 2.956 1.25487 8.11466 
3.86157 1.67707 8.15595 0.0124872 2.51091 8.55947 1.29357 2.3102 8.4708 
2.28094 2.19916 8.58336 1.85389 3.05668 8.10934 4.02726 2.66193 8.10288 
0.34169 3.63176 8.38547 3.24866 3.28208 8.48428 2.20455 3.9561 8.54053 
3.38268 4.24294 8.24104 4.31725 3.80936 8.50221 0.522569 4.7479 8.47935 
1.64042 4.77683 8.14776 1.42343 0.532963 8.95532 3.11288 0.516156 9.05182 
4.65334 0.00661341 9.30072 4.18809 0.883056 8.72324 0.353599 1.2849 8.92886 
2.85969 1.48688 9.08337 3.98166 1.75865 9.16162 4.94086 1.5406 8.66848 
3.27633 2.30108 8.67817 2.23341 3.08803 9.04029 4.1343 2.92904 9.06078 
0.664854 3.141 9.21973 1.19062 4.03609 8.72593 3.53597 3.96792 9.19014 
2.78856 4.61638 9.01404 3.83781 4.93098 9.30222 4.7552 4.74149 8.94798 
0.837916 0.769781 9.74968 1.98083 1.16168 9.49755 3.73501 0.7064 9.84289 
0.227344 2.12525 9.46683 1.43092 2.21623 9.45703 4.88166 2.32682 9.34217 
2.82709 2.76384 9.78015 1.63784 3.63674 9.75562 0.470213 4.12568 9.5485 
4.55332 3.79263 9.47469 0.234707 5.2693 0.563145 3.94159 5.44025 0.157023 
1.34174 6.22101 0.404439 3.32426 6.11076 0.568878 4.83044 6.10585 0.336516 
2.3362 6.28048 0.499644 0.852634 7.08885 0.556248 3.54922 7.04425 0.287948 
4.50047 7.23707 0.0471159 0.685774 7.96992 0.0375674 2.81106 7.70561 0.421882 
3.97701 7.91812 0.567215 0.482699 8.90661 0.353158 2.28538 8.85066 0.445028 
4.28467 8.91225 0.298989 0.785223 9.85753 0.258801 3.58803 9.69532 0.49507 
1.23372 5.18315 1.00186 2.10286 5.54939 1.33421 2.85619 5.20594 0.766083 
0.651987 6.00497 1.09921 4.60024 6.06031 1.3088 1.86262 7.0953 0.926317 
2.82113 6.88098 1.14504 4.66398 7.01179 1.00766 0.236284 7.80407 0.937781 
2.23029 7.98044 1.21582 1.42148 8.41613 0.757017 3.42832 8.7234 0.794448 
4.50167 8.89585 1.27502 0.296596 9.53285 1.15604 1.55527 9.43692 0.846693 
2.73932 9.46334 1.092 4.61364 9.97945 1.31576 0.566886 5.14687 1.8951 
3.68268 5.40654 1.835 4.71812 5.07723 1.48105 0.22404 6.86808 1.3726 
1.46142 6.42086 1.54626 2.52383 6.27032 1.88469 3.69393 6.46601 1.42838 
1.11944 7.42756 1.53207 2.38883 7.31881 1.99076 4.19928 7.11436 1.99885 
3.46588 7.61118 1.37129 4.50038 7.90694 1.4309 0.480411 8.60324 1.48743 
1.42104 8.35745 1.75539 3.10194 8.47658 1.71681 3.64377 9.34995 1.54367 
1.92068 9.98424 1.91556 2.81819 5.05475 2.22031 4.51188 5.22369 2.44901 
0.594079 6.12824 2.09057 1.73807 5.93502 2.4179 4.1719 6.15123 2.29271 
3.3184 6.67004 2.34177 0.459212 7.18707 2.29087 1.40897 6.8876 2.43388 
3.3154 7.68387 2.35735 0.706563 8.14696 2.42284 4.02238 8.40747 2.15278 
0.541674 9.37575 2.11964 2.23892 8.84222 2.06573 4.22188 9.26575 2.6399 
2.85522 9.62922 2.09747 1.00846 5.35 2.77604 2.14687 5.21025 2.97259 
3.25652 5.64943 2.90224 0.856162 6.30236 3.04046 2.4211 6.43503 2.95304 
4.47701 6.41951 3.2066 0.805815 7.28216 3.23531 3.16721 7.06798 3.24744 
4.06987 7.38441 2.95484 1.85521 7.50171 3.08699 1.17658 8.20918 3.30336 
2.61465 8.18627 2.86642 4.41267 8.316 3.09504 0.0366173 8.80363 2.76917 
1.87993 8.85187 2.99917 3.29464 8.89133 2.66374 1.28325 9.63792 2.73799 
2.2643 9.76907 2.89303 1.27314 5.0985 3.70721 0.158495 5.71528 3.45527 
2.60096 5.74902 3.68221 3.52261 6.13172 3.74668 4.61956 5.63952 3.81653 
0.267949 6.64444 3.80942 1.4134 6.59875 3.81616 2.3717 6.88271 3.84885 
4.01677 6.99226 3.88499 2.35371 7.9559 3.8599 3.46416 8.04528 3.40486 
4.57442 7.82141 3.94938 0.377151 9.13817 3.64816 1.7558 9.04997 3.97164 
2.71601 8.94982 3.58754 3.8128 8.98182 3.53906 1.13082 9.80373 3.71995 
3.35345 9.87627 3.63189 4.70414 9.67436 3.41567 0.11022 5.60541 4.45106 
3.1616 5.06347 4.16444 4.12514 5.08896 4.4894 1.08108 5.83074 4.36903 
2.0544 6.04249 4.46652 0.845804 6.87043 4.59372 2.97306 6.49527 4.54773 
4.83511 6.40593 4.49181 3.13897 7.43196 4.19955 0.423626 7.65101 4.1327 
1.42135 7.58339 4.12883 0.9358 8.53256 4.21853 2.42591 8.63962 4.59026 
3.77488 8.16425 4.44344 3.302 9.08385 4.39529 4.85477 8.83778 4.02418 
2.40752 9.82598 3.99726 4.06315 9.73237 4.38805 2.51939 5.08886 5.07185 
3.39594 5.52702 5.27578 4.87946 5.53123 4.97452 1.64877 5.67425 5.31396 
3.9044 6.26329 4.82863 1.73732 6.96245 5.03726 3.325 7.24075 5.16346 
4.2701 7.19596 4.83726 0.313572 8.06064 5.30209 1.35968 8.08222 5.00449 
2.38375 7.72486 4.99724 4.6846 7.9993 5.26504 0.680945 8.98765 5.22596 
4.33919 8.86257 4.88429 1.25795 9.61337 4.69422 3.06825 9.91867 4.90827 
0.664816 5.52172 5.41014 2.44461 5.5127 5.97474 4.21464 4.99702 5.49689 
4.82174 5.70584 5.99586 0.833488 6.50831 5.52605 2.42204 6.30742 5.36117 
3.8437 6.25372 5.8632 4.71591 6.55487 5.47766 1.00675 7.47749 5.7257 
2.86375 6.93979 5.99831 2.82091 7.93363 5.87531 1.9745 8.49902 5.67508 
3.70904 8.11982 5.44875 2.89033 8.83779 5.45342 0.268801 9.89721 5.58824 
1.54649 9.43395 5.64758 3.6442 9.43389 5.7297 4.54658 9.70201 5.39079 
4.10747 5.23393 6.51489 0.148237 6.20704 6.18914 3.2563 5.76148 6.5056 
1.61938 6.33059 6.11847 0.808224 6.88482 6.51362 1.95793 7.45539 6.04044 
3.66922 7.02511 6.58933 4.43742 7.35742 6.00528 3.58412 8.07115 6.51214 
[...]
POINT_DATA 1000
FIELD FieldData 7
id 1 1000 int
24 25 809 32 45 7 909 874 450 
300 531 20 892 990 116 605 117 601 
129 26 62 541 69 626 288 501 130 
939 759 142 109 521 111 147 561 48 
36 43 568 504 927 610 600 175 624 
551 588 574 37 591 17 418 404 255 
762 251 526 368 841 272 872 365 644 
562 59 581 61 30 70 508 283 776 
263 674 767 358 752 419 356 659 545 
663 87 566 589 302 42 50 765 84 
269 766 408 749 681 197 377 74 598 
570 105 235 294 592 755 79 744 783 
769 286 207 866 262 670 78 82 608 
846 583 68 584 515 698 276 764 814 
215 813 281 669 833 357 851 114 838 
707 104 268 578 110 296 571 285 322 
284 512 554 546 202 12 97 278 580 
577 510 214 307 816 123 576 279 782 
868 277 72 128 594 532 558 797 702 
630 28 323 703 208 47 557 867 715 
543 506 44 274 27 602 529 567 742 
658 511 722 13 552 880 528 540 556 
559 236 505 542 11 393 120 148 596 
503 139 590 125 544 170 993 747 735 
539 53 280 162 21 424 604 121 612 
634 229 729 31 67 535 514 547 656 
922 603 599 134 88 234 81 635 855 
77 593 696 491 694 718 839 243 548 
362 5 58 73 597 242 115 370 716 
625 963 137 22 133 150 654 640 534 
80 52 849 646 631 845 240 138 144 
884 174 633 140 750 3 29 560 538 
49 899 651 378 717 8 141 108 160 
638 173 502 167 661 46 51 380 979 
154 375 639 629 648 149 402 636 682 
662 35 905 684 187 169 188 261 369 
415 647 623 254 384 171 157 180 172 
275 163 182 192 301 673 75 349 781 
177 193 788 791 917 190 39 155 426 
920 199 676 565 342 40 582 354 292 
664 410 902 652 945 660 446 186 198 
637 795 178 291 195 840 406 789 164 
159 919 297 153 161 470 675 474 181 
830 347 678 685 858 836 680 453 211 
321 933 948 935 456 335 701 329 666 
856 85 10 330 573 737 314 940 348 
807 317 916 709 800 857 334 689 686 
463 200 126 822 372 332 736 66 219 
938 831 196 837 91 971 458 954 203 
870 363 256 988 628 103 206 976 691 
972 563 224 996 315 688 961 969 863 
708 223 15 107 337 999 471 303 210 
713 994 861 875 246 507 555 745 579 
86 586 152 585 237 100 225 238 820 
99 714 727 997 231 18 477 479 63 
33 533 486 328 132 523 391 9 92 
879 252 509 924 399 616 683 668 127 
995 146 981 136 522 490 873 60 860 
1 439 655 420 847 364 653 854 484 
14 101 405 2 41 575 881 843 519 
194 469 289 650 620 614 615 316 96 
889 385 71 518 102 524 896 692 311 
891 449 815 768 423 862 83 413 386 
23 264 719 929 777 345 758 970 657 
431 290 811 798 812 748 928 257 89 
952 295 904 757 763 801 774 468 310 
165 304 253 877 796 780 832 790 258 
228 834 775 536 712 802 56 476 425 
452 324 461 778 333 806 679 779 677 
94 818 106 819 808 695 743 306 478 
351 184 443 320 427 65 665 113 352 
55 553 340 325 738 489 985 829 318 
428 312 462 338 305 699 848 326 355 
308 220 361 1000 359 564 4 247 343 
6 967 667 209 488 706 191 230 549 
859 826 810 38 595 371 346 473 957 
700 690 218 499 710 704 241 587 217 
513 900 64 57 527 287 373 741 705 
212 496 221 222 201 733 482 725 54 
244 205 989 216 95 270 118 168 724 
227 895 245 726 641 271 119 226 642 
672 122 213 720 991 379 487 732 746 
721 530 112 572 982 248 607 606 156 
980 632 643 124 869 299 516 619 466 
93 956 968 493 350 341 233 975 977 
520 723 852 392 918 617 613 794 76 
740 480 494 498 475 844 853 611 730 
761 366 367 267 492 166 249 517 890 
396 401 973 495 912 817 986 621 383 
786 232 395 842 983 145 260 609 485 
265 865 773 885 569 376 387 282 728 
293 886 143 360 731 437 754 987 771 
250 770 400 394 273 756 16 34 645 
151 259 894 984 753 882 381 897 432 
500 382 871 921 878 901 784 903 914 
403 907 398 793 390 389 772 876 887 
898 397 185 298 785 353 417 436 649 
923 942 430 422 411 883 313 751 906 
414 893 888 438 433 457 189 319 992 
409 435 925 388 787 407 412 908 926 
429 937 934 792 448 331 951 442 440 
459 309 915 434 943 910 416 950 941 
821 913 739 835 447 467 978 421 965 
799 946 944 460 931 803 183 441 827 
949 176 179 671 451 483 947 454 497 
964 444 697 455 204 959 693 825 711 
537 550 336 936 974 960 930 824 958 
864 804 98 998 687 481 622 911 618 
627 158 266 90 850 805 932 472 823 
953 339 464 966 734 19 135 131 760 
465 955 525 962 445 327 828 239 344 
374 
type 1 1000 int
1 1 2 1 1 1 2 2 1 
1 2 1 2 2 1 2 1 2 
1 1 1 2 1 2 1 2 1 
2 2 1 1 2 1 1 2 1 
1 1 2 2 2 2 2 1 2 
2 2 2 1 2 1 1 1 1 
2 1 2 1 2 1 2 1 2 
2 1 2 1 1 1 2 1 2 
1 2 2 1 2 1 1 2 2 
2 1 2 2 1 1 1 2 1 
1 2 1 2 2 1 1 1 2 
2 1 1 1 2 2 1 2 2 
2 1 1 2 1 2 1 1 2 
2 2 1 2 2 2 1 2 2 
1 2 1 2 2 1 2 1 2 
2 1 1 2 1 1 2 1 1 
1 2 2 2 1 1 1 1 2 
2 2 1 1 2 1 2 1 2 
2 1 1 1 2 2 2 2 2 
2 1 1 2 1 1 2 2 2 
2 2 1 1 1 2 2 2 2 
2 2 2 1 2 2 2 2 2 
2 1 2 2 1 1 1 1 2 
2 1 2 1 2 1 2 2 2 
2 1 1 1 1 1 2 1 2 
2 1 2 1 1 2 2 2 2 
2 2 2 1 1 1 1 2 2 
1 2 2 1 2 2 2 1 2 
1 1 1 1 2 1 1 1 2 
2 2 1 1 1 1 2 2 2 
1 1 2 2 2 2 1 1 1 
2 1 2 1 2 1 1 2 2 
1 2 2 1 2 1 1 1 1 
2 1 2 1 2 1 1 1 2 
1 1 2 2 2 1 1 2 2 
2 1 2 2 1 1 1 1 1 
1 2 2 1 1 1 1 1 1 
1 1 1 1 1 2 1 1 2 
1 1 2 2 2 1 1 1 1 
2 1 2 2 1 1 2 1 1 
2 1 2 2 2 2 1 1 1 
2 2 1 1 1 2 1 2 1 
1 2 1 1 1 1 2 1 1 
2 1 2 2 2 2 2 1 1 
1 2 2 2 1 1 2 1 2 
2 1 1 1 2 2 1 2 1 
2 1 2 2 2 2 1 2 2 
1 1 1 2 1 1 2 1 1 
2 2 1 2 1 2 1 2 1 
2 1 1 2 2 1 1 2 2 
2 2 1 2 1 2 2 2 2 
2 1 1 1 1 2 1 1 1 
2 2 2 2 1 2 2 2 2 
1 2 1 2 1 1 1 1 2 
1 2 2 2 1 1 1 1 1 
1 2 1 1 1 2 1 1 1 
2 1 2 2 1 2 2 2 1 
2 1 2 1 2 1 2 1 2 
1 1 2 1 2 1 2 2 1 
1 1 1 1 1 2 2 2 2 
1 1 1 2 2 2 2 1 1 
2 1 1 2 1 2 2 2 1 
2 1 2 2 1 2 1 1 1 
1 1 2 2 2 1 2 2 2 
1 1 2 2 2 2 2 1 1 
2 1 2 2 2 2 2 1 1 
1 1 1 2 2 2 2 2 1 
1 2 2 2 2 2 1 1 1 
1 1 1 2 1 2 2 2 2 
1 2 1 2 2 2 2 1 1 
1 1 1 1 1 1 2 1 1 
1 2 1 1 2 1 2 2 1 
1 1 1 1 1 2 2 1 1 
1 1 1 2 1 2 1 1 1 
1 2 2 1 1 2 1 1 2 
2 2 2 1 2 1 1 1 2 
2 2 1 1 2 2 1 2 1 
2 2 1 1 2 1 1 2 2 
1 1 1 1 1 2 1 2 1 
1 1 2 1 1 1 1 1 2 
1 2 1 2 2 1 1 1 2 
2 1 1 2 2 1 1 2 2 
2 2 1 2 2 1 2 2 1 
2 2 2 1 2 1 2 2 1 
1 2 2 1 1 1 1 2 2 
2 2 2 1 2 2 2 2 1 
2 1 1 1 1 2 2 2 2 
2 1 1 1 1 1 1 2 2 
1 1 2 1 2 2 2 2 1 
2 1 1 2 2 1 1 2 1 
1 2 2 2 2 1 1 1 2 
1 2 1 1 2 1 2 2 2 
1 2 1 1 1 2 1 1 2 
1 1 2 2 2 2 1 2 1 
1 1 2 2 2 2 2 2 2 
1 2 1 2 1 1 2 2 2 
2 1 1 1 2 1 1 1 2 
2 2 1 1 1 2 1 2 2 
1 2 2 1 1 1 1 1 2 
1 1 2 1 2 1 1 2 2 
1 2 2 2 1 1 2 1 1 
1 1 2 1 2 2 1 2 2 
2 2 2 2 1 1 2 1 2 
2 2 2 1 2 2 1 1 2 
2 1 1 2 1 1 2 1 1 
2 1 2 1 1 2 2 2 2 
2 2 1 2 2 2 2 2 2 
2 2 1 2 2 1 2 2 2 
2 1 1 1 2 2 2 1 2 
2 1 1 2 2 1 1 1 2 
1 2 2 2 1 1 2 1 1 
1 
i 3 1000 int
0 0 0 0 0 0 0 0 0 
0 0 0 0 0 0 0 0 0 
1 0 0 1 0 0 1 0 0 
1 0 0 0 0 0 0 0 0 
1 0 0 1 0 1 0 0 1 
0 0 1 0 0 1 0 0 1 
0 0 0 0 0 0 0 0 0 
0 0 0 0 0 0 0 0 0 
1 0 0 0 0 0 0 0 0 
1 0 0 1 0 0 0 0 0 
0 0 1 0 0 0 0 0 1 
0 0 0 0 0 0 0 0 0 
0 0 0 0 0 0 0 0 0 
0 0 0 1 0 0 0 0 1 
0 0 1 0 0 0 0 0 0 
0 0 0 0 0 0 0 0 0 
0 0 0 0 0 0 0 0 0 
1 0 0 1 0 0 1 0 0 
1 0 0 1 0 0 0 0 0 
1 0 1 1 0 1 1 0 0 
1 0 0 1 0 1 0 1 0 
0 0 0 0 0 0 0 0 0 
0 0 0 0 0 0 0 0 0 
0 0 0 1 0 0 1 0 0 
1 0 0 0 0 0 1 0 0 
1 0 1 1 0 0 1 0 0 
1 0 1 0 0 0 0 0 0 
0 1 0 0 0 0 0 0 0 
0 0 0 1 0 0 0 0 0 
0 0 0 1 0 0 0 0 0 
1 0 0 1 0 0 1 0 0 
1 0 0 0 0 0 0 1 0 
0 0 0 0 0 0 0 0 0 
0 0 0 0 0 0 0 0 0 
1 0 0 0 0 0 1 0 0 
0 0 0 1 0 0 1 0 0 
1 0 0 1 0 0 0 0 0 
1 0 1 1 0 0 0 1 0 
0 0 0 0 0 0 0 0 0 
0 0 0 0 0 0 0 0 0 
0 0 0 0 0 -1 0 0 0 
1 0 0 1 0 0 1 0 0 
0 0 0 1 0 0 1 0 0 
0 0 0 0 0 0 0 0 0 
0 0 0 0 0 0 0 0 0 
0 1 0 0 0 0 0 0 -1 
0 0 0 0 0 0 1 0 0 
0 0 0 1 0 0 1 0 0 
1 0 0 0 0 -1 0 0 -1 
0 0 -1 0 1 0 0 0 -1 
0 0 0 1 0 0 0 0 0 
0 0 0 0 0 -1 0 0 0 
1 0 0 1 0 0 0 0 0 
0 0 0 0 0 -1 0 0 -1 
0 0 0 0 0 -1 0 0 0 
0 0 0 0 0 0 0 0 -1 
0 0 -1 1 0 0 0 0 0 
0 0 -1 0 0 -1 1 0 0 
0 0 0 0 1 0 0 0 -1 
0 0 -1 0 0 0 0 1 0 
0 0 -1 0 0 -1 0 0 -1 
0 0 -1 0 0 -1 0 0 0 
0 0 -1 0 0 0 0 0 0 
0 0 -1 0 0 -1 0 1 0 
0 0 -1 0 0 -1 0 1 -1 
0 0 -1 0 0 -1 0 0 -1 
0 0 -1 0 1 0 0 0 -1 
0 0 -1 0 0 -1 1 0 -1 
0 0 0 0 0 -1 0 0 0 
0 0 -1 0 0 -1 0 0 0 
0 0 0 0 0 -1 0 1 -1 
0 1 0 0 0 -1 0 1 0 
0 0 -1 0 0 -1 0 0 -1 
0 0 -1 0 0 -1 1 0 -1 
0 0 0 0 0 0 0 0 -1 
0 0 -1 0 0 0 0 0 0 
0 0 -1 0 0 -1 0 0 -1 
0 0 -1 0 0 -1 0 0 -1 
1 0 -1 0 0 0 0 0 0 
0 0 -1 0 0 1 0 0 1 
0 0 1 0 0 0 0 -1 1 
0 0 1 0 0 1 0 0 1 
0 0 1 0 0 1 0 0 1 
0 -1 1 0 0 1 0 -1 0 
0 -1 1 0 -1 0 0 -1 0 
0 0 1 0 0 1 0 0 1 
0 0 1 0 -1 1 0 0 1 
0 0 0 0 0 1 0 0 0 
0 -1 0 0 0 0 0 0 0 
0 0 0 0 0 0 0 -1 0 
0 -1 0 0 -1 0 1 0 1 
0 0 0 0 0 0 1 0 1 
0 0 1 0 0 0 0 0 0 
1 0 0 0 0 0 0 0 0 
0 0 0 0 -1 0 0 -1 0 
0 -1 0 0 -1 0 0 -1 0 
0 -1 0 1 0 0 0 0 0 
1 0 1 0 0 1 0 -1 0 
0 0 0 0 0 1 0 0 0 
0 0 0 0 0 0 0 -1 0 
0 0 0 0 0 0 0 -1 0 
0 -1 0 1 0 1 1 0 1 
0 0 0 1 0 1 0 0 0 
0 0 0 0 0 0 0 0 0 
0 0 0 0 0 0 0 0 0 
0 0 0 0 -1 0 1 0 0 
0 0 0 0 0 0 0 0 0 
0 0 0 1 0 0 1 0 1 
1 0 0 0 0 0 0 0 0 
1 0 0 1 0 0 0 0 0 
0 0 0 0 0 0 0 0 0 
0 -1 0 0 0 0 0 0 0 
0 0 0 0 -1 0 0 0 0 
0 -1 0 0 -1 0 1 0 0 
0 0 0 0 0 0 1 0 0 
1 0 0 1 0 0 0 0 0 
0 -1 0 0 0 0 1 0 0 
1 0 0 0 0 0 0 0 0 
0 -1 0 0 -1 0 0 -1 0 
0 -1 0 0 -1 0 1 0 0 
0 0 0 0 0 0 1 0 0 
0 0 0 1 0 0 0 0 0 
0 0 0 0 0 0 0 0 0 
0 0 0 0 -1 0 0 0 0 
0 -1 0 0 0 0 0 -1 0 
1 0 0 1 0 0 0 0 0 
0 0 0 1 0 0 1 0 0 
0 0 0 0 0 0 1 0 0 
0 0 0 0 0 0 0 0 0 
0 -1 0 0 -1 0 0 0 0 
0 0 0 0 -1 0 0 -1 0 
0 0 0 1 0 0 0 0 0 
1 0 0 1 0 0 1 0 0 
0 0 0 0 0 0 0 -1 0 
0 0 0 0 -1 0 0 0 0 
0 -1 0 0 -1 0 0 -1 -1 
0 -1 0 0 0 0 0 0 0 
1 0 0 0 0 0 1 0 0 
1 0 0 1 0 0 0 0 0 
0 0 0 1 0 0 0 -1 0 
0 -1 0 0 0 0 0 0 0 
0 0 0 0 0 0 0 -1 0 
0 -1 0 0 -1 0 1 0 0 
0 0 0 0 0 0 0 0 0 
0 0 0 1 0 0 0 0 0 
1 0 0 0 0 0 0 0 0 
0 0 0 0 0 0 0 0 0 
0 -1 0 0 -1 0 0 -1 -1 
0 0 0 0 0 -1 0 0 0 
0 0 0 0 0 0 0 0 0 
0 0 0 0 0 0 0 0 0 
0 0 0 1 0 0 0 0 0 
0 0 0 0 0 0 0 -1 0 
0 0 0 0 0 0 0 -1 -1 
0 0 0 1 0 0 0 0 0 
0 0 0 1 0 0 0 0 0 
0 0 0 0 0 0 0 -1 0 
0 0 -1 0 0 0 0 -1 -1 
0 -1 -1 0 -1 -1 0 0 0 
0 0 0 0 0 0 0 0 -1 
0 0 0 0 0 0 0 0 0 
0 0 0 0 0 0 0 -1 0 
0 0 0 0 0 0 0 0 0 
0 0 0 0 0 0 0 -1 -1 
0 0 0 0 0 0 0 -1 -1 
0 -1 -1 0 -1 -1 0 1 1 
0 1 1 -1 1 0 -1 0 0 
0 1 0 -1 0 0 0 0 0 
0 1 0 0 0 0 -1 0 0 
1 0 0 0 1 0 0 0 0 
0 0 0 0 0 0 -1 0 1 
0 1 1 -1 1 0 0 1 1 
-1 1 0 -1 0 0 0 1 1 
0 1 0 0 0 0 0 0 1 
-1 0 0 0 0 0 0 0 0 
0 0 0 0 0 1 0 0 1 
0 0 0 0 0 1 0 1 1 
-1 0 0 0 0 0 0 1 0 
-1 0 0 -1 0 0 0 0 0 
0 1 0 0 0 1 -1 0 0 
0 0 0 0 0 0 0 0 0 
0 0 0 0 0 0 0 0 0 
0 0 0 0 0 0 0 0 0 
0 1 0 0 1 0 -1 0 0 
-1 0 0 0 0 0 0 0 0 
0 1 0 0 0 0 0 0 0 
0 1 0 0 0 0 0 0 0 
0 0 0 0 0 0 0 0 1 
0 0 0 0 1 0 0 1 0 
-1 0 0 0 0 0 0 0 0 
0 0 0 0 0 0 0 0 0 
0 0 0 0 0 0 0 0 0 
0 0 0 0 0 0 0 0 0 
0 0 0 0 0 0 0 0 0 
0 1 0 0 0 0 0 0 0 
0 0 0 0 0 0 0 1 0 
0 0 0 0 0 0 0 0 0 
0 0 0 0 0 0 0 0 0 
0 0 0 0 0 0 0 0 0 
0 0 0 0 0 0 0 0 0 
0 0 0 0 0 0 0 0 0 
0 0 0 0 0 0 0 0 0 
-1 0 0 0 0 0 0 0 0 
0 0 0 0 0 0 0 0 0 
0 0 0 0 0 0 0 0 0 
0 0 0 0 0 0 0 0 0 
-1 1 0 0 0 0 -1 1 0 
0 0 0 0 0 0 0 0 0 
0 0 0 0 0 0 0 0 0 
0 0 0 0 0 0 0 0 0 
0 0 0 0 0 0 0 0 0 
0 0 0 0 1 0 -1 0 0 
-1 1 0 0 0 0 0 0 0 
-1 0 0 -1 0 0 0 0 0 
0 0 0 0 0 0 0 0 0 
0 0 0 0 0 0 0 0 0 
0 0 0 0 0 0 0 1 0 
0 0 0 0 0 0 -1 1 0 
0 0 0 0 0 0 0 0 0 
0 0 0 -1 1 0 0 0 0 
0 0 0 0 0 0 -1 0 0 
0 0 -1 0 0 0 0 0 0 
0 0 -1 0 0 0 -1 1 0 
-1 1 0 0 1 0 -1 1 0 
-1 1 0 -1 1 0 -1 0 0 
0 0 0 0 0 0 0 0 0 
0 0 -1 0 0 0 0 0 0 
0 0 0 0 1 0 0 1 0 
-1 1 0 -1 1 0 -1 1 0 
0 1 0 -1 1 0 -1 1 0 
-1 1 0 -1 0 0 -1 1 0 
0 0 -1 0 0 -1 -1 0 0 
-1 0 0 0 0 -1 0 0 -1 
0 0 0 -1 1 0 -1 1 0 
-1 1 0 0 1 0 -1 1 0 
-1 1 0 -1 1 0 -1 1 0 
0 1 0 -1 1 0 0 0 -1 
-1 1 0 -1 1 0 0 1 0 
-1 1 0 -1 0 0 0 0 -1 
-1 0 0 0 0 -1 -1 1 0 
-1 1 0 0 1 -1 -1 1 0 
-1 1 0 0 0 -1 0 0 -1 
-1 0 0 -1 1 0 0 0 -1 
0 0 -1 -1 0 0 -1 1 0 
-1 1 0 0 1 0 0 1 0 
0 1 0 -1 1 0 0 0 -1 
-1 1 0 -1 0 -1 -1 0 0 
0 0 -1 0 1 0 -1 1 0 
-1 0 0 -1 0 0 0 0 -1 
0 1 0 0 0 -1 0 0 -1 
-1 0 0 0 0 1 0 0 0 
0 0 0 0 0 0 0 0 1 
-1 0 1 0 0 1 0 0 1 
0 0 1 0 0 1 0 0 1 
-1 0 1 0 0 1 0 0 1 
-1 -1 0 0 0 1 0 0 1 
0 0 0 0 0 0 0 0 0 
0 0 0 0 0 0 -1 0 1 
0 0 1 0 0 1 0 0 1 
0 0 1 0 0 1 0 0 1 
0 0 1 -1 0 0 -1 0 1 
0 0 0 0 0 1 0 0 1 
0 0 0 0 0 1 0 0 0 
0 0 0 0 0 0 0 0 0 
0 0 0 0 0 0 0 0 1 
0 0 1 0 0 0 0 -1 0 
0 0 1 -1 0 0 0 0 0 
0 0 0 0 0 1 0 0 0 
0 0 1 0 0 1 0 0 0 
0 0 0 0 0 1 0 0 1 
0 0 0 0 0 1 0 -1 0 
0 0 0 0 -1 0 0 0 1 
0 0 0 0 0 0 0 0 1 
0 0 0 0 0 0 0 0 0 
0 0 1 0 0 1 0 0 0 
0 0 0 0 0 1 0 0 0 
0 -1 0 0 0 0 0 0 0 
0 0 0 0 0 0 0 -1 0 
-1 -1 0 -1 -1 0 0 0 0 
0 0 0 0 0 0 0 0 0 
0 0 1 0 0 0 0 0 0 
0 0 0 0 0 0 0 0 0 
0 0 1 0 0 0 0 0 0 
0 0 0 0 0 0 0 0 0 
0 -1 0 0 0 0 0 0 0 
0 0 0 0 0 0 0 0 0 
0 0 0 0 0 0 0 0 0 
0 0 0 0 0 0 0 0 0 
0 0 0 0 0 0 -1 0 0 
0 -1 0 0 -1 0 0 -1 0 
0 0 0 0 0 0 -1 0 0 
0 0 0 0 0 0 0 0 0 
0 0 0 0 0 0 0 0 0 
0 0 0 0 -1 0 0 0 0 
0 0 0 0 0 0 0 0 0 
0 0 0 0 0 0 0 0 0 
-1 0 0 0 -1 0 0 0 0 
0 0 0 0 0 0 0 0 0 
0 0 0 0 -1 0 0 0 0 
0 0 0 0 0 0 0 0 0 
0 0 0 0 0 0 0 0 0 
0 -1 0 0 0 0 0 -1 0 
0 0 0 0 0 0 0 0 0 
0 0 0 0 0 0 0 0 0 
0 0 0 0 0 0 0 0 0 
0 0 0 0 0 0 0 0 0 
0 -1 0 0 0 0 0 0 0 
0 0 0 0 0 0 0 0 0 
0 0 0 0 0 0 0 0 0 
0 0 0 0 0 0 0 0 0 
0 0 0 0 0 0 0 -1 0 
-1 0 0 0 0 0 0 -1 0 
0 0 0 -1 0 0 -1 0 0 
-1 0 0 0 0 0 0 0 0 
0 0 0 0 0 0 0 0 0 
0 0 0 0 0 0 -1 0 0 
0 0 0 -1 0 0 0 0 0 
-1 0 0 0 0 0 0 0 0 
0 0 -1 0 0 -1 0 0 0 
0 0 0 0 0 0 0 0 0 
0 0 0 0 0 0 0 0 0 
0 0 0 0 0 0 -1 0 0 
0 0 0 -1 0 0 0 0 0 
0 0 -1 0 0 -1 0 0 -1 
0 0 -1 0 0 -1 0 0 -1 
-1 0 0 0 0 0 0 0 0 
0 0 0 0 0 0 0 0 0 
0 0 0 0 0 0 0 0 0 
0 0 0 -1 0 0 0 0 -1 
0 0 -1 0 0 -1 0 0 -1 
0 0 0 0 0 0 0 0 -1 
0 0 0 0 0 0 0 0 0 
0 0 0 -1 0 0 0 0 0 
0 0 0 
v 3 1000 double
-0.03730937962 0.02536135697 -0.067380736359 -0.031585845294 -0.012575943786 -0.080295792898 -0.029964160593 -0.077725669936 -0.043095507818 
0.0030502199818 -0.033706421127 -0.095108458834 -0.031100220661 -0.078007816841 -0.088070325915 0.001853293858 0.044440941559 -0.0038068669686 
-0.044020000762 -0.0062982070183 -0.051839919356 -0.015811242933 0.0080924546573 -0.049976212777 -0.016562898037 -0.0091689489488 -0.064338674463 
0.062406302205 -0.032283803955 -0.11308901842 0.0019195506816 0.064409721015 0.031618527997 0.04438625308 -0.016032829226 0.0052843838768 
0.050862653322 -0.054465952792 -0.032021929693 0.064645804024 -0.073134322717 -0.067660339609 0.052532277685 0.046661702818 0.019250543698 
0.035606308084 0.033837958969 0.009285340755 0.06162912958 0.0088452212017 0.04847854034 0.043911070117 -0.067718796573 0.04373998667 
0.034954658113 -0.094842127945 -0.030584658716 -0.049427093068 0.049505901944 0.048771072828 -0.02684705822 -0.049485831571 -0.084727074898 
0.0063452167763 0.070137035342 -0.047807457479 -0.0023943508524 -0.036638355029 -0.08748791364 0.033170544063 -0.0034134042036 -0.086114907338 
0.054315446324 -0.067612249856 -0.088639452339 0.011498174337 0.040303374936 -0.022418425878 0.061905655276 -0.010497458776 -0.05587345422 
0.055096108993 -0.046241822576 -0.10073860909 0.057584134895 -0.065930410163 -0.059525081566 0.048280863984 -0.084308640626 -0.044509254497 
0.057757556282 0.0062620485034 0.051609644868 0.058077813507 -0.10612411633 -0.00261977515 0.051168780292 0.052252714756 0.023301679392 
0.05939833297 -0.1071826488 -0.0023205847634 -0.018599392872 0.032577932651 -0.05234379484 -0.018650287709 -0.064811062558 -0.10236177052 
0.024665124904 -0.037148765462 -0.084469575999 -0.016436230119 -0.079283496304 -0.065066808806 -0.017733148685 -0.10596158516 -0.11575085642 
0.0049372752955 -0.018043727125 -0.023967824192 0.029819277887 -0.10067551018 -0.082937510476 0.045407912943 0.054440980454 0.0297409105 
0.093487924172 -0.020801226911 0.04618201895 0.10962585788 -0.092437880963 -0.048874539793 0.064167280778 -0.10059756662 0.0072620908338 
-0.027281147976 0.012719514428 -0.042576608729 -0.0013188684753 -0.016231711207 -0.067802268022 -0.018398317016 -0.071461102337 -0.0071689748065 
-0.010230840321 -0.014868440552 -0.090441671892 0.029477645718 -0.10034772988 -0.087787362621 0.028940956261 0.028548804964 0.021493862897 
0.042323044752 -0.007364442702 -0.071597670837 0.10406907567 -0.1253101403 -0.050894625963 0.054394589091 0.021497092275 0.010740750007 
0.061195458877 -0.076664307601 -0.069718865251 0.071883749039 0.02995910869 0.011040015029 0.044921676159 0.017726999195 0.013095407911 
0.07604384781 0.06484270073 0.037014567118 0.065027110906 0.026668364415 0.034365050441 0.05245079889 -0.070849072956 -0.0044644718751 
0.051903670773 -0.077459664945 -0.01377614759 0.08349017705 0.025672644181 0.070050033627 0.01665951312 0.024974075941 -0.017150769563 
-0.012497047724 -0.00080851334608 -0.046487603393 0.017891357363 -0.0161076272 -0.084814637751 -0.040325498059 -0.076488521512 -0.099560892112 
0.025976012238 -0.027202063567 -0.10707591133 0.011848127052 0.0048628262115 -0.052495905979 0.023021012787 -0.021748653148 -0.065723084385 
0.03924182851 0.0072924460596 0.00093857088064 0.031633239674 -0.018753625407 -0.016331152063 0.060402193393 -0.080860914014 -0.072633966662 
0.018800588901 -0.048992694213 -0.093151726192 0.02646266154 -0.056779067714 -0.091937710582 0.06176281178 0.028022837256 0.034033931905 
0.046382594287 0.0081487498473 0.018169881743 0.066278979878 0.02068622153 -0.0039789175433 0.028227828844 -0.061817715784 -0.059794333529 
0.048797140674 0.040978556388 0.05568044544 0.043191200053 -0.072861149643 -0.01335340289 -0.01235082685 0.010082966917 -0.0013085694021 
-0.0047321756371 0.0072617028656 -0.081776546024 0.042902590697 -0.056032365339 -0.10305816989 0.047663393959 -0.0045686429589 -0.04168933386 
0.062619793901 -0.033905895147 -0.041149289165 -0.003574842184 0.0352198418 0.0099118231381 0.033875057613 -0.01785997854 -0.0036314053574 
0.020727069745 -0.029881246686 -0.075512342706 0.055346040121 0.0069912803458 -0.0021692200399 0.066174967019 -0.03848339592 -0.070038336366 
0.048494012442 -0.0025324917728 -0.0061706767471 0.025293742043 -0.054832531924 -0.074913814081 0.015433752097 -0.071250708994 -0.060989278904 
0.054417032118 -0.056150003182 -0.046315674711 0.059345328414 -0.063456007446 -0.027256032114 0.020836515197 -0.0010932304659 -0.02054981346 
-0.011934489403 -0.06587755337 -0.11377874719 0.038916786328 0.0033537576354 -0.074261411374 0.0027347534921 -0.067339817643 -0.094641952074 
-0.040697688268 0.040871055847 -0.038776066027 -0.0039436874178 -0.064918833739 -0.08259325866 -0.0023757673051 -0.064505250013 -0.080260049934 
0.054126647574 -0.0070273447484 -0.027543018252 0.02036148526 -0.06667164325 -0.10034122465 0.03196256482 0.023485288691 0.014034650565 
0.020559116006 -0.063248447064 -0.075224121308 0.059489495454 -0.017131878298 0.016576456512 0.024374249621 -0.059983953785 -0.044578709217 
0.028881331491 -2.0597839713e-05 -0.00058877838555 0.028712476919 -0.015726155204 -0.032650925719 0.076535874647 -0.026220143422 -0.0084666545166 
0.037739710003 0.03276707429 0.021932668133 0.051540210596 -0.01911827696 0.031203874736 -0.018300177698 0.049179460632 0.00046098573095 
0.0027462778401 0.0077110358922 -0.048840185634 -0.032269262268 0.02504514293 -0.088298434815 -0.046249091419 -0.035821704576 -0.056598064823 
0.009111246401 -0.066737099687 -0.10944967571 -0.037312260472 0.010345189175 -0.045277833343 0.034153896585 0.014151071835 -0.011814282561 
0.027567239383 -0.032688954356 -0.045985541511 0.0088810330932 -0.06900477505 -0.10231811169 0.043901185097 -0.098095129751 -0.079699575517 
0.039590971406 -0.01836222795 0.0017945156376 0.070660264411 0.011375542716 0.0022859766712 0.021577898039 -0.016724691259 0.011670637284 
0.031573411819 -0.072276909413 -0.023468258803 0.06644357458 0.0075722093787 0.051193715879 0.043229802878 0.020070268656 0.025700901854 
0.025306207057 -0.080170265151 0.0052729729221 -0.034405735228 -0.012789686306 -0.014832685647 -0.04641901583 -0.041225677032 -0.048892066196 
-0.052570061584 -0.031133415439 -0.074623188066 -0.041138048077 -0.023507998288 -0.098399893121 -0.032640476073 -0.053918049141 -0.091460176649 
-0.033287535183 0.043971805385 0.014680323228 -0.043882968887 0.01886384877 -0.04080130004 -0.035763025589 -0.018914358956 -0.10538291156 
0.041958936203 0.0025675581185 -0.017135692562 -0.020939671412 -0.050824807856 -0.040861175852 0.05896842251 0.026487946936 0.016918608705 
0.0030378030233 -0.090314498572 -0.058620278898 0.03238052174 0.020842129903 0.014308446375 0.059272447559 -0.027935431495 -0.024117671084 
0.03727741276 -0.010811720069 0.0094211684977 -0.015065845898 0.016145887682 -0.029446621308 -0.088447237623 0.020640826207 -0.05476985514 
-0.04777568294 -0.032727360135 -0.11890383509 -0.024651293956 0.066021280609 -0.014225655668 -0.052564752649 -0.019871397114 -0.092403139247 