ITEM: TIMESTEP
50000
ITEM: NUMBER OF ATOMS
1000
ITEM: BOX BOUNDS pp pp pp
0 10
0 10
0 10
ITEM: ATOMS id type diameter density x y z 
9 1 1 1 0.61962 0.138898 0.0303628 
520 2 1 1 2.09896 0.181097 0.472768 
509 2 1 1 1.91621 0.931503 0.268852 
507 2 1 1 3.65452 0.852474 0.0585182 
528 2 1 1 3.85377 0.783894 0.325596 
2 1 1 1 0.412266 1.55045 0.452133 
519 2 1 1 1.55069 1.62433 0.627954 
531 2 1 1 3.13665 1.56799 0.129192 
506 2 1 1 4.04585 1.60306 0.168918 
20 1 1 1 2.24019 2.22153 0.512983 
11 1 1 1 3.14988 2.00869 0.396384 
526 2 1 1 0.393244 2.67824 0.0754199 
515 2 1 1 3.30023 3.43555 0.0750188 
525 2 1 1 4.91261 3.55956 0.569213 
510 2 1 1 2.31659 4.33268 0.151992 
503 2 1 1 1.83657 4.76016 0.566125 
527 2 1 1 3.73036 4.42059 0.604991 
16 1 1 1 0.385232 0.253289 0.822647 
530 2 1 1 2.66612 0.432874 1.02883 
14 1 1 1 1.54249 1.22082 1.02089 
502 2 1 1 4.30308 0.727835 1.21546 
18 1 1 1 4.82291 1.42285 0.923689 
518 2 1 1 2.08914 1.99833 1.23304 
522 2 1 1 2.44605 2.66234 1.28264 
501 2 1 1 2.76985 3.06205 0.748267 
505 2 1 1 3.27697 2.56223 1.07051 
10 1 1 1 3.87836 2.68115 1.28775 
512 2 1 1 4.60892 2.86834 0.984664 
12 1 1 1 3.40703 3.46272 0.881156 
513 2 1 1 4.57273 3.28317 1.15697 
17 1 1 1 0.580337 3.74968 0.949666 
6 1 1 1 2.83675 4.20319 1.01558 
504 2 1 1 1.99673 4.42087 1.28418 
517 2 1 1 3.67278 4.99145 1.20772 
3 1 1 1 1.22569 0.198821 1.58231 
636 2 1 1 2.68748 0.0307898 1.71648 
5 1 1 1 3.5366 0.368611 1.43204 
8 1 1 1 4.28568 0.439655 1.92318 
514 2 1 1 2.91604 1.23897 1.66263 
13 1 1 1 3.79539 1.14002 1.96467 
523 2 1 1 2.52204 1.805 1.49421 
524 2 1 1 4.70317 2.13585 1.72062 
15 1 1 1 4.8057 2.71278 1.41639 
1 1 1 1 2.29506 3.44128 1.35625 
21 1 1 1 3.15736 3.60092 1.48267 
516 2 1 1 4.19556 3.83584 1.62844 
4 1 1 1 3.75307 3.97009 1.74696 
508 2 1 1 1.45453 4.81606 1.99104 
529 2 1 1 2.26322 4.66428 1.34912 
511 2 1 1 3.02092 4.97585 1.3614 
548 2 1 1 2.19961 1.02098 2.28647 
545 2 1 1 0.114116 1.41585 2.57109 
544 2 1 1 2.85563 1.30969 2.62662 
35 1 1 1 4.6693 1.27229 2.05597 
23 1 1 1 0.347092 2.37976 2.22222 
541 2 1 1 1.9873 2.30761 2.49816 
554 2 1 1 3.48115 2.13152 2.43158 
7 1 1 1 2.69575 2.94383 2.0381 
38 1 1 1 4.18777 2.54449 2.35982 
41 1 1 1 2.14394 3.58674 2.59116 
543 2 1 1 4.24675 3.48559 2.618 
537 2 1 1 4.50162 3.68889 2.11674 
547 2 1 1 2.98169 3.98494 2.37338 
532 2 1 1 3.81083 4.21495 2.40962 
550 2 1 1 4.48586 4.23169 2.65398 
39 1 1 1 4.5892 0.113151 2.66999 
40 1 1 1 4.61596 0.316693 3.26796 
22 1 1 1 2.12572 1.04093 3.28965 
555 2 1 1 4.22215 0.628792 3.05558 
534 2 1 1 1.83071 1.62596 2.72697 
540 2 1 1 2.67388 1.79005 3.30274 
533 2 1 1 4.9888 1.27258 3.09202 
552 2 1 1 4.47907 1.30432 3.00479 
536 2 1 1 0.231993 2.40665 2.97605 
551 2 1 1 1.01296 2.45536 2.73169 
31 1 1 1 2.82437 2.40429 2.83511 
557 2 1 1 4.09082 1.89768 2.93912 
42 1 1 1 0.93078 2.98098 3.2406 
30 1 1 1 1.68363 3.36132 2.80235 
24 1 1 1 2.38817 3.63672 2.884 
556 2 1 1 2.70777 3.72819 3.15026 
546 2 1 1 4.72621 3.55543 3.19556 
37 1 1 1 1.04015 3.9714 2.98254 
32 1 1 1 2.18466 4.8976 3.03998 
29 1 1 1 1.32396 0.222004 3.5855 
34 1 1 1 0.594731 0.795825 3.85459 
33 1 1 1 2.7435 0.884856 3.74897 
535 2 1 1 3.7064 0.828434 3.5224 
553 2 1 1 0.239498 1.8317 3.67909 
26 1 1 1 1.99293 1.87974 3.36425 
539 2 1 1 1.18373 2.33111 3.78937 
538 2 1 1 3.41479 2.33497 3.78036 
549 2 1 1 0.228382 3.5847 3.87112 
25 1 1 1 3.36403 3.39893 3.74446 
36 1 1 1 1.80991 3.87205 3.65534 
27 1 1 1 0.482377 4.72966 3.80666 
28 1 1 1 3.75611 4.52839 3.77006 
542 2 1 1 3.24986 4.85921 3.52395 
570 2 1 1 0.0372263 0.524623 4.28986 
560 2 1 1 2.49099 0.103299 4.32881 
562 2 1 1 2.26509 0.0108485 4.67234 
565 2 1 1 4.97506 0.556267 4.37286 
561 2 1 1 0.905396 0.657663 4.61109 
71 1 1 1 0.32826 1.2948 4.28563 
68 1 1 1 0.46972 2.21095 4.43408 
48 1 1 1 1.46995 2.69209 4.63067 
53 1 1 1 2.69049 3.3298 4.05831 
58 1 1 1 3.93872 3.22743 4.18035 
69 1 1 1 0.326084 4.2947 4.21464 
563 2 1 1 0.0482256 4.13118 4.49125 
44 1 1 1 3.37346 3.76269 4.58698 
558 2 1 1 4.7933 3.97385 4.26808 
67 1 1 1 1.48403 4.63945 4.18026 
54 1 1 1 2.82053 4.47672 4.39387 
55 1 1 1 0.475826 0.98855 5.14681 
63 1 1 1 1.26226 0.919699 4.76518 
51 1 1 1 2.0925 0.87618 5.29744 
49 1 1 1 0.319638 1.32129 4.81416 
62 1 1 1 1.17702 1.6928 5.1399 
47 1 1 1 4.7752 1.43689 5.08215 
50 1 1 1 0.721109 4.52003 4.85765 
571 2 1 1 0.918583 4.93941 5.06452 
43 1 1 1 1.5933 4.85116 5.0497 
45 1 1 1 1.81821 4.48467 4.71508 
572 2 1 1 2.41615 4.6607 5.25113 
60 1 1 1 2.88523 4.91297 4.9533 
559 2 1 1 4.13235 4.71879 5.1012 
564 2 1 1 0.0638037 0.0767416 5.68333 
566 2 1 1 1.55023 0.569235 5.83387 
59 1 1 1 3.22482 0.273221 5.56311 
64 1 1 1 0.699595 0.770438 5.96099 
57 1 1 1 0.0451718 1.82188 5.55501 
80 1 1 1 2.55824 1.56319 5.97617 
61 1 1 1 4.07802 1.55049 5.99007 
46 1 1 1 4.67982 1.68995 5.64731 
567 2 1 1 0.199187 2.33675 5.80119 
70 1 1 1 1.48944 2.00211 5.42735 
569 2 1 1 4.91015 2.15137 5.51819 
66 1 1 1 2.06336 3.337 5.82744 
52 1 1 1 2.68717 3.40632 5.86197 
574 2 1 1 4.5715 3.20111 5.66913 
573 2 1 1 0.270178 4.26822 5.40831 
568 2 1 1 1.94327 4.00548 5.44375 
575 2 1 1 4.51332 4.07048 5.72993 
56 1 1 1 2.16318 4.87731 6.0011 
95 1 1 1 1.12737 0.284125 6.07754 
588 2 1 1 3.09113 0.396505 6.33916 
578 2 1 1 1.47313 0.765183 6.32672 
84 1 1 1 1.18271 1.64688 6.19905 
583 2 1 1 2.97181 1.84005 6.40229 
99 1 1 1 0.172005 2.88283 6.36825 
92 1 1 1 3.31225 4.36645 6.27765 
91 1 1 1 0.317779 4.92149 6.10845 
103 1 1 1 1.10418 4.43395 6.24073 
85 1 1 1 4.81637 0.573026 7.04486 
90 1 1 1 0.096531 1.02128 7.29882 
579 2 1 1 0.727593 0.84115 6.87351 
78 1 1 1 3.47614 1.11271 6.84005 
337 1 1 1 0.0179971 1.447 6.75039 
86 1 1 1 1.4133 1.36106 7.00693 
582 2 1 1 4.74636 1.33091 6.73923 
100 1 1 1 0.130387 1.90488 7.19674 
580 2 1 1 2.37216 2.11402 7.18009 
585 2 1 1 1.8817 2.37146 7.20575 
589 2 1 1 2.57387 2.50547 6.66034 
96 1 1 1 3.45177 2.23724 6.90353 
81 1 1 1 2.02987 2.95632 7.26202 
584 2 1 1 3.55074 2.7973 7.33819 
592 2 1 1 2.15224 3.53752 6.7161 
101 1 1 1 3.04886 3.43272 6.82788 
83 1 1 1 4.67042 3.54673 7.05453 
591 2 1 1 2.54633 4.269 6.85108 
581 2 1 1 3.32062 3.88021 7.32781 
102 1 1 1 4.72134 4.1962 7.15251 
77 1 1 1 1.21415 4.79974 7.20848 
587 2 1 1 1.49061 0.143485 7.50241 
82 1 1 1 3.71071 0.226874 7.71486 
590 2 1 1 1.17794 1.07627 7.90517 
72 1 1 1 1.97418 0.691368 7.42873 
576 2 1 1 2.90267 0.934637 7.60468 
97 1 1 1 3.05372 1.71787 7.49826 
74 1 1 1 4.06831 1.74448 7.6249 
88 1 1 1 0.975217 2.13387 7.81469 
93 1 1 1 1.62141 2.33063 7.43413 
79 1 1 1 2.62181 2.09076 7.40406 
87 1 1 1 4.48898 2.25929 7.56225 
76 1 1 1 0.0504357 2.74528 7.72964 
593 2 1 1 1.21274 2.59987 7.98359 
73 1 1 1 2.10016 2.63387 7.93075 
586 2 1 1 2.6231 3.45201 7.54052 
75 1 1 1 4.00019 3.62806 7.47317 
98 1 1 1 0.50839 4.91426 7.70381 
577 2 1 1 2.86026 4.99275 7.76579 
89 1 1 1 3.97028 4.87807 7.86144 
122 1 1 1 0.486432 0.099706 8.06289 
118 1 1 1 2.39194 0.204223 8.13436 
119 1 1 1 1.0231 0.706843 8.35429 
125 1 1 1 3.3315 1.84493 8.20388 
104 1 1 1 3.81746 1.70772 8.66677 
126 1 1 1 4.22649 1.5854 8.35659 
107 1 1 1 1.24917 2.00886 8.60599 
111 1 1 1 1.09951 2.40833 8.2816 
110 1 1 1 4.0057 3.01796 8.58793 
108 1 1 1 0.126314 3.72035 8.24408 
117 1 1 1 2.78312 3.44579 8.2728 
106 1 1 1 3.6121 4.17753 8.66432 
115 1 1 1 2.10457 4.58906 8.66522 
601 2 1 1 2.77869 4.68375 8.45343 
598 2 1 1 4.00703 4.5916 8.20877 
124 1 1 1 0.12042 0.339679 9.12228 
112 1 1 1 1.00242 0.17114 9.03741 
120 1 1 1 2.73841 0.433503 9.08484 
123 1 1 1 4.57686 0.58882 8.7128 
127 1 1 1 0.0573238 1.12193 9.21743 
116 1 1 1 0.56774 1.46486 8.74593 
602 2 1 1 2.67171 1.32211 8.76459 
121 1 1 1 3.53023 2.20338 8.97793 
597 2 1 1 0.816498 3.13052 8.73744 
605 2 1 1 1.25389 2.77012 9.023 
114 1 1 1 3.58531 3.65526 9.30273 
105 1 1 1 4.43584 3.22759 8.93213 
594 2 1 1 3.14803 4.37867 8.73937 
604 2 1 1 2.54121 0.902852 9.50225 
606 2 1 1 0.21347 1.47411 9.48538 
607 2 1 1 1.05727 1.6086 9.90365 
599 2 1 1 2.93128 1.8394 9.53376 
128 1 1 1 3.8804 1.3911 9.53109 
610 2 1 1 0.431423 2.16956 9.72468 
600 2 1 1 1.11964 2.84538 9.52372 
608 2 1 1 4.79959 2.69259 9.57411 
603 2 1 1 1.99243 3.30017 9.5351 
595 2 1 1 4.51834 3.64106 9.63412 
272 1 1 1 0.0496565 3.7716 9.95363 
109 1 1 1 1.93847 4.06449 9.86693 
609 2 1 1 4.73944 3.9894 9.83189 
596 2 1 1 2.72107 4.67082 9.49113 
113 1 1 1 4.40061 4.46141 9.38094 
521 2 1 1 2.19863 5.08125 0.148858 
143 1 1 1 4.08441 5.35471 0.38059 
612 2 1 1 0.807205 6.03234 0.631765 
628 2 1 1 3.02134 6.02584 0.210232 
151 1 1 1 3.72816 6.13838 0.191273 
618 2 1 1 4.26514 6.0334 0.0131084 
619 2 1 1 4.8528 5.81365 0.117009 
137 1 1 1 1.47818 6.43944 0.0943886 
635 2 1 1 2.37326 7.34027 0.588447 
629 2 1 1 4.78183 7.56234 0.600684 
625 2 1 1 1.98411 8.69635 0.307874 
617 2 1 1 4.34574 8.33872 0.644946 
132 1 1 1 0.30479 9.53007 0.540179 
133 1 1 1 2.73029 9.63587 0.353414 
140 1 1 1 4.03554 9.61587 0.245672 
150 1 1 1 4.75283 9.65423 0.584878 
633 2 1 1 4.638 9.70295 0.0727893 
142 1 1 1 0.736738 5.28297 0.754996 
129 1 1 1 2.20274 5.15848 1.32368 
145 1 1 1 4.71447 5.25077 1.32901 
630 2 1 1 2.68734 5.64796 0.871248 
152 1 1 1 1.33602 6.85882 0.734605 
634 2 1 1 1.58396 6.49181 1.26014 
135 1 1 1 2.2233 6.34177 1.31615 
620 2 1 1 3.95729 6.37963 0.85492 
134 1 1 1 3.25898 7.23677 0.899027 
616 2 1 1 4.12261 7.00368 0.871825 
148 1 1 1 1.16491 7.60047 1.00705 
611 2 1 1 1.10915 8.11396 1.04126 
623 2 1 1 4.71131 8.28957 1.24356 
138 1 1 1 1.48861 9.08735 1.1345 
144 1 1 1 3.26448 8.83557 0.718079 
149 1 1 1 4.32171 9.1062 1.00485 
631 2 1 1 4.90057 9.0837 0.913564 
141 1 1 1 3.29487 9.79515 0.792713 
626 2 1 1 1.75371 5.28731 1.9615 
130 1 1 1 0.543722 5.91047 1.41184 
632 2 1 1 0.0567195 6.00946 1.97056 
131 1 1 1 1.9012 6.0916 1.84481 
613 2 1 1 2.97049 5.74869 1.5753 
627 2 1 1 3.89056 6.05393 1.59078 
622 2 1 1 0.766171 6.4403 1.76376 
614 2 1 1 3.69463 6.54373 1.6318 
139 1 1 1 0.244808 7.27723 1.51661 
621 2 1 1 0.329515 8.07808 1.67515 
147 1 1 1 2.02323 7.9914 1.44415 
615 2 1 1 4.01762 7.5524 1.8098 
641 2 1 1 1.85067 8.36682 1.9864 
624 2 1 1 2.57917 8.70455 1.80047 
136 1 1 1 0.0798467 8.87354 1.92881 
157 1 1 1 3.69638 9.14051 1.96062 
146 1 1 1 2.29088 9.77753 1.53936 
168 1 1 1 2.15503 5.85022 2.12309 
175 1 1 1 0.519465 6.77122 2.27051 
642 2 1 1 1.96242 6.41905 2.47528 
658 2 1 1 3.28024 6.49783 2.60682 
653 2 1 1 3.94221 6.50847 2.54918 
159 1 1 1 4.74101 6.53257 2.40546 
160 1 1 1 0.546181 8.49624 2.56086 
646 2 1 1 2.01922 8.7403 2.53946 
171 1 1 1 3.03642 8.49005 2.55271 
651 2 1 1 3.6879 8.23682 2.23898 
161 1 1 1 4.06686 8.44476 2.60409 
173 1 1 1 1.42397 8.82327 2.2517 
647 2 1 1 2.76669 9.07085 2.16333 
155 1 1 1 3.51051 8.93514 2.65418 
640 2 1 1 2.68206 9.6667 2.22624 
158 1 1 1 3.79183 5.57235 2.82861 
166 1 1 1 4.72391 6.12454 3.15096 
156 1 1 1 1.39663 6.69752 2.74349 
643 2 1 1 2.62088 6.58435 3.1243 
648 2 1 1 0.529504 7.11825 2.79001 
659 2 1 1 1.48771 7.24023 3.0262 
650 2 1 1 2.10394 7.01196 2.88381 
657 2 1 1 3.23292 7.3493 2.84575 
639 2 1 1 2.16765 8.13068 2.80397 
163 1 1 1 0.85621 8.79644 2.73185 
167 1 1 1 2.14132 8.86466 3.15299 
154 1 1 1 2.54164 8.88287 2.75654 
660 2 1 1 4.37242 9.12456 2.81375 
174 1 1 1 1.29565 9.96477 3.04533 
172 1 1 1 3.61517 9.50796 3.14061 
656 2 1 1 0.957144 6.13196 3.83705 
162 1 1 1 1.74459 5.65725 3.49028 
655 2 1 1 3.77719 5.75987 3.75039 
645 2 1 1 3.95525 6.61974 3.39101 
164 1 1 1 4.59421 6.54487 3.50215 
165 1 1 1 4.45165 7.02254 3.89351 
637 2 1 1 2.73286 7.74228 3.77172 
652 2 1 1 3.71561 7.67099 3.7503 
169 1 1 1 2.47325 8.55085 3.80464 
153 1 1 1 4.32345 8.26617 3.42118 
649 2 1 1 0.629848 8.8148 3.49049 
644 2 1 1 1.5754 9.2172 3.33997 
638 2 1 1 3.20752 9.0244 3.67489 
170 1 1 1 3.15226 9.83701 3.46519 
654 2 1 1 3.77877 9.75404 3.89762 
194 1 1 1 2.70453 6.21439 4.46378 
668 2 1 1 4.41432 5.62516 4.05928 
177 1 1 1 0.562078 6.53532 4.37177 
680 2 1 1 4.04847 6.36596 4.24446 
180 1 1 1 2.30173 7.39106 4.60362 
193 1 1 1 3.3537 7.34469 4.22556 
185 1 1 1 0.722654 8.01779 4.06887 
199 1 1 1 1.40679 8.01148 4.47293 
682 2 1 1 1.50885 7.70754 4.01333 
686 2 1 1 3.84039 7.87767 4.44743 
182 1 1 1 3.21629 8.50196 4.12072 
676 2 1 1 4.42239 8.59804 4.57045 
677 2 1 1 1.25832 9.24717 4.52699 
661 2 1 1 2.41143 9.16116 4.42408 
673 2 1 1 1.8916 9.13915 4.18311 
192 1 1 1 4.72286 9.49846 4.06022 
669 2 1 1 0.098147 5.05238 4.92398 
672 2 1 1 4.67049 5.39347 4.74136 
190 1 1 1 1.1743 5.77985 4.68701 
666 2 1 1 0.651064 5.95519 4.85408 
681 2 1 1 2.05306 6.30604 4.94947 
198 1 1 1 0.000804938 7.37057 4.78769 
183 1 1 1 0.680543 6.89027 5.24869 
675 2 1 1 3.6097 6.98608 4.84177 
189 1 1 1 0.545096 7.51666 5.01682 
186 1 1 1 0.105354 7.88578 5.2979 
178 1 1 1 2.2175 7.59767 5.28326 
181 1 1 1 2.99039 7.78346 4.77329 
184 1 1 1 3.98264 7.62528 4.80388 
679 2 1 1 1.2933 8.24516 4.9346 
684 2 1 1 2.24899 8.56897 5.13491 
678 2 1 1 3.60029 8.44649 5.1615 
670 2 1 1 1.47235 9.1209 5.0481 
662 2 1 1 3.06427 9.00681 4.69376 
195 1 1 1 4.34221 9.35539 4.8799 
65 1 1 1 0.152775 9.9881 4.76194 
187 1 1 1 3.06985 9.86166 5.11208 
664 2 1 1 1.97376 5.53209 5.41999 
674 2 1 1 4.68397 6.06336 5.40562 
179 1 1 1 1.67302 6.85039 5.6367 
683 2 1 1 4.07813 6.36494 5.95302 
176 1 1 1 0.439136 7.74997 5.96793 
671 2 1 1 1.62151 7.68885 5.3764 
196 1 1 1 3.45009 7.96737 5.39924 
685 2 1 1 4.68251 8.07651 5.6245 
665 2 1 1 0.784817 8.67133 5.6591 
191 1 1 1 2.75056 8.18573 5.87649 
188 1 1 1 3.28378 8.67591 5.95186 
197 1 1 1 3.91949 8.55434 5.93199 
667 2 1 1 1.38918 9.69248 5.73321 
663 2 1 1 4.70769 9.66648 5.90418 
709 2 1 1 0.0158621 5.34586 6.0851 
702 2 1 1 1.79311 5.16616 6.09481 
207 1 1 1 2.59823 5.6803 6.11635 
219 1 1 1 2.57077 5.94856 6.56516 
693 2 1 1 0.42311 6.65915 6.34486 
701 2 1 1 1.69287 6.41086 6.45917 
689 2 1 1 2.96952 6.4537 6.49671 
204 1 1 1 0.262013 7.4399 6.2411 
703 2 1 1 4.02339 7.00248 6.42728 
206 1 1 1 4.29576 7.83558 6.09721 
690 2 1 1 1.39947 8.20929 6.61513 
688 2 1 1 4.47004 8.69555 6.20428 
706 2 1 1 0.155349 9.33658 6.60364 
205 1 1 1 1.56422 9.08612 6.36333 
213 1 1 1 0.527009 9.84084 6.47442 
220 1 1 1 1.92248 9.73229 6.41578 
707 2 1 1 3.12214 9.61775 6.27077 
203 1 1 1 1.39325 6.26874 6.7353 
215 1 1 1 4.44211 6.41809 7.17762 
218 1 1 1 1.9038 7.12663 7.26185 
210 1 1 1 3.49212 6.92095 6.98987 
705 2 1 1 0.89934 8.05264 7.05363 
209 1 1 1 3.06972 7.84381 7.09262 
708 2 1 1 2.79108 8.01027 7.29189 
200 1 1 1 3.74199 7.9187 6.94973 
214 1 1 1 4.46839 7.51203 7.0653 
711 2 1 1 4.58193 7.88713 6.70267 
700 2 1 1 0.160415 8.1797 7.16562 
704 2 1 1 2.14376 8.2706 6.77849 
710 2 1 1 4.36562 8.16713 6.94982 
212 1 1 1 3.83909 8.55263 7.27675 
201 1 1 1 1.04679 9.35059 7.05857 
202 1 1 1 2.65958 9.98681 6.95016 
208 1 1 1 4.68233 9.52625 7.08932 
694 2 1 1 1.66247 5.22629 7.82153 
211 1 1 1 3.39226 5.06772 7.43396 
697 2 1 1 0.604385 6.21725 7.61117 
695 2 1 1 2.33457 5.78552 7.89844 
698 2 1 1 3.72063 5.69729 7.49278 
692 2 1 1 4.58925 6.10966 7.53453 
741 2 1 1 1.13898 6.74771 7.91057 
691 2 1 1 3.57301 6.29246 7.37115 
687 2 1 1 0.659625 7.20221 7.42324 
221 1 1 1 2.10529 8.56733 7.64749 
696 2 1 1 4.46896 8.25208 7.50365 
216 1 1 1 0.456797 8.9334 7.53268 
217 1 1 1 2.23642 9.49915 7.49194 
699 2 1 1 3.74341 9.48465 7.423 
240 1 1 1 1.82848 5.20207 8.48586 
743 2 1 1 4.2507 5.63788 8.12864 
224 1 1 1 1.45397 6.39577 8.09004 
712 2 1 1 4.94893 6.56047 8.1605 
720 2 1 1 1.22822 7.04507 8.19986 
714 2 1 1 1.83796 6.93854 8.4791 
238 1 1 1 3.1098 7.48429 8.16577 
222 1 1 1 0.838249 7.79502 8.2074 
243 1 1 1 0.88948 7.52007 8.65488 
225 1 1 1 2.65573 7.65114 8.39323 
734 2 1 1 1.75758 8.17122 8.44047 
241 1 1 1 0.328636 8.8314 8.59366 
227 1 1 1 0.711975 8.86187 8.18457 
230 1 1 1 3.28861 9.36189 8.19 
244 1 1 1 0.659735 9.57666 8.60196 
715 2 1 1 3.44824 9.93788 8.18755 
233 1 1 1 0.852581 5.26242 8.75748 
713 2 1 1 1.01512 6.18085 8.68311 
742 2 1 1 2.4665 6.00886 9.1681 
235 1 1 1 3.28758 5.69917 8.94442 
242 1 1 1 2.08177 6.30307 9.2087 
721 2 1 1 0.284921 7.20807 8.68542 
737 2 1 1 3.24593 7.16214 9.05765 
736 2 1 1 3.97963 6.98921 8.94503 
729 2 1 1 4.96269 7.18134 8.76138 
229 1 1 1 3.37084 7.5025 9.30681 
237 1 1 1 4.31509 8.00061 8.80116 
234 1 1 1 3.85606 8.0694 9.00894 
728 2 1 1 4.64959 7.93918 9.23564 
732 2 1 1 0.88394 8.35418 8.80444 
727 2 1 1 3.52188 8.67316 8.66311 
733 2 1 1 3.84843 8.58064 8.95124 
740 2 1 1 4.22633 8.609 9.23436 
725 2 1 1 0.329306 9.04112 9.1285 
223 1 1 1 4.65009 9.34132 8.95668 
248 1 1 1 0.464127 9.52478 9.32744 
726 2 1 1 2.37972 9.78854 8.85391 
735 2 1 1 2.30917 9.98024 9.18889 
247 1 1 1 3.25724 5.47867 9.69918 
228 1 1 1 3.90833 5.26367 9.65955 
739 2 1 1 4.75171 5.09158 9.94524 
717 2 1 1 1.30516 6.15203 9.36376 
738 2 1 1 3.20546 6.17874 9.51907 
719 2 1 1 4.60965 6.1512 9.3257 
730 2 1 1 0.840251 6.28889 9.67632 
239 1 1 1 2.37935 7.23694 9.70066 
723 2 1 1 3.99365 7.18118 9.86233 
984 2 1 1 4.97075 7.11569 9.66737 
716 2 1 1 0.30017 7.73406 9.87691 
246 1 1 1 2.6499 8.00326 9.62443 
231 1 1 1 3.505 7.8005 9.7196 
245 1 1 1 0.75065 8.48687 9.68779 
236 1 1 1 3.0286 8.55677 9.92973 
722 2 1 1 4.66169 8.1803 9.90314 
724 2 1 1 1.10634 8.79281 9.87666 
226 1 1 1 3.85091 9.07593 9.42309 
718 2 1 1 4.27697 9.11021 9.6781 
731 2 1 1 4.83482 9.30259 9.83529 
773 2 1 1 5.12633 0.274342 0.552476 
257 1 1 1 9.14352 0.387514 0.64008 
252 1 1 1 5.8574 0.956942 0.510208 
750 2 1 1 5.85676 0.844482 0.127613 
251 1 1 1 9.0485 0.649367 0.0150582 
256 1 1 1 6.54204 1.54049 0.0744054 
765 2 1 1 8.51453 1.53478 0.143629 
259 1 1 1 7.76007 2.1013 0.482897 
764 2 1 1 9.72029 2.17688 0.499847 
767 2 1 1 9.77416 1.97482 0.27397 
270 1 1 1 6.92861 2.80794 0.104741 
761 2 1 1 6.90214 2.56409 0.4955 
754 2 1 1 8.19564 3.1314 0.569001 
744 2 1 1 9.85537 3.36799 0.326537 
260 1 1 1 6.09435 4.06198 0.627315 
271 1 1 1 6.81544 4.02368 0.490557 
752 2 1 1 8.46843 3.86456 0.315345 
266 1 1 1 6.48701 4.69627 0.250368 
771 2 1 1 8.1603 4.93704 0.356829 
758 2 1 1 8.46181 0.111399 1.07987 
250 1 1 1 5.12636 0.999929 1.04591 
756 2 1 1 5.67511 0.915702 1.27342 
253 1 1 1 8.18391 1.69026 1.26418 
258 1 1 1 9.72248 1.53556 1.10509 
747 2 1 1 5.81625 2.36729 0.936166 
768 2 1 1 7.28031 1.9111 1.30301 
753 2 1 1 7.51488 2.46398 0.750186 
757 2 1 1 9.98462 2.28949 1.17754 
745 2 1 1 5.50669 3.30511 0.90085 
268 1 1 1 6.82625 3.42627 0.825531 
254 1 1 1 7.66928 3.33716 0.92588 
769 2 1 1 9.13506 3.52613 1.1471 
760 2 1 1 5.72988 3.87752 1.00607 
762 2 1 1 8.96543 3.85274 1.15748 
255 1 1 1 9.82828 4.10882 0.850734 
770 2 1 1 5.21424 4.69149 1.07838 
273 1 1 1 5.74178 4.7761 1.17546 
249 1 1 1 7.75537 4.49993 0.798858 
262 1 1 1 7.88422 4.74196 1.27854 
261 1 1 1 9.20525 4.4731 1.07703 
759 2 1 1 8.8399 4.54043 0.747263 
269 1 1 1 9.42521 4.86647 1.18116 
751 2 1 1 5.10593 0.576394 1.88345 
748 2 1 1 10.0033 0.822857 1.8189 
746 2 1 1 5.40228 1.47256 1.82358 
763 2 1 1 8.92242 1.56395 1.86416 
755 2 1 1 9.56781 2.66041 1.97179 
19 1 1 1 5.10344 3.17198 1.45419 
267 1 1 1 5.78276 3.70918 1.66439 
772 2 1 1 6.55145 3.56746 1.66462 
766 2 1 1 9.23724 3.64286 1.9077 
265 1 1 1 6.23598 4.53082 1.89782 
263 1 1 1 9.31567 4.49464 1.7249 
777 2 1 1 6.92058 0.580149 2.64686 
413 1 1 1 7.69719 0.0943679 2.53036 
790 2 1 1 9.38041 1.00118 2.24781 
778 2 1 1 8.18565 2.06901 2.41115 
296 1 1 1 8.98647 2.0492 2.39993 
782 2 1 1 5.43996 2.57623 2.27375 
287 1 1 1 6.34626 2.88797 2.3176 
277 1 1 1 5.76788 3.20058 2.41312 
781 2 1 1 7.35751 3.2021 2.04712 
286 1 1 1 8.62232 3.12828 2.16918 
794 2 1 1 5.36602 4.16541 2.08297 
791 2 1 1 7.90479 4.07541 2.3227 
302 1 1 1 9.85551 3.90045 2.30561 
299 1 1 1 5.10872 4.94074 2.36262 
788 2 1 1 6.79419 4.72477 2.38556 
297 1 1 1 7.69696 4.82994 2.42007 
300 1 1 1 8.66969 4.938 2.17296 
283 1 1 1 9.38004 4.57404 2.17607 
275 1 1 1 5.27724 0.739734 3.00684 
784 2 1 1 5.13859 0.993409 2.66575 
775 2 1 1 8.5818 1.11955 3.28386 
780 2 1 1 8.94733 0.644204 2.73949 
290 1 1 1 6.60918 1.57753 3.28268 
282 1 1 1 6.91993 2.43274 2.75055 
785 2 1 1 7.16754 2.10037 3.15726 
293 1 1 1 6.25352 2.8225 3.16927 
292 1 1 1 6.62652 3.58006 2.84044 
789 2 1 1 6.75747 3.46342 3.22835 
783 2 1 1 7.93339 3.42646 2.90434 
786 2 1 1 5.68525 4.11188 3.32274 
281 1 1 1 8.17459 4.25173 2.71095 
776 2 1 1 8.6424 3.97731 3.29005 
276 1 1 1 9.90006 3.83894 3.2278 
793 2 1 1 6.4818 4.38383 3.0847 
288 1 1 1 9.0733 4.90335 3.03183 
301 1 1 1 5.0873 0.402925 3.83186 
787 2 1 1 5.3886 0.0939703 3.50244 
795 2 1 1 6.31706 0.297937 3.95349 
298 1 1 1 7.1203 0.114554 3.40872 
792 2 1 1 7.489 0.298154 3.74474 
779 2 1 1 8.36842 0.537828 3.66417 
291 1 1 1 6.14199 1.0542 3.95044 
289 1 1 1 5.59598 1.7723 3.69379 
295 1 1 1 6.50723 2.33551 3.82666 
279 1 1 1 5.67907 2.6708 3.39043 
774 2 1 1 7.26806 3.00267 3.49347 
284 1 1 1 8.00252 2.91459 3.95038 
285 1 1 1 7.67663 2.62576 3.74905 
278 1 1 1 9.1041 2.64853 3.86239 
280 1 1 1 5.43764 3.36369 3.86436 
274 1 1 1 6.0296 3.36485 3.35065 
294 1 1 1 9.66897 4.51842 3.73149 
306 1 1 1 8.72674 1.13354 4.15022 
818 2 1 1 9.67501 0.947708 4.26187 
324 1 1 1 6.64595 1.7102 4.42844 
319 1 1 1 7.67529 1.40094 4.43549 
325 1 1 1 9.35501 1.33024 4.27268 
318 1 1 1 7.71186 2.06033 4.51195 
323 1 1 1 8.01101 2.42725 4.33047 
812 2 1 1 5.58509 2.49898 4.34484 
813 2 1 1 6.63056 2.67565 4.26377 
313 1 1 1 6.20559 3.61856 4.19067 
816 2 1 1 7.41879 3.51652 4.50154 
805 2 1 1 9.71163 3.255 4.53203 
316 1 1 1 5.3031 4.28867 4.49432 
322 1 1 1 9.42831 4.04814 4.24614 
304 1 1 1 6.13869 4.79888 4.63994 
811 2 1 1 5.84241 4.48572 4.16405 
321 1 1 1 8.86511 4.692 4.44286 
803 2 1 1 8.42289 0.517491 4.8969 
320 1 1 1 8.97254 0.816121 4.90975 
806 2 1 1 9.57777 0.686483 5.05857 
808 2 1 1 9.03207 1.32951 4.67334 
308 1 1 1 9.56092 1.50939 5.06222 
307 1 1 1 8.32643 2.3016 4.85853 
797 2 1 1 9.018 2.08149 4.83457 
305 1 1 1 9.68381 2.39473 4.75679 
796 2 1 1 5.52137 3.10595 4.87688 
817 2 1 1 5.05168 3.26334 5.04089 
310 1 1 1 6.29774 3.6007 5.15873 
314 1 1 1 7.91272 4.00613 4.94477 
315 1 1 1 9.67274 4.1533 4.93121 
309 1 1 1 7.61648 4.55395 4.85143 
799 2 1 1 8.39996 4.58842 5.28908 
317 1 1 1 9.41884 4.54589 5.07101 
810 2 1 1 9.58055 0.72852 5.65887 
809 2 1 1 5.89917 1.71687 5.73983 
303 1 1 1 9.40621 2.47199 5.54041 
798 2 1 1 5.44227 2.67387 5.4642 
802 2 1 1 6.66736 2.71282 5.37047 
814 2 1 1 7.45872 2.88815 5.93703 
804 2 1 1 8.85516 2.81609 5.42868 
311 1 1 1 5.0529 3.5241 5.92725 
815 2 1 1 5.36675 3.44902 5.90183 
807 2 1 1 8.17583 3.25231 5.37028 
801 2 1 1 6.4554 4.04358 5.96493 
312 1 1 1 7.52866 4.23935 5.54204 
800 2 1 1 9.39719 4.88863 5.90149 
821 2 1 1 7.19227 0.557886 6.38232 
349 1 1 1 5.34098 1.67689 6.28124 
355 1 1 1 7.70369 1.73175 6.43116 
832 2 1 1 6.24538 2.06782 6.41248 
831 2 1 1 9.41391 1.95138 6.52623 
819 2 1 1 6.04938 2.525 6.56679 
340 1 1 1 7.00933 2.50935 6.36811 
332 1 1 1 8.23216 2.51496 6.07536 
343 1 1 1 6.657 3.49928 6.32142 
348 1 1 1 6.96139 3.39469 6.57978 
345 1 1 1 5.41896 4.71645 6.51885 
835 2 1 1 7.64723 4.92932 6.34067 
335 1 1 1 6.24721 0.413122 6.72166 
334 1 1 1 8.10062 0.432863 7.06354 
830 2 1 1 5.27763 1.14974 6.77962 
353 1 1 1 5.96668 0.959291 6.98186 
827 2 1 1 8.90301 0.710122 6.84002 
825 2 1 1 9.67481 0.985008 6.76888 
342 1 1 1 5.32268 1.39397 7.26731 
338 1 1 1 7.50073 1.35378 7.12672 
833 2 1 1 5.03209 2.16632 7.23702 
354 1 1 1 5.77601 1.97539 6.86813 
333 1 1 1 6.80481 1.90767 6.71098 
331 1 1 1 6.50912 2.4478 7.29845 
346 1 1 1 8.24923 2.37366 6.94981 
823 2 1 1 9.2595 2.00475 7.23504 
94 1 1 1 5.01627 2.6352 7.15021 
350 1 1 1 9.86712 2.913 6.903 
351 1 1 1 5.44368 3.43145 7.17716 
336 1 1 1 6.63594 3.21395 7.04099 
837 2 1 1 7.55494 3.47083 6.99858 
341 1 1 1 9.12686 3.14583 6.96603 
824 2 1 1 7.17823 4.35876 6.94137 
344 1 1 1 8.5449 4.08503 7.1168 
339 1 1 1 9.93754 4.12588 6.93695 
952 2 1 1 5.49809 4.97304 6.82224 
829 2 1 1 6.64203 4.49023 7.18767 
828 2 1 1 7.40732 4.82815 6.83146 
347 1 1 1 6.46603 0.430685 7.68026 
826 2 1 1 9.42449 0.52962 7.59497 
329 1 1 1 7.05315 0.875978 7.41727 
822 2 1 1 8.37677 0.634879 7.89069 
330 1 1 1 7.95831 1.89238 7.73575 
836 2 1 1 6.48044 2.9377 7.4287 
326 1 1 1 9.09482 2.61707 7.7983 
327 1 1 1 7.79722 3.23837 7.52526 
834 2 1 1 5.15806 4.36964 7.33996 
352 1 1 1 6.96579 3.88049 7.63248 
328 1 1 1 9.6992 4.01361 7.77078 
373 1 1 1 9.5261 0.404233 8.30248 
870 2 1 1 5.24352 0.8761 8.04102 
858 2 1 1 5.10866 1.63874 8.52526 
857 2 1 1 7.0424 1.62779 8.28496 
848 2 1 1 9.29866 1.59225 8.1533 
854 2 1 1 9.7964 1.63623 8.61177 
852 2 1 1 8.16265 2.26414 8.26292 
840 2 1 1 5.86683 2.90454 8.56826 
359 1 1 1 7.3317 3.12242 8.26971 
869 2 1 1 7.91097 2.88412 8.18936 
845 2 1 1 8.86831 2.83242 8.24393 
864 2 1 1 8.21182 3.69622 8.0847 
377 1 1 1 5.48006 4.29037 8.08264 
853 2 1 1 9.90752 4.25457 8.24967 
371 1 1 1 5.52445 4.77333 8.37941 
850 2 1 1 7.57767 4.61379 8.10254 
376 1 1 1 8.16976 4.89474 8.64595 
379 1 1 1 8.4715 4.78211 8.12287 
374 1 1 1 9.96319 4.95373 8.45085 
370 1 1 1 5.94739 0.0934277 8.69926 
860 2 1 1 8.5881 0.170705 9.30075 
861 2 1 1 5.44222 0.650418 8.92763 
855 2 1 1 6.3923 0.632638 8.87837 
847 2 1 1 8.83056 1.23059 9.21515 
364 1 1 1 9.83565 0.646495 9.25077 
357 1 1 1 5.43288 2.03416 8.89785 
856 2 1 1 6.94499 2.29355 9.2424 
867 2 1 1 7.68802 2.38483 9.28124 
378 1 1 1 8.76445 3.09362 9.07719 
849 2 1 1 8.84186 2.51294 8.89142 
365 1 1 1 9.48742 3.03176 9.19668 
851 2 1 1 5.91002 3.7026 9.13819 
838 2 1 1 6.72115 3.66193 9.09663 
375 1 1 1 7.98574 3.71382 9.24469 
360 1 1 1 8.09135 3.30783 9.00201 
844 2 1 1 8.40864 3.4046 8.66483 
865 2 1 1 7.82967 4.52486 9.305 
380 1 1 1 9.79336 4.71276 8.73454 
839 2 1 1 5.9129 0.241363 9.36336 
862 2 1 1 8.17147 0.342073 9.76638 
372 1 1 1 5.07795 1.14696 9.39026 
363 1 1 1 5.82853 1.16267 9.35134 
863 2 1 1 8.35011 0.742473 9.45099 
843 2 1 1 9.74003 0.803275 9.94802 
362 1 1 1 7.07489 1.42353 9.48542 
366 1 1 1 7.81508 1.82268 9.75741 
356 1 1 1 8.65653 1.57702 9.35416 
866 2 1 1 8.27428 2.0772 9.97557 
368 1 1 1 9.45005 1.97911 9.71985 
868 2 1 1 5.7783 2.91119 9.34436 
842 2 1 1 8.01785 2.64348 9.35924 
841 2 1 1 8.93591 2.58743 9.77213 
846 2 1 1 5.16041 3.21697 9.36859 
361 1 1 1 5.96253 3.47445 10.0016 
369 1 1 1 8.48086 3.3175 9.54139 
358 1 1 1 9.27668 3.71001 9.70359 
367 1 1 1 7.36089 3.85131 9.43784 
859 2 1 1 6.32216 4.91896 9.73703 
890 2 1 1 5.42166 5.52248 0.256728 
749 2 1 1 6.54205 5.02981 0.4034 
875 2 1 1 7.96756 5.5731 0.292547 
404 1 1 1 9.92692 5.81542 0.285653 
385 1 1 1 6.47093 6.62461 0.297779 
394 1 1 1 7.97576 6.45641 0.536054 
401 1 1 1 5.59266 6.90531 0.138391 
897 2 1 1 6.71745 7.29728 0.11189 
872 2 1 1 9.39475 7.47681 0.389552 
392 1 1 1 6.00983 7.68618 0.0393014 
390 1 1 1 6.72841 7.85687 0.347131 
884 2 1 1 8.77981 7.60519 0.456453 
880 2 1 1 8.73434 8.31377 0.240189 
391 1 1 1 9.09127 8.25119 0.543294 
886 2 1 1 5.81074 9.12836 0.476935 
873 2 1 1 8.74863 8.80792 0.0665914 
396 1 1 1 5.90471 9.94032 0.571708 
889 2 1 1 7.14254 9.61683 0.529729 
264 1 1 1 8.46148 9.95372 0.45022 
399 1 1 1 9.84883 9.61359 0.289174 
389 1 1 1 5.37661 5.20572 0.799029 
403 1 1 1 5.29447 6.06733 0.764105 
384 1 1 1 6.27308 5.96087 0.781253 
888 2 1 1 7.62415 5.74031 0.95747 
871 2 1 1 8.37353 6.14663 0.949902 
892 2 1 1 8.76697 5.99554 1.08603 
383 1 1 1 5.37281 6.80783 1.27201 
877 2 1 1 5.9688 6.62371 1.17815 
395 1 1 1 5.47217 7.03514 0.717339 
878 2 1 1 6.4364 7.43267 0.982426 
405 1 1 1 7.80389 7.59766 1.02507 
387 1 1 1 6.49492 8.39851 1.16019 
400 1 1 1 7.16258 8.27042 0.715455 
881 2 1 1 8.59136 8.41434 1.28791 
895 2 1 1 8.86932 8.36724 0.944772 
398 1 1 1 6.27364 9.04909 1.13205 
876 2 1 1 6.71664 8.97953 0.892737 
896 2 1 1 7.85834 8.96782 0.772429 
381 1 1 1 5.44039 9.41618 1.0453 
382 1 1 1 6.26552 9.6951 1.19533 
891 2 1 1 6.97145 9.61598 1.03001 
386 1 1 1 9.50533 9.85221 1.02793 
898 2 1 1 5.36684 5.43134 1.45056 
393 1 1 1 8.19956 5.61573 1.538 
874 2 1 1 9.44937 5.55243 1.6012 
388 1 1 1 7.65538 5.89973 1.92244 
882 2 1 1 6.54814 6.73937 1.7491 
397 1 1 1 7.48821 7.38518 1.43353 
883 2 1 1 6.6084 7.64718 1.87077 
887 2 1 1 7.06916 7.9743 1.35362 
885 2 1 1 8.55193 7.74144 1.89135 
894 2 1 1 5.81295 8.71007 1.58478 
893 2 1 1 6.67948 8.96538 1.84487 
879 2 1 1 9.50708 9.10714 1.88014 
402 1 1 1 5.04537 9.68124 1.64633 
911 2 1 1 6.22162 5.06325 2.59305 
424 1 1 1 8.14472 5.07331 2.00527 
909 2 1 1 9.7675 5.19437 2.45255 
423 1 1 1 5.24263 5.72552 2.12521 
437 1 1 1 5.78726 5.64177 2.25053 
432 1 1 1 7.17794 5.92319 2.32951 
419 1 1 1 8.17066 5.67806 2.48441 
431 1 1 1 6.60473 6.61778 2.49545 
927 2 1 1 8.07481 6.37556 2.40961 
922 2 1 1 9.56594 6.2512 2.2454 
923 2 1 1 6.15537 7.06923 2.63753 
899 2 1 1 9.25781 7.04516 2.06603 
410 1 1 1 5.229 7.95332 2.41154 
914 2 1 1 6.47582 7.72278 2.62293 
901 2 1 1 6.96099 8.17751 2.44202 
426 1 1 1 9.91059 8.11978 2.42143 
411 1 1 1 5.5102 9.31435 2.43815 
921 2 1 1 8.34188 8.98841 2.03302 
422 1 1 1 5.01447 9.56116 2.42606 
908 2 1 1 6.25666 9.92278 2.03392 
928 2 1 1 7.84091 9.40118 2.08624 
417 1 1 1 8.3852 9.70053 2.37302 
904 2 1 1 8.39475 9.9169 2.00887 
903 2 1 1 8.94344 9.54188 2.3984 
912 2 1 1 9.70343 9.69092 2.07923 
414 1 1 1 7.26178 5.18457 3.15777 
902 2 1 1 8.0433 5.0996 3.04174 
918 2 1 1 5.50504 6.60516 3.23762 
412 1 1 1 8.73148 6.88266 2.79025 
915 2 1 1 8.15858 6.73524 2.85893 
415 1 1 1 9.10741 6.6507 2.71014 
425 1 1 1 7.50087 7.00622 3.31453 
916 2 1 1 5.66801 8.01297 3.24727 
917 2 1 1 9.49946 8.00975 3.20304 
407 1 1 1 6.95042 8.72098 3.19874 
429 1 1 1 9.25477 8.71333 2.76635 
436 1 1 1 9.60594 9.28582 3.1118 
905 2 1 1 9.87542 8.92374 2.6835 
906 2 1 1 7.06229 9.50382 3.15087 
926 2 1 1 7.93071 9.54843 2.67919 
433 1 1 1 7.78366 9.70097 3.1522 
427 1 1 1 9.178 9.62911 2.8473 
900 2 1 1 5.49594 5.35152 3.65891 
430 1 1 1 6.09137 5.49577 3.86031 
406 1 1 1 6.79234 5.06365 3.76403 
919 2 1 1 8.8113 5.25922 3.46587 
408 1 1 1 9.74745 5.06328 4.00446 
418 1 1 1 9.46999 5.21302 3.35595 
924 2 1 1 9.55876 5.8047 3.75915 
420 1 1 1 5.74667 6.26617 3.95524 
428 1 1 1 6.67905 6.73523 3.90821 
907 2 1 1 6.37123 6.37573 3.73937 