ITEM: TIMESTEP
500000
ITEM: NUMBER OF ATOMS
1000
ITEM: BOX BOUNDS pp pp pp
0 10
0 10
0 10
ITEM: ATOMS id type diameter density x y z 
43 1 1 1 3.64721 0.00251155 0.10544 
927 2 1 1 4.48482 0.483092 0.532733 
5 1 1 1 0.208272 1.10375 0.289193 
37 1 1 1 1.66026 1.06731 0.415299 
36 1 1 1 2.65055 0.714584 0.055442 
404 1 1 1 3.60427 1.00509 0.140241 
418 1 1 1 2.42183 1.70326 0.28418 
541 2 1 1 0.753712 2.06506 0.324353 
142 1 1 1 3.6658 2.00269 0.107851 
175 1 1 1 4.60094 2.31975 0.347243 
7 1 1 1 0.124357 2.79236 0.635281 
501 2 1 1 1.71542 2.76917 0.00638091 
20 1 1 1 2.74711 2.62045 0.0520549 
147 1 1 1 4.6135 3.31291 0.536828 
607 2 1 1 0.209302 4.37707 0.582313 
152 1 1 1 3.6209 3.9131 0.1454 
107 1 1 1 1.4533 4.86484 0.0631981 
635 2 1 1 4.52891 4.4285 0.590822 
49 1 1 1 1.71205 0.136874 0.77877 
61 1 1 1 3.59423 0.470929 0.987679 
561 2 1 1 0.868722 0.651486 0.933671 
70 1 1 1 2.76454 1.02921 0.99893 
26 1 1 1 0.0863461 1.78426 1.15414 
762 2 1 1 4.24074 1.52585 0.859455 
504 2 1 1 1.4791 2.50326 1.28603 
263 1 1 1 3.17104 1.94882 0.975689 
600 2 1 1 2.95241 2.87598 1.28078 
521 2 1 1 3.82065 2.75378 0.79804 
1 1 1 1 1.06368 3.36409 0.985907 
531 2 1 1 2.00782 3.73394 0.861941 
242 1 1 1 3.81376 3.75977 1.11462 
605 2 1 1 1.98172 4.72911 0.960828 
117 1 1 1 2.98396 4.45711 0.713524 
562 2 1 1 1.44137 0.525714 1.95979 
663 2 1 1 2.41781 0.382439 1.77416 
87 1 1 1 3.43138 0.0939393 1.89959 
551 2 1 1 0.674355 1.14261 1.78318 
776 2 1 1 4.56229 0.782082 1.49396 
30 1 1 1 1.59493 1.56236 1.63741 
283 1 1 1 2.54573 1.80794 1.83175 
50 1 1 1 3.58907 1.27419 1.5842 
674 2 1 1 4.96879 1.82831 1.60723 
41 1 1 1 0.448992 2.61152 1.6297 
872 2 1 1 4.23399 2.5034 1.67356 
526 2 1 1 2.08672 3.18867 1.70165 
272 1 1 1 3.67926 3.27729 1.98015 
610 2 1 1 1.41553 4.08924 1.60584 
109 1 1 1 2.81818 3.86523 1.61108 
646 2 1 1 4.85907 3.84586 1.34671 
860 2 1 1 0.474758 4.50296 1.54216 
597 2 1 1 3.4969 4.59887 1.57653 
167 1 1 1 0.138271 0.0574228 2.56495 
235 1 1 1 4.27972 0.0961487 2.43973 
566 2 1 1 2.01357 1.17382 2.48574 
589 2 1 1 2.98466 0.991494 2.32906 
592 2 1 1 4.60278 1.09608 2.44624 
518 2 1 1 0.141708 1.85593 2.23888 
17 1 1 1 0.925494 2.38967 2.5566 
766 2 1 1 3.43346 2.13633 2.1583 
264 1 1 1 0.0673724 2.903 2.54431 
508 2 1 1 1.90925 2.50102 2.40753 
255 1 1 1 2.82029 2.90688 2.33414 
519 2 1 1 1.17779 3.25025 2.11411 
659 2 1 1 4.62312 3.47738 2.24592 
891 2 1 1 0.356377 3.8179 2.26134 
251 1 1 1 1.28907 4.09484 2.63793 
841 2 1 1 2.26557 3.84658 2.48539 
365 1 1 1 3.1653 4.28692 2.47787 
768 2 1 1 0.592894 4.79984 2.50032 
899 2 1 1 4.16272 4.3587 2.47534 
74 1 1 1 2.30962 0.258936 2.86226 
105 1 1 1 3.39829 0.231904 2.89223 
644 2 1 1 0.670311 1.12875 2.79531 
79 1 1 1 3.69653 1.46785 2.85397 
42 1 1 1 1.57229 2.10701 3.26497 
84 1 1 1 2.70649 2.03548 2.8928 
408 1 1 1 4.61016 1.98515 2.90489 
765 2 1 1 1.61555 3.11093 3.22905 
269 1 1 1 2.61022 3.07015 3.32433 
783 2 1 1 3.83068 2.5965 3.04392 
758 2 1 1 0.68443 3.46456 3.13932 
752 2 1 1 3.75384 3.60142 3.06004 
749 2 1 1 4.73974 3.1922 3.19728 
673 2 1 1 0.669591 0.0917725 3.41602 
114 1 1 1 2.59486 0.134539 3.92081 
197 1 1 1 1.48716 0.890975 3.33092 
584 2 1 1 2.85659 1.01596 3.32055 
515 2 1 1 4.27157 0.975452 3.50733 
698 2 1 1 4.95307 1.70245 3.80076 
294 1 1 1 2.36702 1.91071 3.83932 
571 2 1 1 3.35082 1.98128 3.67 
302 1 1 1 0.628793 2.57528 3.64601 
286 1 1 1 3.30642 3.42136 3.9505 
253 1 1 1 0.807287 4.32692 3.8285 
767 2 1 1 1.75017 4.09175 3.57909 
358 1 1 1 2.72405 4.07554 3.3514 
290 1 1 1 0.156222 4.95704 3.3862 
380 1 1 1 2.26438 4.96587 3.548 
979 2 1 1 3.52504 4.67405 3.37421 
154 1 1 1 4.64261 4.5012 3.34138 
268 1 1 1 3.52708 0.507068 3.98331 
113 1 1 1 4.97773 0.578058 4.09415 
78 1 1 1 0.675199 0.827782 4.41075 
608 2 1 1 1.67527 0.760506 4.42161 
546 2 1 1 2.62735 1.06052 4.29709 
570 2 1 1 0.228006 1.71528 4.29385 
583 2 1 1 1.21955 1.58538 4.04181 
12 1 1 1 3.55743 1.393 4.45425 
578 2 1 1 1.59065 2.35213 4.57513 
510 2 1 1 3.94184 2.31673 4.41583 
215 1 1 1 4.91137 2.69049 4.05273 
774 2 1 1 0.404538 3.43785 4.09956 
744 2 1 1 1.91578 3.21879 4.18679 
669 2 1 1 4.15995 3.29227 4.59728 
769 2 1 1 2.43505 4.06465 4.30875 
177 1 1 1 4.02732 4.11062 4.03016 
193 1 1 1 4.9627 3.76645 4.11235 
866 2 1 1 1.50913 4.95649 4.49159 
647 2 1 1 4.70515 4.75383 4.41169 
782 2 1 1 2.29499 0.122831 4.92781 
277 1 1 1 3.19622 0.573237 4.95973 
44 1 1 1 2.31082 1.11028 5.24437 
848 2 1 1 4.19397 0.61424 4.90551 
104 1 1 1 0.375292 1.64179 5.29256 
554 2 1 1 1.32662 1.38438 5.12299 
361 1 1 1 4.52172 1.54268 4.6891 
110 1 1 1 2.82916 2.09568 4.70665 
68 1 1 1 0.617074 2.5362 4.71381 
755 2 1 1 0.872792 3.4646 4.9871 
276 1 1 1 2.76568 3.16573 4.75659 
764 2 1 1 1.71106 4.12176 5.0044 
262 1 1 1 3.32543 4.1833 4.74826 
164 1 1 1 4.932 4.30177 5.27496 
324 1 1 1 0.719739 4.43987 4.82703 
279 1 1 1 1.66712 0.489785 5.7569 
867 2 1 1 3.34198 0.614538 5.94866 
338 1 1 1 4.86647 0.0905049 5.4302 
833 2 1 1 0.650543 0.68546 5.53839 
488 1 1 1 4.34536 0.838923 5.86834 
274 1 1 1 3.65344 1.44708 5.473 
594 2 1 1 1.84054 2.14446 5.52266 
532 2 1 1 3.40334 2.43455 5.45196 
558 2 1 1 4.40504 2.36339 5.30738 
97 1 1 1 0.738061 2.74861 5.6904 
577 2 1 1 2.51674 2.91211 5.7827 
325 1 1 1 0.161724 3.5658 5.68372 
296 1 1 1 1.59171 3.30303 5.66371 
322 1 1 1 3.52921 3.42285 5.36507 
214 1 1 1 4.51502 3.37399 5.53054 
318 1 1 1 0.988836 4.12632 5.74773 
814 2 1 1 2.62439 3.92674 5.4155 
292 1 1 1 2.85036 4.84386 5.95149 
664 2 1 1 3.74743 4.82745 5.41639 
123 1 1 1 0.908091 0.505673 6.51108 
473 1 1 1 4.08341 0.00461943 6.43133 
559 2 1 1 2.56531 1.18867 6.20827 
543 2 1 1 1.36277 1.36776 6.12962 
482 1 1 1 4.62705 1.57584 6.5963 
512 2 1 1 0.542962 1.9326 6.23453 
27 1 1 1 2.00232 2.04323 6.5043 
393 1 1 1 3.07116 1.96349 6.58753 
54 1 1 1 3.99038 2.26115 6.24273 
278 1 1 1 0.645108 3.51814 6.56301 
28 1 1 1 3.64946 3.17988 6.44385 
702 2 1 1 2.56483 3.83468 6.40959 
284 1 1 1 3.52558 4.11694 6.08497 
829 2 1 1 0.0179686 4.44131 6.14504 
307 1 1 1 0.890135 4.71832 6.54846 
285 1 1 1 1.88779 4.46776 6.02292 
680 2 1 1 4.38181 4.39099 6.52431 
557 2 1 1 0.307162 1.24057 6.91684 
556 2 1 1 1.57101 0.997342 7.07777 
747 2 1 1 2.504 0.626332 7.03292 
280 1 1 1 3.87748 0.931972 6.75069 
656 2 1 1 3.89188 1.9485 7.18753 
128 1 1 1 0.851106 2.6025 6.91031 
529 2 1 1 2.34557 2.93701 6.79324 
641 2 1 1 4.88105 2.59623 7.26311 
658 2 1 1 4.60177 3.45888 6.81362 
797 2 1 1 0.51435 4.18001 7.3031 
580 2 1 1 1.58949 3.77067 6.80503 
630 2 1 1 3.29277 4.07738 7.05688 
816 2 1 1 1.80065 4.95298 6.89448 
13 1 1 1 0.52656 0.513703 7.56773 
170 1 1 1 1.85437 0.3144 7.79294 
535 2 1 1 3.0179 0.379862 7.9009 
496 1 1 1 4.8697 0.477232 7.52655 
746 2 1 1 4.07518 1.0189 7.81708 
540 2 1 1 0.393292 1.4556 7.90544 
162 1 1 1 2.27072 1.64426 7.38112 
53 1 1 1 3.1955 1.26406 7.40613 
895 2 1 1 4.81401 1.64861 7.57605 
505 2 1 1 0.459079 2.45793 7.82559 
542 2 1 1 1.38762 2.03938 7.9654 
424 1 1 1 3.00736 2.25785 7.66731 
11 1 1 1 1.60166 2.94806 7.6055 
139 1 1 1 3.83611 2.94551 7.40291 
72 1 1 1 0.0773025 3.27365 7.39003 
148 1 1 1 2.5316 3.1573 7.99126 
742 2 1 1 2.36434 3.95573 7.41073 
511 2 1 1 4.22814 4.1586 7.5035 
323 1 1 1 1.07517 4.99094 7.5928 
737 2 1 1 2.98705 4.7793 7.82731 
45 1 1 1 3.8909 0.198512 8.35838 
539 2 1 1 1.96177 1.20879 8.22714 
450 1 1 1 2.90876 1.51002 8.33902 
300 1 1 1 3.80446 1.92688 8.18422 
547 2 1 1 0.933533 2.91347 8.64231 
612 2 1 1 3.6506 2.95231 8.49156 
134 1 1 1 4.58689 2.73089 8.21575 
602 2 1 1 0.964187 3.74399 8.08256 
729 2 1 1 4.92533 3.66934 8.51161 
596 2 1 1 1.9069 3.82531 8.42124 
736 2 1 1 2.79547 4.21114 8.6708 
503 2 1 1 3.43901 3.80225 8.00715 
57 1 1 1 0.259219 4.96802 8.20931 
567 2 1 1 1.37585 4.66352 8.5472 
940 2 1 1 4.01376 4.73177 8.39462 
63 1 1 1 0.823178 0.0801526 9.24054 
25 1 1 1 1.66675 0.450145 8.80805 
32 1 1 1 2.68353 0.446125 8.85712 
379 1 1 1 4.82511 0.286167 9.14884 
544 2 1 1 0.184621 0.880698 8.71734 
288 1 1 1 3.75893 0.776863 9.17612 
939 2 1 1 4.5562 1.14826 8.68989 
67 1 1 1 1.0822 1.37872 8.67603 
874 2 1 1 1.91464 2.01262 8.82019 
922 2 1 1 2.79914 2.45595 8.66371 
892 2 1 1 3.98869 2.19519 9.13 
21 1 1 1 1.88238 3.04967 9.05417 
236 1 1 1 0.00628213 3.35613 8.78744 
634 2 1 1 3.00201 3.39448 9.21696 
129 1 1 1 4.38938 3.13578 9.16598 
120 1 1 1 0.541234 4.20931 8.86027 
229 1 1 1 3.80863 3.92084 8.94335 
125 1 1 1 2.18088 4.87993 9.31687 
62 1 1 1 1.72547 0.241705 9.78435 
24 1 1 1 1.04291 1.07473 9.62847 
626 2 1 1 2.16105 1.16834 9.31066 
130 1 1 1 3.11706 1.53353 9.31699 
759 2 1 1 4.38197 1.45209 9.67644 
909 2 1 1 0.665156 2.25352 9.34476 
601 2 1 1 3.66353 2.96404 9.83225 
603 2 1 1 2.31909 3.5973 9.92119 
604 2 1 1 0.778811 3.83138 9.94148 
121 1 1 1 1.59938 4.06996 9.41244 
234 1 1 1 4.70757 3.9122 9.74184 
628 2 1 1 3.05739 4.62872 9.73081 
999 2 1 1 4.07167 4.68284 9.69269 
586 2 1 1 2.40592 5.25657 0.224421 
238 1 1 1 3.36907 5.50715 0.100903 
820 2 1 1 4.36357 5.5827 0.0280284 
579 2 1 1 1.08717 6.07567 0.39437 
225 1 1 1 2.14414 6.48169 0.153435 
727 2 1 1 3.08579 6.80249 0.0455893 
997 2 1 1 4.0484 6.53153 0.0482847 
585 2 1 1 0.918564 7.41416 0.574267 
714 2 1 1 1.82424 7.43169 0.125748 
477 1 1 1 4.72397 7.25499 0.337039 
150 1 1 1 2.76274 7.78438 0.167033 
362 1 1 1 3.77624 7.55801 0.152084 
52 1 1 1 3.55218 8.68802 0.351811 
975 2 1 1 4.55147 8.37873 0.314345 
548 2 1 1 1.08819 8.94365 0.0891134 
80 1 1 1 2.0132 9.22255 0.433844 
534 2 1 1 0.808644 9.88055 0.299009 
568 2 1 1 4.55552 9.4856 0.529445 
116 1 1 1 0.929835 5.15675 0.936886 
86 1 1 1 1.73116 5.73044 1.10992 
77 1 1 1 2.66853 6.00103 0.883664 
696 2 1 1 3.95097 5.73504 0.928623 
963 2 1 1 4.95884 5.69856 1.30105 
869 2 1 1 0.0998064 6.87588 0.774262 
81 1 1 1 1.55538 6.7198 1.00387 
718 2 1 1 2.94978 6.95074 1.0342 
839 2 1 1 3.95414 6.85261 0.990669 
538 2 1 1 3.28674 7.96309 1.0016 
654 2 1 1 4.35338 7.77076 1.10994 
99 1 1 1 0.561161 8.33874 0.706878 
22 1 1 1 1.88161 8.2419 0.802328 
133 1 1 1 1.02102 9.03214 1.26161 
51 1 1 1 2.8197 8.9134 0.994755 
588 2 1 1 2.76515 9.91128 0.94991 
59 1 1 1 3.6766 9.45524 1.00586 
111 1 1 1 1.63579 5.04375 1.84477 
73 1 1 1 2.62479 4.99315 2.00755 
144 1 1 1 4.39648 5.00149 1.74584 
88 1 1 1 0.763358 6.20659 1.3492 
625 2 1 1 3.24571 5.68673 1.64014 
140 1 1 1 4.05242 6.25928 1.79004 
750 2 1 1 4.89775 6.68732 1.43754 
716 2 1 1 2.11145 7.21523 1.68617 
560 2 1 1 3.47079 7.16017 1.89048 
100 1 1 1 0.187129 7.6788 1.40275 
593 2 1 1 1.2406 7.76325 1.52799 
661 2 1 1 1.75983 8.58345 1.76831 
187 1 1 1 2.72652 8.25818 1.77763 
46 1 1 1 3.78612 8.12104 1.85532 
574 2 1 1 4.54197 8.76123 1.37655 
3 1 1 1 0.333591 9.62271 1.68433 
188 1 1 1 2.0249 9.50638 1.48912 
591 2 1 1 4.4825 9.75567 1.52131 
138 1 1 1 3.56683 5.20562 2.52783 
854 2 1 1 0.941088 5.69016 2.19345 
240 1 1 1 2.22699 5.96191 2.00757 
633 2 1 1 4.74944 5.62185 2.61712 
367 1 1 1 0.304144 6.5221 2.31159 
115 1 1 1 1.39936 6.5899 2.02451 
174 1 1 1 2.94475 6.46312 2.49098 
845 2 1 1 0.581021 7.48302 2.31789 
884 2 1 1 1.65214 7.34792 2.62608 
502 2 1 1 4.44054 7.27123 2.10838 
662 2 1 1 2.65635 7.51065 2.49398 
29 1 1 1 0.775003 8.8759 2.24454 
582 2 1 1 2.18893 9.34872 2.46402 
75 1 1 1 3.06399 9.17043 2.00989 
581 2 1 1 4.19501 8.88904 2.3498 
169 1 1 1 1.17614 9.74167 2.5445 
368 1 1 1 1.5517 5.03812 2.84134 
717 2 1 1 2.68479 5.57595 2.87571 
862 2 1 1 0.488567 5.89151 3.09548 
849 2 1 1 1.61111 6.05456 2.84301 
638 2 1 1 3.87581 6.12693 2.76577 
378 1 1 1 0.939692 6.78472 3.04541 
160 1 1 1 2.32185 6.61845 3.29293 
172 1 1 1 3.19779 7.0964 3.22642 
35 1 1 1 4.19168 7.03226 3.04979 
108 1 1 1 0.665831 8.08905 3.1209 
301 1 1 1 3.44332 8.05098 2.79227 
349 1 1 1 4.45965 7.9707 2.82333 
684 2 1 1 1.53178 8.39234 2.72306 
192 1 1 1 2.50929 8.3972 2.9342 
173 1 1 1 0.321214 9.02456 3.32085 
598 2 1 1 3.41376 9.05385 3.01225 
377 1 1 1 4.61469 8.83821 3.32244 
356 1 1 1 1.05342 5.29729 3.66881 
639 2 1 1 3.1301 5.50397 3.76823 
141 1 1 1 4.14125 5.46648 3.46834 
375 1 1 1 1.71201 6.0397 3.84034 
842 2 1 1 0.701278 6.25395 4.01467 
149 1 1 1 3.74374 6.28418 3.88962 
402 1 1 1 4.75208 6.26869 3.38645 
360 1 1 1 0.280767 7.40136 3.97612 
648 2 1 1 1.24243 7.0954 3.94789 
565 2 1 1 3.85374 7.2757 3.95966 
40 1 1 1 4.89634 7.31629 3.75191 
636 2 1 1 2.14995 7.61338 3.45176 
676 2 1 1 1.94672 8.52824 3.80068 
342 1 1 1 2.92938 8.37068 3.9375 
354 1 1 1 3.9265 8.25951 3.77326 
182 1 1 1 1.3132 9.14986 3.33906 
840 2 1 1 2.53013 9.25874 3.44219 
82 1 1 1 1.61234 9.99614 3.77991 
846 2 1 1 4.13036 9.71592 3.35775 
259 1 1 1 0.314997 5.21902 4.33858 
261 1 1 1 2.35637 5.48003 4.4013 
415 1 1 1 3.7392 5.03715 4.43243 
157 1 1 1 4.44454 5.74421 4.38166 
171 1 1 1 2.53705 6.45288 4.25647 
180 1 1 1 2.87527 7.38875 4.13814 
682 2 1 1 1.0147 8.06973 4.10213 
920 2 1 1 1.93422 7.63183 4.43129 
353 1 1 1 4.8774 8.25877 4.09694 
199 1 1 1 0.622977 8.85046 4.58905 
357 1 1 1 2.28633 9.24221 4.413 
851 2 1 1 3.28902 9.27705 4.15931 
836 2 1 1 4.17604 8.78051 4.59626 
333 1 1 1 4.98772 9.26641 4.26042 
195 1 1 1 0.764705 9.83023 4.42789 
838 2 1 1 4.1303 9.78016 4.35752 
778 2 1 1 0.184224 5.10796 5.34404 
281 1 1 1 2.13559 5.12503 5.31001 
652 2 1 1 4.64704 5.27399 5.30774 
369 1 1 1 0.940858 5.79243 4.86982 
791 2 1 1 2.64163 5.98877 5.26111 
190 1 1 1 3.6856 5.79061 5.12918 
384 1 1 1 1.61639 6.61434 4.77408 
155 1 1 1 3.35315 6.67212 4.79263 
446 1 1 1 4.54515 6.29671 5.2091 
254 1 1 1 0.710362 6.92603 5.10492 
637 2 1 1 2.43492 7.15364 5.15303 
426 1 1 1 0.392282 7.8544 4.87067 
198 1 1 1 1.31807 8.0994 5.2684 
830 2 1 1 3.40007 7.60812 5.14392 
291 1 1 1 4.32325 7.70954 4.72877 
347 1 1 1 2.30487 8.29367 5.08289 
858 2 1 1 3.24367 8.58825 4.90258 
868 2 1 1 3.68115 9.74188 5.25622 
813 2 1 1 1.19145 5.19637 5.63333 
781 2 1 1 0.340958 6.09007 5.61924 
788 2 1 1 1.44589 6.21557 5.67705 
660 2 1 1 3.63459 6.58664 5.75558 
917 2 1 1 1.57441 7.21759 5.6892 
795 2 1 1 4.52071 7.09099 5.90828 
186 1 1 1 0.267591 8.2735 5.78989 
934 2 1 1 4.54616 8.15369 5.59658 
181 1 1 1 1.07469 8.85524 5.89152 
10 1 1 1 2.57717 9.2123 5.36943 
330 1 1 1 3.61978 8.81185 5.80795 
331 1 1 1 4.51876 9.15608 5.53411 
178 1 1 1 0.191628 9.45058 5.75162 
685 2 1 1 1.07618 9.77147 5.37922 
312 1 1 1 0.182256 5.41596 6.34116 
902 2 1 1 2.11561 5.59332 6.19357 
153 1 1 1 3.86906 5.22623 6.32554 
406 1 1 1 1.13557 5.68712 6.50532 
297 1 1 1 3.08989 5.82541 6.14117 
456 1 1 1 4.38773 6.06981 6.46468 
919 2 1 1 1.52373 6.60636 6.59505 
945 2 1 1 2.35537 6.55233 6.04223 
313 1 1 1 0.453322 6.96998 6.08114 
948 2 1 1 2.00211 7.48586 6.55225 
474 1 1 1 2.86391 7.41306 6.01828 
470 1 1 1 0.996134 7.78766 6.27314 
329 1 1 1 3.79102 7.7714 6.12916 
856 2 1 1 2.00471 8.34222 6.03584 
822 2 1 1 2.94361 8.34095 6.38291 
949 2 1 1 4.63858 9.17268 6.52683 
126 1 1 1 0.704133 9.52468 6.60715 
372 1 1 1 1.84041 9.49169 5.98524 
47 1 1 1 3.12878 9.64124 6.08486 
789 2 1 1 2.77308 5.18682 6.88797 
211 1 1 1 3.70263 5.34433 7.33986 
916 2 1 1 4.6766 5.56904 7.28369 
835 2 1 1 0.503513 5.75648 7.27914 
321 1 1 1 2.04974 5.93906 7.13532 
675 2 1 1 2.9284 6.45424 6.90178 
453 1 1 1 0.695276 6.9327 7.05075 
857 2 1 1 3.13818 7.41364 7.29438 
335 1 1 1 3.78643 6.92435 6.68949 
943 2 1 1 4.75683 7.0031 6.91988 
686 2 1 1 1.21811 8.57677 6.8459 
363 1 1 1 2.17017 8.2494 7.17983 
821 2 1 1 4.47471 8.19528 6.72359 
256 1 1 1 2.47019 9.16606 6.69131 
827 2 1 1 3.56234 9.00358 6.80548 
552 2 1 1 1.74654 9.95984 6.86411 
880 2 1 1 3.26208 9.96006 7.02501 
573 2 1 1 2.04599 5.18238 7.83662 
317 1 1 1 2.86233 5.77069 7.69491 
314 1 1 1 1.39043 6.51685 7.75852 
709 2 1 1 2.40788 6.78284 7.68987 
935 2 1 1 3.68527 6.33393 7.54417 
334 1 1 1 4.65598 6.4556 7.7639 
348 1 1 1 0.610425 7.39853 7.944 
933 2 1 1 1.47559 7.45407 7.40566 
463 1 1 1 4.13472 7.55785 7.47319 
91 1 1 1 0.336612 8.38475 7.60264 
870 2 1 1 1.32386 8.32924 7.87034 
988 2 1 1 3.1038 8.44347 7.49546 
998 2 1 1 4.09456 8.55572 7.57762 
223 1 1 1 1.13682 9.33921 7.48971 
689 2 1 1 0.102193 9.40696 7.48088 
15 1 1 1 2.57584 9.49831 7.629 
993 2 1 1 3.55933 9.42556 7.81727 
957 2 1 1 4.50419 9.47854 7.46938 
219 1 1 1 2.68093 5.35262 8.59042 
332 1 1 1 0.704815 5.96051 8.23718 
66 1 1 1 1.6141 5.62962 8.64786 
971 2 1 1 4.17662 5.70874 8.23279 
825 2 1 1 0.150515 6.79682 8.59733 
807 2 1 1 1.97622 6.55872 8.56802 
196 1 1 1 3.09278 6.35828 8.47056 
954 2 1 1 3.91192 6.91364 8.32701 
224 1 1 1 1.79191 7.52025 8.36273 
863 2 1 1 3.09741 7.57521 8.28198 
958 2 1 1 4.25937 7.8404 8.47447 
969 2 1 1 2.27494 8.37848 8.17647 
875 2 1 1 3.49998 8.49204 8.42405 
961 2 1 1 0.626976 9.0288 8.31061 
745 2 1 1 1.80377 9.31525 8.23793 
533 2 1 1 2.74299 9.17096 8.56763 
555 2 1 1 0.987617 9.96025 8.26141 
966 2 1 1 4.44245 9.37033 8.46161 
590 2 1 1 0.763861 5.62916 9.1791 
206 1 1 1 3.53949 5.28769 9.09968 
972 2 1 1 4.62051 5.29274 9.05334 
996 2 1 1 3.93629 6.20841 9.06579 
688 2 1 1 2.67791 6.9825 9.14302 
994 2 1 1 4.08226 7.17496 9.27813 
831 2 1 1 0.672701 7.57957 8.93764 
479 1 1 1 3.27328 7.77079 9.30389 
861 2 1 1 1.37375 8.71379 8.91158 
33 1 1 1 2.00651 9.44657 9.23185 
69 1 1 1 3.36938 9.75219 9.08711 
599 2 1 1 0.441683 5.1563 9.99942 
103 1 1 1 1.7443 5.72327 9.63712 
691 2 1 1 2.8026 6.0147 9.3735 
337 1 1 1 1.05352 6.55195 9.51544 
471 1 1 1 4.92157 6.32734 9.57548 
90 1 1 1 0.184652 7.50264 9.90069 
210 1 1 1 1.1984 8.05513 9.64354 
18 1 1 1 2.18374 7.97558 9.36128 
953 2 1 1 4.63004 8.0068 9.38933 
563 2 1 1 0.250516 8.37914 9.42223 
809 2 1 1 3.82155 8.60416 9.38975 
231 1 1 1 0.220421 9.36816 9.60701 
58 1 1 1 2.77769 8.73451 9.70198 
48 1 1 1 2.7091 9.7296 9.88457 
486 1 1 1 4.26276 9.52611 9.47677 
374 1 1 1 6.85796 0.589099 0.0647502 
233 1 1 1 7.81664 0.33324 0.18931 
239 1 1 1 8.84794 0.53426 0.250212 
243 1 1 1 9.83751 0.180681 0.672508 
60 1 1 1 5.44555 1.80084 0.112523 
720 2 1 1 7.20003 1.50662 0.269635 
991 2 1 1 8.19844 1.46526 0.23041 
520 2 1 1 9.27101 1.43833 0.18223 
523 2 1 1 8.73499 2.30603 0.154865 
391 1 1 1 6.83544 2.52361 0.161387 
616 2 1 1 5.57146 3.16155 0.0476942 
439 1 1 1 6.75692 3.42493 0.591087 
9 1 1 1 8.77204 3.23649 0.519456 
879 2 1 1 8.27202 3.98538 0.08452 
509 2 1 1 9.32759 4.02668 0.257245 
101 1 1 1 5.31958 0.202661 1.1653 
611 2 1 1 8.76678 0.423701 1.24077 
692 2 1 1 5.29905 1.20157 0.900082 
328 1 1 1 6.20889 0.721113 0.860363 
730 2 1 1 7.69496 0.968661 0.960326 
981 2 1 1 6.57617 1.81937 0.985914 
146 1 1 1 9.06303 1.37686 1.16671 
194 1 1 1 5.83301 2.46879 0.748483 
132 1 1 1 7.76762 2.25087 0.767969 
522 2 1 1 9.29028 2.37268 0.997994 
624 2 1 1 5.08759 2.86568 1.29536 
650 2 1 1 6.01452 3.26911 1.3206 
873 2 1 1 7.78399 3.27337 0.824215 
631 2 1 1 5.72114 4.05923 0.680701 
655 2 1 1 6.72215 4.39185 0.846034 
370 1 1 1 5.2808 4.75021 1.28101 
420 1 1 1 7.82429 4.55689 0.783946 
399 1 1 1 8.83673 4.64064 0.875502 
484 1 1 1 6.1744 0.212976 1.82983 
995 2 1 1 7.11069 0.631296 1.71252 
621 2 1 1 8.08116 0.539385 1.95993 
640 2 1 1 9.6825 0.380469 1.64033 
405 1 1 1 7.20902 1.79162 1.76264 
136 1 1 1 8.16497 1.67799 1.48769 
970 2 1 1 5.88104 2.27862 1.73964 
575 2 1 1 6.82504 2.67199 1.446 
311 1 1 1 8.06533 2.80562 1.85725 
449 1 1 1 7.38975 3.54674 1.85227 
881 2 1 1 8.93275 3.17507 1.50458 
843 2 1 1 9.9165 3.43535 1.39515 
651 2 1 1 5.75458 4.06849 1.86228 
469 1 1 1 8.26254 3.91355 1.42587 
289 1 1 1 9.22724 4.12163 1.63626 
232 1 1 1 6.17894 4.97734 1.78271 
423 1 1 1 7.55684 4.54574 1.75045 
102 1 1 1 5.22923 0.253877 2.15992 
912 2 1 1 8.91337 0.0677106 2.41363 
71 1 1 1 9.73676 0.966065 2.44959 
719 2 1 1 5.72796 1.26565 2.012 
929 2 1 1 6.55693 1.69434 2.51498 
385 1 1 1 7.87101 1.40863 2.4075 
14 1 1 1 8.83617 1.31977 2.15861 
896 2 1 1 8.57507 2.27785 2.62888 
2 1 1 1 9.34552 2.4147 2.0062 
419 1 1 1 5.07725 2.58598 2.25601 
657 2 1 1 6.00561 3.15519 2.35043 
777 2 1 1 9.1464 3.28266 2.63213 
383 1 1 1 6.75948 4.22617 2.26274 
345 1 1 1 8.40552 3.92042 2.42136 
8 1 1 1 5.28014 4.84476 2.27738 
431 1 1 1 8.3587 4.90915 2.27904 
815 2 1 1 9.61978 4.50295 2.4735 
89 1 1 1 5.07786 0.158611 3.14385 
413 1 1 1 6.05582 0.182787 2.84227 
16 1 1 1 8.16745 0.443929 2.96643 
34 1 1 1 9.22225 0.595864 3.22313 
524 2 1 1 7.0381 0.758183 2.71408 
228 1 1 1 5.51827 1.35629 3.01111 
386 1 1 1 8.74947 1.47929 3.21523 
23 1 1 1 9.90973 1.65394 3.19945 
56 1 1 1 5.83437 2.30173 2.84514 
295 1 1 1 7.6627 2.14499 3.0596 
468 1 1 1 7.51622 3.08461 2.73517 
165 1 1 1 6.59723 3.17014 3.16047 
801 2 1 1 8.37485 3.24362 3.26713 
681 2 1 1 5.32126 3.97179 2.76408 
645 2 1 1 6.49621 4.16388 3.22601 
877 2 1 1 7.62138 4.04457 3.03026 
310 1 1 1 9.85016 3.99166 3.30148 
387 1 1 1 7.21817 4.94784 2.87353 
304 1 1 1 8.91197 4.41273 3.19767 
94 1 1 1 5.92658 0.459974 3.80008 
832 2 1 1 6.91762 0.481189 3.93732 
952 2 1 1 6.49258 1.22198 3.41298 
928 2 1 1 7.65207 1.19627 3.37687 
712 2 1 1 6.71132 2.19918 3.37119 
904 2 1 1 8.49508 2.34276 3.68565 
695 2 1 1 5.8695 2.50306 3.8241 
763 2 1 1 9.68959 2.9404 3.51724 
207 1 1 1 5.70629 3.44379 3.52354 
476 1 1 1 7.31855 3.5524 3.84735 
802 2 1 1 9.10245 3.68301 3.88951 
623 2 1 1 5.60824 4.43506 3.61187 
914 2 1 1 7.54879 4.982 3.8319 
748 2 1 1 8.605 0.624095 4.11536 
545 2 1 1 9.69133 0.882874 4.05848 
106 1 1 1 5.87912 1.53204 4.13962 
834 2 1 1 7.15984 1.66097 4.11414 
257 1 1 1 8.14727 1.51135 4.19563 
757 2 1 1 9.25177 1.78117 4.03329 
775 2 1 1 7.77053 2.44177 4.37219 
743 2 1 1 6.76494 2.56042 4.30358 
184 1 1 1 5.74235 3.34404 4.57479 
478 1 1 1 8.21892 3.38033 4.24762 
425 1 1 1 8.33315 4.35828 4.02081 
452 1 1 1 9.90415 4.28774 4.26483 
410 1 1 1 6.13779 4.40031 4.45944 
923 2 1 1 7.13586 4.39197 4.52662 
320 1 1 1 5.55706 0.00978641 4.70946 
436 1 1 1 7.88084 0.204163 4.8105 
649 2 1 1 9.2603 0.364149 4.82662 
352 1 1 1 5.26191 0.937287 4.98409 
779 2 1 1 6.30818 0.696861 4.70598 
790 2 1 1 8.47854 1.19529 5.16431 
819 2 1 1 6.52554 1.66445 4.89202 
818 2 1 1 7.60444 1.67697 5.0947 
670 2 1 1 9.46238 1.32352 5.03483 
1000 2 1 1 5.79128 2.37382 4.81706 
258 1 1 1 8.67304 2.14725 4.76236 
536 2 1 1 9.61853 2.47934 4.74715 
359 1 1 1 7.21947 2.69441 5.19231 
808 2 1 1 8.19385 2.93346 5.15439 
738 2 1 1 6.72709 3.4905 4.67163 
306 1 1 1 9.67609 3.47697 4.80719 
489 1 1 1 7.80005 3.87235 5.06465 
351 1 1 1 8.79444 3.801 5.1547 
443 1 1 1 7.91296 4.8824 4.933 
461 1 1 1 8.89387 4.73043 4.79737 
305 1 1 1 5.92756 0.549192 5.62214 
679 2 1 1 7.94019 0.626972 5.80732 
678 2 1 1 9.05702 0.51042 5.79482 
806 2 1 1 6.9918 0.886246 5.61866 
326 1 1 1 4.99369 1.63612 5.66203 
55 1 1 1 7.03728 1.82789 5.9662 
355 1 1 1 5.96473 1.87906 5.69205 
677 2 1 1 8.09217 2.07471 5.95593 
707 2 1 1 9.55519 2.13792 5.71236 
553 2 1 1 8.90116 2.88151 5.86109 
4 1 1 1 5.52095 3.20798 5.55338 
859 2 1 1 6.51391 3.21583 5.67233 
6 1 1 1 5.91272 4.12534 5.39428 
247 1 1 1 6.91321 4.11721 5.4635 
159 1 1 1 5.55981 4.97114 5.89402 
985 2 1 1 8.12721 4.85564 5.91026 
65 1 1 1 6.60191 0.242252 6.33125 
85 1 1 1 9.96518 0.29931 6.24222 
499 1 1 1 5.43543 1.04521 6.34145 
667 2 1 1 6.46017 1.21562 6.51149 
665 2 1 1 7.59895 1.2246 6.57998 
699 2 1 1 8.57 1.24933 6.30166 
576 2 1 1 9.60563 1.25347 6.17823 
230 1 1 1 8.92521 2.15702 6.56567 
513 2 1 1 5.06013 2.67938 6.26724 
241 1 1 1 6.07501 2.54158 6.43313 
308 1 1 1 7.08968 2.61994 6.57528 
202 1 1 1 9.88192 2.82985 6.39992 
900 2 1 1 6.05563 3.53951 6.5038 
564 2 1 1 8.26194 3.71364 6.00065 
703 2 1 1 5.20246 3.94116 6.16833 
826 2 1 1 7.40365 4.09074 6.34947 
340 1 1 1 9.25734 3.79922 6.04427 
38 1 1 1 6.46948 4.54748 6.40577 
371 1 1 1 8.90807 4.6232 6.49135 
462 1 1 1 5.143 0.0282119 6.66725 
448 1 1 1 7.60131 0.274494 6.90012 
666 2 1 1 8.60095 0.453413 6.9109 
200 1 1 1 9.56286 0.613331 7.14704 
208 1 1 1 8.93294 1.40413 7.22468 
706 2 1 1 6.21085 1.93022 7.21368 
710 2 1 1 8.07849 1.9545 7.12106 
506 2 1 1 9.77245 2.08092 7.11223 
191 1 1 1 8.03548 3.01145 6.67806 
587 2 1 1 6.93132 3.5016 7.05063 
220 1 1 1 9.0328 3.18984 6.80683 
810 2 1 1 9.56858 4.0331 6.96548 
527 2 1 1 5.16465 4.47473 7.14145 
989 2 1 1 7.36953 4.62892 7.19197 
595 2 1 1 8.31592 4.9707 7.21856 
343 1 1 1 9.90207 4.96263 7.18882 
700 2 1 1 5.87481 0.306431 7.91205 
222 1 1 1 5.62941 1.11393 7.32583 
179 1 1 1 7.02644 0.966276 7.36665 
671 2 1 1 8.06424 1.00126 7.55543 
209 1 1 1 7.16518 1.94687 7.53404 
715 2 1 1 8.83115 2.49887 7.50236 
725 2 1 1 6.08327 2.95763 7.34299 
704 2 1 1 7.68788 3.09114 7.61368 
642 2 1 1 5.39054 3.62519 7.61834 
217 1 1 1 9.17426 3.49794 7.75639 
271 1 1 1 6.40908 3.86871 7.83259 
549 2 1 1 8.36819 3.99624 7.43701 
168 1 1 1 6.03274 4.79582 7.82302 
64 1 1 1 9.12052 4.77772 7.78475 
693 2 1 1 7.14046 0.255579 8.06223 
98 1 1 1 8.00545 0.566783 8.45601 
708 2 1 1 8.99812 0.520845 8.65855 
481 1 1 1 6.44477 0.661451 8.65623 
722 2 1 1 9.44165 1.18632 8.05811 
690 2 1 1 6.41125 1.48459 8.08936 
218 1 1 1 7.38393 1.34534 8.3046 
92 1 1 1 5.18454 1.99609 8.54773 
201 1 1 1 6.4523 2.4635 8.29776 
221 1 1 1 7.45093 2.45941 8.35177 
212 1 1 1 8.29187 1.92664 8.25622 
528 2 1 1 9.54244 2.17897 8.12831 
572 2 1 1 5.56638 2.92698 8.31642 
733 2 1 1 8.51948 2.98711 8.31929 
244 1 1 1 7.57394 3.98794 8.04477 
205 1 1 1 8.65917 3.97911 8.48672 
95 1 1 1 9.62637 4.23327 8.45609 
672 2 1 1 7.22962 4.87989 8.3521 
216 1 1 1 8.23353 4.90031 8.23014 
804 2 1 1 7.19971 0.26261 9.17687 
741 2 1 1 5.58876 1.13616 8.9105 
705 2 1 1 7.18028 1.25824 9.27985 
734 2 1 1 8.15552 1.04007 9.32516 
246 1 1 1 9.34138 1.36506 9.11712 
721 2 1 1 5.99095 2.43491 9.18638 
227 1 1 1 6.97527 2.25016 9.20927 
724 2 1 1 8.52632 1.97121 9.22867 
735 2 1 1 9.28141 2.68259 8.95452 
245 1 1 1 6.90175 3.63981 8.69885 
112 1 1 1 7.77175 3.21173 8.94447 
156 1 1 1 5.91108 3.7904 8.72329 
982 2 1 1 7.88495 4.35737 8.99418 
726 2 1 1 9.24889 3.79794 9.28011 
976 2 1 1 5.28077 4.55673 8.87327 
622 2 1 1 6.3532 4.72526 8.8712 
344 1 1 1 6.01048 0.476558 9.5429 
339 1 1 1 8.52832 0.075172 9.42059 
713 2 1 1 9.72292 0.484473 9.67032 
490 1 1 1 5.16096 0.863526 9.90158 
487 1 1 1 6.31988 1.55981 9.69102 
990 2 1 1 5.02149 2.41274 9.44466 
732 2 1 1 7.78977 2.45449 9.78652 
31 1 1 1 9.67083 2.27786 9.79503 
530 2 1 1 8.56796 3.07909 9.54203 
924 2 1 1 6.513 3.55872 9.61683 
252 1 1 1 7.46754 3.40954 9.87882 
514 2 1 1 9.94621 3.28878 9.78566 
632 2 1 1 5.69573 4.1328 9.67844 
237 1 1 1 5.04578 4.87203 9.85482 
683 2 1 1 7.39504 4.41285 9.86419 
248 1 1 1 8.80736 4.65167 9.56535 
226 1 1 1 9.81838 4.60704 9.42578 
855 2 1 1 5.78369 5.09982 0.490522 
723 2 1 1 6.69015 5.09732 0.0507949 
653 2 1 1 7.53372 5.4749 0.433619 
606 2 1 1 9.4363 5.14807 0.175093 
491 1 1 1 5.33492 5.99084 0.421764 
465 1 1 1 6.43719 6.13901 0.2442 
127 1 1 1 9.99083 5.95084 0.408953 
962 2 1 1 5.81962 6.83215 0.661286 
668 2 1 1 8.26455 6.36994 0.489825 
968 2 1 1 5.59258 7.94542 0.315564 
955 2 1 1 7.30794 7.6034 0.359064 
445 1 1 1 6.54049 8.23962 0.43813 
525 2 1 1 8.68429 8.55432 0.421227 
805 2 1 1 9.65765 8.37389 0.279701 
977 2 1 1 5.63254 9.83226 0.286589 
327 1 1 1 7.26139 9.41699 0.31724 
823 2 1 1 8.3384 9.4815 0.275992 
303 1 1 1 9.32041 9.56021 0.0809266 
614 2 1 1 6.95938 5.28438 1.23088 
364 1 1 1 9.96381 5.2897 1.15882 
617 2 1 1 6.10652 5.83518 1.14165 
392 1 1 1 7.74197 6.14596 1.33888 
847 2 1 1 9.05478 5.67376 0.935437 
619 2 1 1 7.11206 6.81059 0.936791 
299 1 1 1 9.1293 6.67089 0.907303 
131 1 1 1 8.15625 7.31379 0.802502 
494 1 1 1 5.34816 7.54815 1.20063 
760 2 1 1 9.11058 7.65297 0.716622 
475 1 1 1 6.00345 8.29939 1.27958 
956 2 1 1 7.80521 8.73076 0.959766 
93 1 1 1 9.30642 8.43561 1.3206 
817 2 1 1 5.32302 8.84333 0.753463 
828 2 1 1 6.27172 9.16236 0.737553 
694 2 1 1 9.92047 9.16284 0.852971 
341 1 1 1 6.82192 9.9457 1.04344 
853 2 1 1 7.86353 9.72709 1.28895 
350 1 1 1 8.98616 9.46858 1.03934 
615 2 1 1 8.22959 5.27306 1.3566 
620 2 1 1 9.21043 5.10952 1.79125 
852 2 1 1 9.77719 6.21616 1.51864 
740 2 1 1 6.25597 6.73445 1.55588 
918 2 1 1 8.43821 6.83587 1.66361 
76 1 1 1 9.34798 7.24732 1.73473 
480 1 1 1 6.78574 7.60982 1.44198 
516 2 1 1 8.47389 7.85426 1.58162 
493 1 1 1 6.92491 8.70088 1.45191 
96 1 1 1 5.51352 9.2688 1.67411 
466 1 1 1 8.50354 8.89642 1.70276 
498 1 1 1 9.41623 9.33139 1.95569 
395 1 1 1 7.48552 5.4924 2.0647 
316 1 1 1 9.94924 5.58694 2.30261 
492 1 1 1 5.65766 5.79864 2.03567 
983 2 1 1 6.63372 5.72176 2.5362 
761 2 1 1 8.98862 6.03263 2.10596 
773 2 1 1 5.19491 6.61292 2.40667 
366 1 1 1 9.39742 6.78832 2.63984 
613 2 1 1 7.65321 7.33088 2.06268 
267 1 1 1 8.43826 7.07126 2.64238 
569 2 1 1 5.22907 7.88812 2.13463 
396 1 1 1 6.15106 7.48795 2.20514 
794 2 1 1 9.05645 7.95149 2.38857 
986 2 1 1 6.11794 8.48637 2.25525 
973 2 1 1 7.71801 8.34981 2.0095 
137 1 1 1 9.94776 8.32515 2.13152 
83 1 1 1 5.19803 8.81659 2.50887 
844 2 1 1 6.70489 9.34695 2.19445 
495 1 1 1 7.73926 9.50226 2.32509 
886 2 1 1 6.01076 5.04575 2.92993 
811 2 1 1 9.29269 5.31765 3.0073 
731 2 1 1 5.64189 5.96949 3.04147 
728 2 1 1 8.16105 5.77022 2.7477 
786 2 1 1 8.85639 6.20753 3.31803 
485 1 1 1 6.30895 6.64743 2.73042 
145 1 1 1 7.60834 6.58348 2.9305 
250 1 1 1 5.52596 7.36941 2.97663 
517 2 1 1 6.96273 7.3533 3.02507 
166 1 1 1 8.02507 7.88902 3.04325 
249 1 1 1 9.76805 7.65852 3.02795 
784 2 1 1 5.50164 8.30983 3.31587 
401 1 1 1 7.00835 8.30514 2.71326 
890 2 1 1 8.47444 8.70866 2.68541 
756 2 1 1 6.38117 8.99698 3.07513 
394 1 1 1 7.45619 8.96022 3.33316 
885 2 1 1 9.45723 8.83591 2.85397 
889 2 1 1 7.01391 9.80888 3.02895 
376 1 1 1 8.42311 9.5234 3.26362 
629 2 1 1 5.12594 5.32967 3.62563 
894 2 1 1 6.5506 5.00074 3.77091 
151 1 1 1 8.47136 5.2723 3.5765 
796 2 1 1 9.36325 5.08151 3.98661 
143 1 1 1 6.81293 5.98755 3.63226 
984 2 1 1 7.80941 6.00834 3.72561 
282 1 1 1 9.74359 5.97744 3.75702 
987 2 1 1 5.9231 6.75531 3.68316 
897 2 1 1 6.88527 6.94211 3.93598 
437 1 1 1 7.94701 7.0248 3.91943 
260 1 1 1 9.45984 6.93472 3.64533 
400 1 1 1 6.31951 7.74052 3.69677 
265 1 1 1 7.2732 8.04206 3.68496 
609 2 1 1 8.53026 7.83591 3.96925 
865 2 1 1 8.87759 8.72305 3.6614 
771 2 1 1 9.81038 8.29565 3.80591 
798 2 1 1 5.84143 9.46369 3.77842 
903 2 1 1 7.65388 9.80703 3.84685 