ITEM: TIMESTEP
5900
ITEM: NUMBER OF ATOMS
2
ITEM: BOX BOUNDS xy xz yz ff ff ff
0.0000000000000000e+00 1.5899999999999999e+01 5.8999999999999995e+00
0.0000000000000000e+00 1.0000000000000000e+01 0.0000000000000000e+00
-0.0000000000000000e+00 1.0000000000000000e+01 0.0000000000000000e+00
ITEM: ATOMS id type x y z ix iy iz vx vy vz fx fy fz omegax omegay omegaz radius tqx tqy tqz 
1 1 3.06046 4.75 0 0 0 0 0.10495 0 0 4.39032 0 0 0 0 -0.0176825 0.5 0 0 -1.56647 
2 1 6.94268 5.25 0 0 0 0 -0.0943052 0 0 5.05123 0 0 0 0 -0.0176825 0.5 0 0 -1.56647 
