ITEM: TIMESTEP
5000
ITEM: NUMBER OF ATOMS
2
ITEM: BOX BOUNDS xy xz yz ff ff ff
0.0000000000000000e+00 1.5000000000000000e+01 4.9999999999999991e+00
0.0000000000000000e+00 1.0000000000000000e+01 0.0000000000000000e+00
-0.0000000000000000e+00 1.0000000000000000e+01 0.0000000000000000e+00
ITEM: ATOMS id type x y z ix iy iz vx vy vz fx fy fz omegax omegay omegaz radius tqx tqy tqz 
1 1 3.05105 4.75 0 0 0 0 0.104195 0 0 4.39103 0 0 0 0 -0.0149892 0.5 0 0 -1.56731 
2 1 6.95121 5.25 0 0 0 0 -0.0951735 0 0 5.05205 0 0 0 0 -0.0149892 0.5 0 0 -1.56731 
