ITEM: TIMESTEP
3200
ITEM: NUMBER OF ATOMS
2
ITEM: BOX BOUNDS xy xz yz ff ff ff
0.0000000000000000e+00 1.3199999999999999e+01 3.1999999999999993e+00
0.0000000000000000e+00 1.0000000000000000e+01 0.0000000000000000e+00
-0.0000000000000000e+00 1.0000000000000000e+01 0.0000000000000000e+00
ITEM: ATOMS id type x y z ix iy iz vx vy vz fx fy fz omegax omegay omegaz radius tqx tqy tqz 
1 1 3.03243 4.75 0 0 0 0 0.102685 0 0 4.39246 0 0 0 0 -0.00959828 0.5 0 0 -1.56901 
2 1 6.96849 5.25 0 0 0 0 -0.0969105 0 0 5.05369 0 0 0 0 -0.00959828 0.5 0 0 -1.56901 
