ITEM: TIMESTEP
2400
ITEM: NUMBER OF ATOMS
2
ITEM: BOX BOUNDS xy xz yz ff ff ff
0.0000000000000000e+00 1.2399999999999999e+01 2.3999999999999995e+00
0.0000000000000000e+00 1.0000000000000000e+01 0.0000000000000000e+00
-0.0000000000000000e+00 1.0000000000000000e+01 0.0000000000000000e+00
ITEM: ATOMS id type x y z ix iy iz vx vy vz fx fy fz omegax omegay omegaz radius tqx tqy tqz 
1 1 3.02424 4.75 0 0 0 0 0.102014 0 0 4.39309 0 0 0 0 -0.00720044 0.5 0 0 -1.56976 
2 1 6.97628 5.25 0 0 0 0 -0.0976827 0 0 5.05442 0 0 0 0 -0.00720044 0.5 0 0 -1.56976 
