ITEM: TIMESTEP
9600
ITEM: NUMBER OF ATOMS
2
ITEM: BOX BOUNDS xy xz yz ff ff ff
0.0000000000000000e+00 1.9600000000000001e+01 9.5999999999999996e+00
0.0000000000000000e+00 1.0000000000000000e+01 0.0000000000000000e+00
-0.0000000000000000e+00 1.0000000000000000e+01 0.0000000000000000e+00
ITEM: ATOMS id type x y z ix iy iz vx vy vz fx fy fz omegax omegay omegaz radius tqx tqy tqz 
1 1 3.09987 4.75 0 0 0 0 0.108051 0 0 4.38739 0 0 0 0 -0.0287396 0.5 0 0 -1.56299 
2 1 6.90845 5.25 0 0 0 0 -0.0907369 0 0 5.04785 0 0 0 0 -0.0287396 0.5 0 0 -1.56299 
