ITEM: TIMESTEP
14200
ITEM: NUMBER OF ATOMS
2
ITEM: BOX BOUNDS xy xz yz ff ff ff
0.0000000000000000e+00 2.4199999999999999e+01 1.4199999999999999e+01
0.0000000000000000e+00 1.0000000000000000e+01 0.0000000000000000e+00
-0.0000000000000000e+00 1.0000000000000000e+01 0.0000000000000000e+00
ITEM: ATOMS id type x y z ix iy iz vx vy vz fx fy fz omegax omegay omegaz radius tqx tqy tqz 
1 1 3.15046 4.75 0 0 0 0 0.111904 0 0 4.38375 0 0 0 0 -0.0424521 0.5 0 0 -1.55868 
2 1 6.86773 5.25 0 0 0 0 -0.086304 0 0 5.04366 0 0 0 0 -0.0424521 0.5 0 0 -1.55868 
