ITEM: TIMESTEP
36000
ITEM: NUMBER OF ATOMS
2
ITEM: BOX BOUNDS xy xz yz ff ff ff
0.0000000000000000e+00 4.5999999999999993e+01 3.5999999999999993e+01
0.0000000000000000e+00 1.0000000000000000e+01 0.0000000000000000e+00
-0.0000000000000000e+00 1.0000000000000000e+01 0.0000000000000000e+00
ITEM: ATOMS id type x y z ix iy iz vx vy vz fx fy fz omegax omegay omegaz radius tqx tqy tqz 
1 1 3.41427 4.75 0 0 0 0 0.13012 0 0 4.36653 0 0 0 0 -0.106925 0.5 0 0 -1.53841 
2 1 6.70244 5.25 0 0 0 0 -0.065346 0 0 5.02386 0 0 0 0 -0.106925 0.5 0 0 -1.53841 
