ITEM: TIMESTEP
40100
ITEM: NUMBER OF ATOMS
2
ITEM: BOX BOUNDS xy xz yz ff ff ff
0.0000000000000000e+00 5.0100000000000001e+01 4.0100000000000001e+01
0.0000000000000000e+00 1.0000000000000000e+01 0.0000000000000000e+00
-0.0000000000000000e+00 1.0000000000000000e+01 0.0000000000000000e+00
ITEM: ATOMS id type x y z ix iy iz vx vy vz fx fy fz omegax omegay omegaz radius tqx tqy tqz 
1 1 3.46832 4.75 0 0 0 0 0.133538 0 0 4.3633 0 0 0 0 -0.118956 0.5 0 0 -1.53462 
2 1 6.67646 5.25 0 0 0 0 -0.0614136 0 0 5.02014 0 0 0 0 -0.118956 0.5 0 0 -1.53462 
