ITEM: TIMESTEP
38600
ITEM: NUMBER OF ATOMS
2
ITEM: BOX BOUNDS xy xz yz ff ff ff
0.0000000000000000e+00 4.8599999999999994e+01 3.8599999999999994e+01
0.0000000000000000e+00 1.0000000000000000e+01 0.0000000000000000e+00
-0.0000000000000000e+00 1.0000000000000000e+01 0.0000000000000000e+00
ITEM: ATOMS id type x y z ix iy iz vx vy vz fx fy fz omegax omegay omegaz radius tqx tqy tqz 
1 1 3.44839 4.75 0 0 0 0 0.132288 0 0 4.36448 0 0 0 0 -0.114558 0.5 0 0 -1.53601 
2 1 6.68578 5.25 0 0 0 0 -0.062852 0 0 5.0215 0 0 0 0 -0.114558 0.5 0 0 -1.53601 
