ITEM: TIMESTEP
35600
ITEM: NUMBER OF ATOMS
2
ITEM: BOX BOUNDS xy xz yz ff ff ff
0.0000000000000000e+00 4.5599999999999994e+01 3.5599999999999994e+01
0.0000000000000000e+00 1.0000000000000000e+01 0.0000000000000000e+00
-0.0000000000000000e+00 1.0000000000000000e+01 0.0000000000000000e+00
ITEM: ATOMS id type x y z ix iy iz vx vy vz fx fy fz omegax omegay omegaz radius tqx tqy tqz 
1 1 3.40908 4.75 0 0 0 0 0.129786 0 0 4.36684 0 0 0 0 -0.105749 0.5 0 0 -1.53878 
2 1 6.70507 5.25 0 0 0 0 -0.0657298 0 0 5.02422 0 0 0 0 -0.105749 0.5 0 0 -1.53878 
