ITEM: TIMESTEP
1500
ITEM: NUMBER OF ATOMS
2
ITEM: BOX BOUNDS xy xz yz ff ff ff
0.0000000000000000e+00 1.1500000000000000e+01 1.5000000000000000e+00
0.0000000000000000e+00 1.0000000000000000e+01 0.0000000000000000e+00
-0.0000000000000000e+00 1.0000000000000000e+01 0.0000000000000000e+00
ITEM: ATOMS id type x y z ix iy iz vx vy vz fx fy fz omegax omegay omegaz radius tqx tqy tqz 
1 1 3.01509 4.75 0 0 0 0 0.101259 0 0 4.39381 0 0 0 0 -0.00450149 0.5 0 0 -1.57061 
2 1 6.98511 5.25 0 0 0 0 -0.0985516 0 0 5.05524 0 0 0 0 -0.00450149 0.5 0 0 -1.57061 
