ITEM: TIMESTEP
36300
ITEM: NUMBER OF ATOMS
2
ITEM: BOX BOUNDS xy xz yz ff ff ff
0.0000000000000000e+00 4.6299999999999997e+01 3.6299999999999997e+01
0.0000000000000000e+00 1.0000000000000000e+01 0.0000000000000000e+00
-0.0000000000000000e+00 1.0000000000000000e+01 0.0000000000000000e+00
ITEM: ATOMS id type x y z ix iy iz vx vy vz fx fy fz omegax omegay omegaz radius tqx tqy tqz 
1 1 3.41818 4.75 0 0 0 0 0.13037 0 0 4.36629 0 0 0 0 -0.107806 0.5 0 0 -1.53813 
2 1 6.70049 5.25 0 0 0 0 -0.0650582 0 0 5.02358 0 0 0 0 -0.107806 0.5 0 0 -1.53813 
