ITEM: TIMESTEP
5700
ITEM: NUMBER OF ATOMS
2
ITEM: BOX BOUNDS xy xz yz ff ff ff
0.0000000000000000e+00 1.5699999999999999e+01 5.6999999999999993e+00
0.0000000000000000e+00 1.0000000000000000e+01 0.0000000000000000e+00
-0.0000000000000000e+00 1.0000000000000000e+01 0.0000000000000000e+00
ITEM: ATOMS id type x y z ix iy iz vx vy vz fx fy fz omegax omegay omegaz radius tqx tqy tqz 
1 1 3.05836 4.75 0 0 0 0 0.104782 0 0 4.39048 0 0 0 0 -0.0170841 0.5 0 0 -1.56665 
2 1 6.94457 5.25 0 0 0 0 -0.0944981 0 0 5.05141 0 0 0 0 -0.0170841 0.5 0 0 -1.56665 
