ITEM: TIMESTEP
26500
ITEM: NUMBER OF ATOMS
2
ITEM: BOX BOUNDS xy xz yz ff ff ff
0.0000000000000000e+00 3.6500000000000000e+01 2.6500000000000000e+01
0.0000000000000000e+00 1.0000000000000000e+01 0.0000000000000000e+00
-0.0000000000000000e+00 1.0000000000000000e+01 0.0000000000000000e+00
ITEM: ATOMS id type x y z ix iy iz vx vy vz fx fy fz omegax omegay omegaz radius tqx tqy tqz 
1 1 3.29443 4.75 0 0 0 0 0.122191 0 0 4.37402 0 0 0 0 -0.0789325 0.5 0 0 -1.54721 
2 1 6.76886 5.25 0 0 0 0 -0.074469 0 0 5.03248 0 0 0 0 -0.0789325 0.5 0 0 -1.54721 
