ITEM: TIMESTEP
7200
ITEM: NUMBER OF ATOMS
2
ITEM: BOX BOUNDS xy xz yz ff ff ff
0.0000000000000000e+00 1.7199999999999999e+01 7.1999999999999993e+00
0.0000000000000000e+00 1.0000000000000000e+01 0.0000000000000000e+00
-0.0000000000000000e+00 1.0000000000000000e+01 0.0000000000000000e+00
ITEM: ATOMS id type x y z ix iy iz vx vy vz fx fy fz omegax omegay omegaz radius tqx tqy tqz 
1 1 3.07417 4.75 0 0 0 0 0.10604 0 0 4.38929 0 0 0 0 -0.0215702 0.5 0 0 -1.56524 
2 1 6.9305 5.25 0 0 0 0 -0.0930512 0 0 5.05004 0 0 0 0 -0.0215702 0.5 0 0 -1.56524 
