ITEM: TIMESTEP
41700
ITEM: NUMBER OF ATOMS
2
ITEM: BOX BOUNDS xy xz yz ff ff ff
0.0000000000000000e+00 5.1700000000000003e+01 4.1700000000000003e+01
0.0000000000000000e+00 1.0000000000000000e+01 0.0000000000000000e+00
-0.0000000000000000e+00 1.0000000000000000e+01 0.0000000000000000e+00
ITEM: ATOMS id type x y z ix iy iz vx vy vz fx fy fz omegax omegay omegaz radius tqx tqy tqz 
1 1 3.4898 4.75 0 0 0 0 0.134871 0 0 4.36204 0 0 0 0 -0.123643 0.5 0 0 -1.53315 
2 1 6.66676 5.25 0 0 0 0 -0.0598798 0 0 5.01869 0 0 0 0 -0.123643 0.5 0 0 -1.53315 
