ITEM: TIMESTEP
6800
ITEM: NUMBER OF ATOMS
2
ITEM: BOX BOUNDS xy xz yz ff ff ff
0.0000000000000000e+00 1.6799999999999997e+01 6.7999999999999989e+00
0.0000000000000000e+00 1.0000000000000000e+01 0.0000000000000000e+00
-0.0000000000000000e+00 1.0000000000000000e+01 0.0000000000000000e+00
ITEM: ATOMS id type x y z ix iy iz vx vy vz fx fy fz omegax omegay omegaz radius tqx tqy tqz 
1 1 3.06994 4.75 0 0 0 0 0.105704 0 0 4.38961 0 0 0 0 -0.0203743 0.5 0 0 -1.56562 
2 1 6.93423 5.25 0 0 0 0 -0.093437 0 0 5.05041 0 0 0 0 -0.0203743 0.5 0 0 -1.56562 
