ITEM: TIMESTEP
17400
ITEM: NUMBER OF ATOMS
2
ITEM: BOX BOUNDS xy xz yz ff ff ff
0.0000000000000000e+00 2.7399999999999999e+01 1.7399999999999999e+01
0.0000000000000000e+00 1.0000000000000000e+01 0.0000000000000000e+00
-0.0000000000000000e+00 1.0000000000000000e+01 0.0000000000000000e+00
ITEM: ATOMS id type x y z ix iy iz vx vy vz fx fy fz omegax omegay omegaz radius tqx tqy tqz 
1 1 3.18669 4.75 0 0 0 0 0.114582 0 0 4.38121 0 0 0 0 -0.0519689 0.5 0 0 -1.55569 
2 1 6.8406 5.25 0 0 0 0 -0.0832225 0 0 5.04075 0 0 0 0 -0.0519689 0.5 0 0 -1.55569 
