ITEM: TIMESTEP
36500
ITEM: NUMBER OF ATOMS
2
ITEM: BOX BOUNDS xy xz yz ff ff ff
0.0000000000000000e+00 4.6499999999999993e+01 3.6499999999999993e+01
0.0000000000000000e+00 1.0000000000000000e+01 0.0000000000000000e+00
-0.0000000000000000e+00 1.0000000000000000e+01 0.0000000000000000e+00
ITEM: ATOMS id type x y z ix iy iz vx vy vz fx fy fz omegax omegay omegaz radius tqx tqy tqz 
1 1 3.42079 4.75 0 0 0 0 0.130537 0 0 4.36613 0 0 0 0 -0.108393 0.5 0 0 -1.53795 
2 1 6.69919 5.25 0 0 0 0 -0.0648663 0 0 5.0234 0 0 0 0 -0.108393 0.5 0 0 -1.53795 
