ITEM: TIMESTEP
39800
ITEM: NUMBER OF ATOMS
2
ITEM: BOX BOUNDS xy xz yz ff ff ff
0.0000000000000000e+00 4.9799999999999997e+01 3.9799999999999997e+01
0.0000000000000000e+00 1.0000000000000000e+01 0.0000000000000000e+00
-0.0000000000000000e+00 1.0000000000000000e+01 0.0000000000000000e+00
ITEM: ATOMS id type x y z ix iy iz vx vy vz fx fy fz omegax omegay omegaz radius tqx tqy tqz 
1 1 3.46432 4.75 0 0 0 0 0.133288 0 0 4.36353 0 0 0 0 -0.118077 0.5 0 0 -1.5349 
2 1 6.67831 5.25 0 0 0 0 -0.0617012 0 0 5.02041 0 0 0 0 -0.118077 0.5 0 0 -1.5349 
