ITEM: TIMESTEP
30100
ITEM: NUMBER OF ATOMS
2
ITEM: BOX BOUNDS xy xz yz ff ff ff
0.0000000000000000e+00 4.0099999999999994e+01 3.0099999999999994e+01
0.0000000000000000e+00 1.0000000000000000e+01 0.0000000000000000e+00
-0.0000000000000000e+00 1.0000000000000000e+01 0.0000000000000000e+00
ITEM: ATOMS id type x y z ix iy iz vx vy vz fx fy fz omegax omegay omegaz radius tqx tqy tqz 
1 1 3.33896 4.75 0 0 0 0 0.125197 0 0 4.37118 0 0 0 0 -0.0895588 0.5 0 0 -1.54387 
2 1 6.74267 5.25 0 0 0 0 -0.07101 0 0 5.02921 0 0 0 0 -0.0895588 0.5 0 0 -1.54387 
