ITEM: TIMESTEP
36400
ITEM: NUMBER OF ATOMS
2
ITEM: BOX BOUNDS xy xz yz ff ff ff
0.0000000000000000e+00 4.6399999999999999e+01 3.6399999999999999e+01
0.0000000000000000e+00 1.0000000000000000e+01 0.0000000000000000e+00
-0.0000000000000000e+00 1.0000000000000000e+01 0.0000000000000000e+00
ITEM: ATOMS id type x y z ix iy iz vx vy vz fx fy fz omegax omegay omegaz radius tqx tqy tqz 
1 1 3.41949 4.75 0 0 0 0 0.130453 0 0 4.36621 0 0 0 0 -0.1081 0.5 0 0 -1.53804 
2 1 6.69984 5.25 0 0 0 0 -0.0649623 0 0 5.02349 0 0 0 0 -0.1081 0.5 0 0 -1.53804 
