ITEM: TIMESTEP
20500
ITEM: NUMBER OF ATOMS
2
ITEM: BOX BOUNDS xy xz yz ff ff ff
0.0000000000000000e+00 3.0500000000000000e+01 2.0500000000000000e+01
0.0000000000000000e+00 1.0000000000000000e+01 0.0000000000000000e+00
-0.0000000000000000e+00 1.0000000000000000e+01 0.0000000000000000e+00
ITEM: ATOMS id type x y z ix iy iz vx vy vz fx fy fz omegax omegay omegaz radius tqx tqy tqz 
1 1 3.22262 4.75 0 0 0 0 0.117176 0 0 4.37876 0 0 0 0 -0.0611708 0.5 0 0 -1.55279 
2 1 6.81527 5.25 0 0 0 0 -0.0802389 0 0 5.03793 0 0 0 0 -0.0611708 0.5 0 0 -1.55279 
