ITEM: TIMESTEP
8400
ITEM: NUMBER OF ATOMS
2
ITEM: BOX BOUNDS xy xz yz ff ff ff
0.0000000000000000e+00 1.8399999999999999e+01 8.3999999999999986e+00
0.0000000000000000e+00 1.0000000000000000e+01 0.0000000000000000e+00
-0.0000000000000000e+00 1.0000000000000000e+01 0.0000000000000000e+00
ITEM: ATOMS id type x y z ix iy iz vx vy vz fx fy fz omegax omegay omegaz radius tqx tqy tqz 
1 1 3.08696 4.75 0 0 0 0 0.107045 0 0 4.38834 0 0 0 0 -0.0251562 0.5 0 0 -1.56412 
2 1 6.91941 5.25 0 0 0 0 -0.0918939 0 0 5.04895 0 0 0 0 -0.0251562 0.5 0 0 -1.56412 
