ITEM: TIMESTEP
13400
ITEM: NUMBER OF ATOMS
2
ITEM: BOX BOUNDS xy xz yz ff ff ff
0.0000000000000000e+00 2.3399999999999999e+01 1.3399999999999999e+01
0.0000000000000000e+00 1.0000000000000000e+01 0.0000000000000000e+00
-0.0000000000000000e+00 1.0000000000000000e+01 0.0000000000000000e+00
ITEM: ATOMS id type x y z ix iy iz vx vy vz fx fy fz omegax omegay omegaz radius tqx tqy tqz 
1 1 3.14153 4.75 0 0 0 0 0.111234 0 0 4.38438 0 0 0 0 -0.04007 0.5 0 0 -1.55943 
2 1 6.87466 5.25 0 0 0 0 -0.0870747 0 0 5.04439 0 0 0 0 -0.04007 0.5 0 0 -1.55943 
