ITEM: TIMESTEP
9900
ITEM: NUMBER OF ATOMS
2
ITEM: BOX BOUNDS xy xz yz ff ff ff
0.0000000000000000e+00 1.9899999999999999e+01 9.8999999999999986e+00
0.0000000000000000e+00 1.0000000000000000e+01 0.0000000000000000e+00
-0.0000000000000000e+00 1.0000000000000000e+01 0.0000000000000000e+00
ITEM: ATOMS id type x y z ix iy iz vx vy vz fx fy fz omegax omegay omegaz radius tqx tqy tqz 
1 1 3.10311 4.75 0 0 0 0 0.108302 0 0 4.38715 0 0 0 0 -0.0296351 0.5 0 0 -1.56271 
2 1 6.90573 5.25 0 0 0 0 -0.0904477 0 0 5.04758 0 0 0 0 -0.0296351 0.5 0 0 -1.56271 
