ITEM: TIMESTEP
8000
ITEM: NUMBER OF ATOMS
2
ITEM: BOX BOUNDS xy xz yz ff ff ff
0.0000000000000000e+00 1.8000000000000000e+01 8.0000000000000000e+00
0.0000000000000000e+00 1.0000000000000000e+01 0.0000000000000000e+00
-0.0000000000000000e+00 1.0000000000000000e+01 0.0000000000000000e+00
ITEM: ATOMS id type x y z ix iy iz vx vy vz fx fy fz omegax omegay omegaz radius tqx tqy tqz 
1 1 3.08268 4.75 0 0 0 0 0.10671 0 0 4.38865 0 0 0 0 -0.0239612 0.5 0 0 -1.56449 
2 1 6.92309 5.25 0 0 0 0 -0.0922796 0 0 5.04931 0 0 0 0 -0.0239612 0.5 0 0 -1.56449 
