ITEM: TIMESTEP
24400
ITEM: NUMBER OF ATOMS
2
ITEM: BOX BOUNDS xy xz yz ff ff ff
0.0000000000000000e+00 3.4399999999999999e+01 2.4399999999999999e+01
0.0000000000000000e+00 1.0000000000000000e+01 0.0000000000000000e+00
-0.0000000000000000e+00 1.0000000000000000e+01 0.0000000000000000e+00
ITEM: ATOMS id type x y z ix iy iz vx vy vz fx fy fz omegax omegay omegaz radius tqx tqy tqz 
1 1 3.26895 4.75 0 0 0 0 0.120436 0 0 4.37568 0 0 0 0 -0.0727232 0.5 0 0 -1.54916 
2 1 6.78471 5.25 0 0 0 0 -0.0764877 0 0 5.03439 0 0 0 0 -0.0727232 0.5 0 0 -1.54916 
