ITEM: TIMESTEP
19100
ITEM: NUMBER OF ATOMS
2
ITEM: BOX BOUNDS xy xz yz ff ff ff
0.0000000000000000e+00 2.9100000000000001e+01 1.9100000000000001e+01
0.0000000000000000e+00 1.0000000000000000e+01 0.0000000000000000e+00
-0.0000000000000000e+00 1.0000000000000000e+01 0.0000000000000000e+00
ITEM: ATOMS id type x y z ix iy iz vx vy vz fx fy fz omegax omegay omegaz radius tqx tqy tqz 
1 1 3.20629 4.75 0 0 0 0 0.116005 0 0 4.37987 0 0 0 0 -0.0570172 0.5 0 0 -1.5541 
2 1 6.8266 5.25 0 0 0 0 -0.0815861 0 0 5.0392 0 0 0 0 -0.0570172 0.5 0 0 -1.5541 
