ITEM: TIMESTEP
3000
ITEM: NUMBER OF ATOMS
2
ITEM: BOX BOUNDS xy xz yz ff ff ff
0.0000000000000000e+00 1.3000000000000000e+01 3.0000000000000000e+00
0.0000000000000000e+00 1.0000000000000000e+01 0.0000000000000000e+00
-0.0000000000000000e+00 1.0000000000000000e+01 0.0000000000000000e+00
ITEM: ATOMS id type x y z ix iy iz vx vy vz fx fy fz omegax omegay omegaz radius tqx tqy tqz 
1 1 3.03038 4.75 0 0 0 0 0.102517 0 0 4.39262 0 0 0 0 -0.00899893 0.5 0 0 -1.5692 
2 1 6.97043 5.25 0 0 0 0 -0.0971036 0 0 5.05387 0 0 0 0 -0.00899893 0.5 0 0 -1.5692 
