ITEM: TIMESTEP
7300
ITEM: NUMBER OF ATOMS
2
ITEM: BOX BOUNDS xy xz yz ff ff ff
0.0000000000000000e+00 1.7299999999999997e+01 7.2999999999999989e+00
0.0000000000000000e+00 1.0000000000000000e+01 0.0000000000000000e+00
-0.0000000000000000e+00 1.0000000000000000e+01 0.0000000000000000e+00
ITEM: ATOMS id type x y z ix iy iz vx vy vz fx fy fz omegax omegay omegaz radius tqx tqy tqz 
1 1 3.07524 4.75 0 0 0 0 0.106123 0 0 4.38921 0 0 0 0 -0.0218692 0.5 0 0 -1.56515 
2 1 6.92957 5.25 0 0 0 0 -0.0929547 0 0 5.04995 0 0 0 0 -0.0218692 0.5 0 0 -1.56515 
