ITEM: TIMESTEP
15900
ITEM: NUMBER OF ATOMS
2
ITEM: BOX BOUNDS xy xz yz ff ff ff
0.0000000000000000e+00 2.5899999999999999e+01 1.5899999999999999e+01
0.0000000000000000e+00 1.0000000000000000e+01 0.0000000000000000e+00
-0.0000000000000000e+00 1.0000000000000000e+01 0.0000000000000000e+00
ITEM: ATOMS id type x y z ix iy iz vx vy vz fx fy fz omegax omegay omegaz radius tqx tqy tqz 
1 1 3.1696 4.75 0 0 0 0 0.113327 0 0 4.3824 0 0 0 0 -0.0475101 0.5 0 0 -1.55709 
2 1 6.8532 5.25 0 0 0 0 -0.0846667 0 0 5.04212 0 0 0 0 -0.0475101 0.5 0 0 -1.55709 
