ITEM: TIMESTEP
34300
ITEM: NUMBER OF ATOMS
2
ITEM: BOX BOUNDS xy xz yz ff ff ff
0.0000000000000000e+00 4.4299999999999997e+01 3.4299999999999997e+01
0.0000000000000000e+00 1.0000000000000000e+01 0.0000000000000000e+00
-0.0000000000000000e+00 1.0000000000000000e+01 0.0000000000000000e+00
ITEM: ATOMS id type x y z ix iy iz vx vy vz fx fy fz omegax omegay omegaz radius tqx tqy tqz 
1 1 3.39227 4.75 0 0 0 0 0.128702 0 0 4.36787 0 0 0 0 -0.101927 0.5 0 0 -1.53998 
2 1 6.71369 5.25 0 0 0 0 -0.0669774 0 0 5.0254 0 0 0 0 -0.101927 0.5 0 0 -1.53998 
