ITEM: TIMESTEP
25900
ITEM: NUMBER OF ATOMS
2
ITEM: BOX BOUNDS xy xz yz ff ff ff
0.0000000000000000e+00 3.5899999999999999e+01 2.5899999999999999e+01
0.0000000000000000e+00 1.0000000000000000e+01 0.0000000000000000e+00
-0.0000000000000000e+00 1.0000000000000000e+01 0.0000000000000000e+00
ITEM: ATOMS id type x y z ix iy iz vx vy vz fx fy fz omegax omegay omegaz radius tqx tqy tqz 
1 1 3.28711 4.75 0 0 0 0 0.121689 0 0 4.3745 0 0 0 0 -0.0771592 0.5 0 0 -1.54777 
2 1 6.77334 5.25 0 0 0 0 -0.0750457 0 0 5.03302 0 0 0 0 -0.0771592 0.5 0 0 -1.54777 
