ITEM: TIMESTEP
31400
ITEM: NUMBER OF ATOMS
2
ITEM: BOX BOUNDS xy xz yz ff ff ff
0.0000000000000000e+00 4.1399999999999999e+01 3.1399999999999999e+01
0.0000000000000000e+00 1.0000000000000000e+01 0.0000000000000000e+00
-0.0000000000000000e+00 1.0000000000000000e+01 0.0000000000000000e+00
ITEM: ATOMS id type x y z ix iy iz vx vy vz fx fy fz omegax omegay omegaz radius tqx tqy tqz 
1 1 3.3553 4.75 0 0 0 0 0.126282 0 0 4.37016 0 0 0 0 -0.0933905 0.5 0 0 -1.54266 
2 1 6.73352 5.25 0 0 0 0 -0.0697615 0 0 5.02803 0 0 0 0 -0.0933905 0.5 0 0 -1.54266 
