ITEM: TIMESTEP
26100
ITEM: NUMBER OF ATOMS
2
ITEM: BOX BOUNDS xy xz yz ff ff ff
0.0000000000000000e+00 3.6100000000000001e+01 2.6100000000000001e+01
0.0000000000000000e+00 1.0000000000000000e+01 0.0000000000000000e+00
-0.0000000000000000e+00 1.0000000000000000e+01 0.0000000000000000e+00
ITEM: ATOMS id type x y z ix iy iz vx vy vz fx fy fz omegax omegay omegaz radius tqx tqy tqz 
1 1 3.28954 4.75 0 0 0 0 0.121856 0 0 4.37434 0 0 0 0 -0.0777504 0.5 0 0 -1.54758 
2 1 6.77184 5.25 0 0 0 0 -0.0748534 0 0 5.03284 0 0 0 0 -0.0777504 0.5 0 0 -1.54758 
