ITEM: TIMESTEP
23600
ITEM: NUMBER OF ATOMS
2
ITEM: BOX BOUNDS xy xz yz ff ff ff
0.0000000000000000e+00 3.3600000000000001e+01 2.3600000000000001e+01
0.0000000000000000e+00 1.0000000000000000e+01 0.0000000000000000e+00
-0.0000000000000000e+00 1.0000000000000000e+01 0.0000000000000000e+00
ITEM: ATOMS id type x y z ix iy iz vx vy vz fx fy fz omegax omegay omegaz radius tqx tqy tqz 
1 1 3.25934 4.75 0 0 0 0 0.119767 0 0 4.37631 0 0 0 0 -0.0703557 0.5 0 0 -1.5499 
2 1 6.79086 5.25 0 0 0 0 -0.077257 0 0 5.03511 0 0 0 0 -0.0703557 0.5 0 0 -1.5499 
