ITEM: TIMESTEP
38800
ITEM: NUMBER OF ATOMS
2
ITEM: BOX BOUNDS xy xz yz ff ff ff
0.0000000000000000e+00 4.8799999999999997e+01 3.8799999999999997e+01
0.0000000000000000e+00 1.0000000000000000e+01 0.0000000000000000e+00
-0.0000000000000000e+00 1.0000000000000000e+01 0.0000000000000000e+00
ITEM: ATOMS id type x y z ix iy iz vx vy vz fx fy fz omegax omegay omegaz radius tqx tqy tqz 
1 1 3.45103 4.75 0 0 0 0 0.132454 0 0 4.36432 0 0 0 0 -0.115144 0.5 0 0 -1.53582 
2 1 6.68452 5.25 0 0 0 0 -0.0626602 0 0 5.02132 0 0 0 0 -0.115144 0.5 0 0 -1.53582 
