ITEM: TIMESTEP
19600
ITEM: NUMBER OF ATOMS
2
ITEM: BOX BOUNDS xy xz yz ff ff ff
0.0000000000000000e+00 2.9600000000000001e+01 1.9600000000000001e+01
0.0000000000000000e+00 1.0000000000000000e+01 0.0000000000000000e+00
-0.0000000000000000e+00 1.0000000000000000e+01 0.0000000000000000e+00
ITEM: ATOMS id type x y z ix iy iz vx vy vz fx fy fz omegax omegay omegaz radius tqx tqy tqz 
1 1 3.2121 4.75 0 0 0 0 0.116423 0 0 4.37947 0 0 0 0 -0.058501 0.5 0 0 -1.55363 
2 1 6.82253 5.25 0 0 0 0 -0.0811049 0 0 5.03875 0 0 0 0 -0.058501 0.5 0 0 -1.55363 
