ITEM: TIMESTEP
6100
ITEM: NUMBER OF ATOMS
2
ITEM: BOX BOUNDS xy xz yz ff ff ff
0.0000000000000000e+00 1.6100000000000001e+01 6.0999999999999996e+00
0.0000000000000000e+00 1.0000000000000000e+01 0.0000000000000000e+00
-0.0000000000000000e+00 1.0000000000000000e+01 0.0000000000000000e+00
ITEM: ATOMS id type x y z ix iy iz vx vy vz fx fy fz omegax omegay omegaz radius tqx tqy tqz 
1 1 3.06256 4.75 0 0 0 0 0.105117 0 0 4.39016 0 0 0 0 -0.0182808 0.5 0 0 -1.56628 
2 1 6.9408 5.25 0 0 0 0 -0.0941122 0 0 5.05104 0 0 0 0 -0.0182808 0.5 0 0 -1.56628 
