ITEM: TIMESTEP
34100
ITEM: NUMBER OF ATOMS
2
ITEM: BOX BOUNDS xy xz yz ff ff ff
0.0000000000000000e+00 4.4100000000000001e+01 3.4100000000000001e+01
0.0000000000000000e+00 1.0000000000000000e+01 0.0000000000000000e+00
-0.0000000000000000e+00 1.0000000000000000e+01 0.0000000000000000e+00
ITEM: ATOMS id type x y z ix iy iz vx vy vz fx fy fz omegax omegay omegaz radius tqx tqy tqz 
1 1 3.3897 4.75 0 0 0 0 0.128535 0 0 4.36803 0 0 0 0 -0.101339 0.5 0 0 -1.54016 
2 1 6.71503 5.25 0 0 0 0 -0.0671694 0 0 5.02558 0 0 0 0 -0.101339 0.5 0 0 -1.54016 
