ITEM: TIMESTEP
37100
ITEM: NUMBER OF ATOMS
2
ITEM: BOX BOUNDS xy xz yz ff ff ff
0.0000000000000000e+00 4.7099999999999994e+01 3.7099999999999994e+01
0.0000000000000000e+00 1.0000000000000000e+01 0.0000000000000000e+00
-0.0000000000000000e+00 1.0000000000000000e+01 0.0000000000000000e+00
ITEM: ATOMS id type x y z ix iy iz vx vy vz fx fy fz omegax omegay omegaz radius tqx tqy tqz 
1 1 3.42864 4.75 0 0 0 0 0.131037 0 0 4.36566 0 0 0 0 -0.110155 0.5 0 0 -1.53739 
2 1 6.69531 5.25 0 0 0 0 -0.0642907 0 0 5.02286 0 0 0 0 -0.110155 0.5 0 0 -1.53739 
