ITEM: TIMESTEP
25100
ITEM: NUMBER OF ATOMS
2
ITEM: BOX BOUNDS xy xz yz ff ff ff
0.0000000000000000e+00 3.5100000000000001e+01 2.5100000000000001e+01
0.0000000000000000e+00 1.0000000000000000e+01 0.0000000000000000e+00
-0.0000000000000000e+00 1.0000000000000000e+01 0.0000000000000000e+00
ITEM: ATOMS id type x y z ix iy iz vx vy vz fx fy fz omegax omegay omegaz radius tqx tqy tqz 
1 1 3.2774 4.75 0 0 0 0 0.121021 0 0 4.37513 0 0 0 0 -0.0747938 0.5 0 0 -1.54851 
2 1 6.77938 5.25 0 0 0 0 -0.0758147 0 0 5.03375 0 0 0 0 -0.0747938 0.5 0 0 -1.54851 
