ITEM: TIMESTEP
28600
ITEM: NUMBER OF ATOMS
2
ITEM: BOX BOUNDS xy xz yz ff ff ff
0.0000000000000000e+00 3.8600000000000001e+01 2.8600000000000001e+01
0.0000000000000000e+00 1.0000000000000000e+01 0.0000000000000000e+00
-0.0000000000000000e+00 1.0000000000000000e+01 0.0000000000000000e+00
ITEM: ATOMS id type x y z ix iy iz vx vy vz fx fy fz omegax omegay omegaz radius tqx tqy tqz 
1 1 3.32027 4.75 0 0 0 0 0.123944 0 0 4.37237 0 0 0 0 -0.085134 0.5 0 0 -1.54526 
2 1 6.75343 5.25 0 0 0 0 -0.072451 0 0 5.03057 0 0 0 0 -0.085134 0.5 0 0 -1.54526 
