ITEM: TIMESTEP
14800
ITEM: NUMBER OF ATOMS
2
ITEM: BOX BOUNDS xy xz yz ff ff ff
0.0000000000000000e+00 2.4800000000000001e+01 1.4800000000000001e+01
0.0000000000000000e+00 1.0000000000000000e+01 0.0000000000000000e+00
-0.0000000000000000e+00 1.0000000000000000e+01 0.0000000000000000e+00
ITEM: ATOMS id type x y z ix iy iz vx vy vz fx fy fz omegax omegay omegaz radius tqx tqy tqz 
1 1 3.15718 4.75 0 0 0 0 0.112406 0 0 4.38327 0 0 0 0 -0.0442379 0.5 0 0 -1.55812 
2 1 6.86257 5.25 0 0 0 0 -0.0857261 0 0 5.04312 0 0 0 0 -0.0442379 0.5 0 0 -1.55812 
