ITEM: TIMESTEP
23800
ITEM: NUMBER OF ATOMS
2
ITEM: BOX BOUNDS xy xz yz ff ff ff
0.0000000000000000e+00 3.3799999999999997e+01 2.3799999999999997e+01
0.0000000000000000e+00 1.0000000000000000e+01 0.0000000000000000e+00
-0.0000000000000000e+00 1.0000000000000000e+01 0.0000000000000000e+00
ITEM: ATOMS id type x y z ix iy iz vx vy vz fx fy fz omegax omegay omegaz radius tqx tqy tqz 
1 1 3.26174 4.75 0 0 0 0 0.119934 0 0 4.37616 0 0 0 0 -0.0709477 0.5 0 0 -1.54972 
2 1 6.78931 5.25 0 0 0 0 -0.0770647 0 0 5.03493 0 0 0 0 -0.0709477 0.5 0 0 -1.54972 
