ITEM: TIMESTEP
2100
ITEM: NUMBER OF ATOMS
2
ITEM: BOX BOUNDS xy xz yz ff ff ff
0.0000000000000000e+00 1.2100000000000000e+01 2.0999999999999996e+00
0.0000000000000000e+00 1.0000000000000000e+01 0.0000000000000000e+00
-0.0000000000000000e+00 1.0000000000000000e+01 0.0000000000000000e+00
ITEM: ATOMS id type x y z ix iy iz vx vy vz fx fy fz omegax omegay omegaz radius tqx tqy tqz 
1 1 3.02119 4.75 0 0 0 0 0.101762 0 0 4.39333 0 0 0 0 -0.00630095 0.5 0 0 -1.57004 
2 1 6.97921 5.25 0 0 0 0 -0.0979723 0 0 5.05469 0 0 0 0 -0.00630095 0.5 0 0 -1.57004 
