ITEM: TIMESTEP
28900
ITEM: NUMBER OF ATOMS
2
ITEM: BOX BOUNDS xy xz yz ff ff ff
0.0000000000000000e+00 3.8899999999999999e+01 2.8899999999999999e+01
0.0000000000000000e+00 1.0000000000000000e+01 0.0000000000000000e+00
-0.0000000000000000e+00 1.0000000000000000e+01 0.0000000000000000e+00
ITEM: ATOMS id type x y z ix iy iz vx vy vz fx fy fz omegax omegay omegaz radius tqx tqy tqz 
1 1 3.32399 4.75 0 0 0 0 0.124195 0 0 4.37213 0 0 0 0 -0.0860193 0.5 0 0 -1.54498 
2 1 6.75126 5.25 0 0 0 0 -0.0721628 0 0 5.0303 0 0 0 0 -0.0860193 0.5 0 0 -1.54498 
