ITEM: TIMESTEP
24000
ITEM: NUMBER OF ATOMS
2
ITEM: BOX BOUNDS xy xz yz ff ff ff
0.0000000000000000e+00 3.4000000000000000e+01 2.4000000000000000e+01
0.0000000000000000e+00 1.0000000000000000e+01 0.0000000000000000e+00
-0.0000000000000000e+00 1.0000000000000000e+01 0.0000000000000000e+00
ITEM: ATOMS id type x y z ix iy iz vx vy vz fx fy fz omegax omegay omegaz radius tqx tqy tqz 
1 1 3.26414 4.75 0 0 0 0 0.120102 0 0 4.376 0 0 0 0 -0.0715396 0.5 0 0 -1.54953 
2 1 6.78777 5.25 0 0 0 0 -0.0768723 0 0 5.03475 0 0 0 0 -0.0715396 0.5 0 0 -1.54953 
