ITEM: TIMESTEP
32000
ITEM: NUMBER OF ATOMS
2
ITEM: BOX BOUNDS xy xz yz ff ff ff
0.0000000000000000e+00 4.2000000000000000e+01 3.2000000000000000e+01
0.0000000000000000e+00 1.0000000000000000e+01 0.0000000000000000e+00
-0.0000000000000000e+00 1.0000000000000000e+01 0.0000000000000000e+00
ITEM: ATOMS id type x y z ix iy iz vx vy vz fx fy fz omegax omegay omegaz radius tqx tqy tqz 
1 1 3.36289 4.75 0 0 0 0 0.126783 0 0 4.36968 0 0 0 0 -0.0951579 0.5 0 0 -1.54211 
2 1 6.72935 5.25 0 0 0 0 -0.0691854 0 0 5.02748 0 0 0 0 -0.0951579 0.5 0 0 -1.54211 
